
Running Job 1 of 2 Q_in.in
qchem Q_in.in_357531.0 /scratch/ari.fischer/qChem2091142.hpc-mn1/qchem357531/ 0
/usr/local/qchem-5.4.1/exe/qcprog.exe_s Q_in.in_357531.0 /scratch/ari.fischer/qChem2091142.hpc-mn1/qchem357531/
                  Welcome to Q-Chem
     A Quantum Leap Into The Future Of Chemistry


 Q-Chem 5.4, Q-Chem, Inc., Pleasanton, CA (2021)

 License issued to: Nanyang Technological University (site)

 E. Epifanovsky,  A. T. B. Gilbert,  Xintian Feng,  Joonho Lee,  Yuezhi Mao,  
 N. Mardirossian,  P. Pokhilko,  A. White,  M. Wormit,  M. P. Coons,  
 A. L. Dempwolff,  Zhengting Gan,  D. Hait,  P. R. Horn,  L. D. Jacobson,  
 I. Kaliman,  J. Kussmann,  A. W. Lange,  Ka Un Lao,  D. S. Levine,  Jie Liu,  
 S. C. McKenzie,  A. F. Morrison,  K. Nanda,  F. Plasser,  D. R. Rehn,  
 M. L. Vidal,  Zhi-Qiang You,  Ying Zhu,  B. Alam,  B. Albrecht,  
 A. Aldossary,  E. Alguire,  J. H. Andersen,  D. Barton,  K. Begam,  A. Behn,  
 Y. A. Bernard,  E. J. Berquist,  H. Burton,  A. Carreras,  K. Carter-Fenk,  
 R. Chakraborty,  A. D. Chien,  K. D. Closser,  V. Cofer-Shabica,  
 S. Dasgupta,  Jia Deng,  M. de Wergifosse,  M. Diedenhofen,  Hainam Do,  
 S. Ehlert,  Po-Tung Fang,  S. Fatehi,  Qingguo Feng,  T. Friedhoff,  
 J. Gayvert,  Qinghui Ge,  G. Gidofalvi,  M. Goldey,  J. Gomes,  
 C. Gonzalez-Espinoza,  S. Gulania,  A. Gunina,  M. W. D. Hanson-Heine,  
 P. H. P. Harbach,  A. W. Hauser,  M. F. Herbst,  M. Hernandez Vera,  
 M. Hodecker,  Z. C. Holden,  S. Houck,  Xunkun Huang,  Kerwin Hui,  
 B. C. Huynh,  M. Ivanov,  Hyunjun Ji,  Hanjie Jiang,  B. Kaduk,  S. Kaehler,  
 K. Khistyaev,  Jaehoon Kim,  P. Klunzinger,  Z. Koczor-Benda,  
 Joong Hoon Koh,  D. Kosenkov,  L. Koulias,  T. Kowalczyk,  C. M. Krauter,  
 K. Kue,  A. Kunitsa,  T. Kus,  A. Landau,  K. V. Lawler,  D. Lefrancois,  
 S. Lehtola,  Rain Li,  Yi-Pei Li,  Jiashu Liang,  M. Liebenthal,  
 Hung-Hsuan Lin,  You-Sheng Lin,  Fenglai Liu,  Kuan-Yu Liu,  
 M. Loipersberger,  A. Luenser,  A. Manjanath,  P. Manohar,  E. Mansoor,  
 S. F. Manzer,  Shan-Ping Mao,  A. V. Marenich,  T. Markovich,  S. Mason,  
 S. A. Maurer,  P. F. McLaughlin,  M. F. S. J. Menger,  J.-M. Mewes,  
 S. A. Mewes,  P. Morgante,  J. W. Mullinax,  K. J. Oosterbaan,  G. Paran,  
 Alexander C. Paul,  Suranjan K. Paul,  F. Pavosevic,  Zheng Pei,  S. Prager,  
 E. I. Proynov,  E. Ramos,  B. Rana,  A. E. Rask,  A. Rettig,  R. M. Richard,  
 F. Rob,  E. Rossomme,  T. Scheele,  M. Scheurer,  M. Schneider,  
 N. Sergueev,  S. M. Sharada,  W. Skomorowski,  D. W. Small,  C. J. Stein,  
 Yu-Chuan Su,  E. J. Sundstrom,  Zhen Tao,  J. Thirman,  T. Tsuchimochi,  
 N. M. Tubman,  S. P. Veccham,  O. Vydrov,  J. Wenzel,  J. Witte,  A. Yamada,  
 Kun Yao,  S. Yeganeh,  S. R. Yost,  A. Zech,  Igor Ying Zhang,  Xing Zhang,  
 Yu Zhang,  D. Zuev,  A. Aspuru-Guzik,  A. T. Bell,  N. A. Besley,  
 K. B. Bravaya,  B. R. Brooks,  D. Casanova,  Jeng-Da Chai,  S. Coriani,  
 C. J. Cramer,  A. E. DePrince, III,  R. A. DiStasio Jr.,  A. Dreuw,  
 B. D. Dunietz,  T. R. Furlani,  W. A. Goddard III,  S. Grimme,  
 S. Hammes-Schiffer,  T. Head-Gordon,  W. J. Hehre,  Chao-Ping Hsu,  
 T.-C. Jagau,  Yousung Jung,  A. Klamt,  Jing Kong,  D. S. Lambrecht,  
 WanZhen Liang,  N. J. Mayhall,  C. W. McCurdy,  J. B. Neaton,  
 C. Ochsenfeld,  J. A. Parkhill,  R. Peverati,  V. A. Rassolov,  Yihan Shao,  
 L. V. Slipchenko,  T. Stauch,  R. P. Steele,  J. E. Subotnik,  
 A. J. W. Thom,  A. Tkatchenko,  D. G. Truhlar,  T. Van Voorhis,  
 T. A. Wesolowski,  K. B. Whaley,  H. L. Woodcock III,  P. M. Zimmerman,  
 S. Faraji,  P. M. W. Gill,  M. Head-Gordon,  J. M. Herbert,  A. I. Krylov

 Additional authors for Version 5.4.1: 
 S. Kotaru,  Shaozhi Li,  Xiangyuan Li,  F. Matz,  A. Molle,  Haisheng Ren,  
 Yingli Su,  Hung-Yi Tsai,  C. Utku,  Fang Wang

 Contributors to earlier versions of Q-Chem not listed above: 
 R. D. Adamson,  B. Austin,  R. Baer,  J. Baker,  G. J. O. Beran,  
 K. Brandhorst,  S. T. Brown,  E. F. C. Byrd,  A. K. Chakraborty,  
 G. K. L. Chan,  Chun-Min Chang,  Yunqing Chen,  C.-L. Cheng,  
 Siu Hung Chien,  D. M. Chipman,  D. L. Crittenden,  H. Dachsel,  
 R. J. Doerksen,  A. D. Dutoi,  R. G. Edgar,  J. Fosso-Tande,  
 L. Fusti-Molnar,  D. Ghosh,  A. Ghysels,  A. Golubeva-Zadorozhnaya,  
 J. Gonthier,  M. S. Gordon,  S. R. Gwaltney,  G. Hawkins,  J. E. Herr,  
 A. Heyden,  S. Hirata,  E. G. Hohenstein,  G. Kedziora,  F. J. Keil,  
 C. Kelley,  Jihan Kim,  R. A. King,  R. Z. Khaliullin,  P. P. Korambath,  
 W. Kurlancheek,  A. Laurent,  A. M. Lee,  M. S. Lee,  S. V. Levchenko,  
 Ching Yeh Lin,  D. Liotard,  E. Livshits,  R. C. Lochan,  I. Lotan,  
 L. A. Martinez-Martinez,  P. E. Maslen,  N. Nair,  D. P. O'Neill,  
 D. Neuhauser,  E. Neuscamman,  C. M. Oana,  R. Olivares-Amaya,  R. Olson,  
 T. M. Perrine,  B. Peters,  P. A. Pieniazek,  A. Prociuk,  Y. M. Rhee,  
 J. Ritchie,  M. A. Rohrdanz,  E. Rosta,  N. J. Russ,  H. F. Schaefer III,  
 M. W. Schmidt,  N. E. Schultz,  S. Sharma,  N. Shenvi,  C. D. Sherrill,  
 A. C. Simmonett,  A. Sodt,  T. Stein,  D. Stuck,  K. S. Thanthiriwatte,  
 V. Vanovschi,  L. Vogt,  Tao Wang,  A. Warshel,  M. A. Watson,  
 C. F. Williams,  Q. Wu,  X. Xu,  Jun Yang,  W. Zhang,  Yan Zhao

 Please cite Q-Chem as follows:
 Y. Shao et al., Mol. Phys. 113, 184-215 (2015)
 DOI: 10.1080/00268976.2014.952696

 Q-Chem 5.4.1 for Intel X86 EM64T Linux

 Parts of Q-Chem use Armadillo 9.800.1 (Horizon Scraper).
 http://arma.sourceforge.net/

 Q-Chem begins on Thu May  9 17:42:59 2024  

 Host: 
0

     Scratch files written to /scratch/ari.fischer/qChem2091142.hpc-mn1/qchem357531//
 Aug1521 |scratch|qcdevops|jenkins|workspace|build_RNUM 8249   
 Processing $rem in /usr/local/qchem-5.4.1/config/preferences:
 Processing $rem in /home/ari.fischer/.qchemrc:
 Symmetry turned off for PCM/SM12/SMD calculation


!!********************************************.
!!******************Warning*******************.
!!Desired Analytical derivatives not available.
!!Finite difference job might take a long time.
!!********************************************.
!!********************************************.


 2-order derivative to be evaluated numerically with 1-order analytical derivatives

 Checking the input file for inconsistencies... 	...done.

--------------------------------------------------------------
User input:
--------------------------------------------------------------
$molecule
0 2
C         0.1530048957   -0.5140473525   -0.4508835185
O        -0.7103897910   -1.3168677804    0.1401348939
H         0.0816042768   -0.3331649070   -1.5144648807
C         1.2924018927   -0.0917889656    0.3112877040
H         1.3092800803   -0.4020378528    1.3647405136
O         2.1850572505    0.6036112494   -0.1718117140
H        -1.4123188410   -1.5819600205   -0.4703542325
O        -0.8572008767    1.3834619275    0.0559111468
O        -1.9218483872    1.0352738021    0.5387925874
$end

$rem
BASIS = 6-311++G(2df,2p)
GUI = 2
JOB_TYPE = Frequency
METHOD = wB97M-V
SOLVENT_METHOD = SMD
SCF_ALGORITHM = DIIS_GDM
MAX_SCF_CYCLES = 400
SCF_CONVERGENCE = 7
THRESH = 12
$end

--------------------------------------------------------------
 ----------------------------------------------------------------
             Standard Nuclear Orientation (Angstroms)
    I     Atom           X                Y                Z
 ----------------------------------------------------------------
    1      C       0.1530048957    -0.5140473525    -0.4508835185
    2      O      -0.7103897910    -1.3168677804     0.1401348939
    3      H       0.0816042768    -0.3331649070    -1.5144648807
    4      C       1.2924018927    -0.0917889656     0.3112877040
    5      H       1.3092800803    -0.4020378528     1.3647405136
    6      O       2.1850572505     0.6036112494    -0.1718117140
    7      H      -1.4123188410    -1.5819600205    -0.4703542325
    8      O      -0.8572008767     1.3834619275     0.0559111468
    9      O      -1.9218483872     1.0352738021     0.5387925874
 ----------------------------------------------------------------
 Nuclear Repulsion Energy =         227.28377755 hartrees
 There are       24 alpha and       23 beta electrons
 Requested basis set is 6-311++G(2df,2p)
 There are 66 shells and 234 basis functions

 Total QAlloc Memory Limit 288000 MB
 Mega-Array Size       188 MB
 MEM_STATIC part       192 MB
 
 Citation of the SMD model:
 Marenich, A.V.; Cramer, C.J.; Truhlar, D.G.
 J. Phys. Chem. B 2009, 113, 6378-6396.
 iSolventCode=           1
 Solvent: water                                                           
 
 vradii
            1           2           3           4           5           6
    1   1.8500000   1.5200000   1.2000000   1.8500000   1.2000000   1.5200000
            7           8           9
    1   1.2000000   1.5200000   1.5200000
 Changing PCM_VDW_RADII to SMD_RADIUS
 Discretize the solute cavity surface with Lebedev spheres
	Using 110 Lebedev grid points for each H atom
	Using 194 Lebedev grid points for other atoms
	Atomic van der Waals radii will be scaled by 1.20
 Remove points where switching function is < 1.0e-08
 Keep 855 surface tesserae and discard 639 interior tesserae
 Molecular Surface Area = 106.134 Angst**2

                       Distance Matrix (Angstroms)
             C (  1)   O (  2)   H (  3)   C (  4)   H (  5)   O (  6)
   O (  2)  1.318815
   H (  3)  1.081213  2.081496
   C (  4)  1.434375  2.353994  2.204011
   H (  5)  2.155460  2.532911  3.130775  1.098318
   O (  6)  2.335868  3.488433  2.665480  1.230366  2.034529
   H (  7)  1.895008  0.967303  2.209403  3.185449  3.488107  4.219830
   O (  8)  2.208596  2.705629  2.508833  2.619613  3.097529  3.148866
   O (  9)  2.772160  2.675655  3.178414  3.413713  3.631562  4.190223
             H (  7)   O (  8)
   O (  8)  3.062489
   O (  9)  2.850949  1.219788
 
 A cutoff of  1.0D-12 yielded   2073 shell pairs
 There are     26151 function pairs (     33245 Cartesian)
 Smallest overlap matrix eigenvalue = 6.66E-05
 Guess from superposition of atomic densities
 Warning:  Energy on first SCF cycle will be non-variational
 SAD guess density has 47.000000 electrons

 -----------------------------------------------------------------------
  General SCF calculation program by
  Eric Jon Sundstrom, Paul Horn, Yuezhi Mao, Dmitri Zuev, Alec White,
  David Stuck, Shaama M.S., Shane Yost, Joonho Lee, David Small,
  Daniel Levine, Susi Lehtola, Hugh Burton, Evgeny Epifanovsky,
  Bang C. Huynh
 -----------------------------------------------------------------------
 Exchange:     0.1500 Hartree-Fock + 1.0000 wB97M-V + LR-HF
 Correlation:  1.0000 wB97M-V
 Using SG-2 standard quadrature grid
 Nonlocal Correlation:  VV10 with C = 0.0100 and b = 6.00 and scale = 1.00000
 Grid used for NLC:  SG-1 standard quadrature
 using 16 threads for integral computing
 -------------------------------------------------------
 OpenMP Integral computing Module                
 Release: version 1.0, May 2013, Q-Chem Inc. Pittsburgh 
 -------------------------------------------------------
 
 Citation of the SMD model:
 Marenich, A.V.; Cramer, C.J.; Truhlar, D.G.
 J. Phys. Chem. B 2009, 113, 6378-6396.
 iSolventCode=           1
 Solvent: water                                                           
 
 vradii
            1           2           3           4           5           6
    1   1.8500000   1.5200000   1.2000000   1.8500000   1.2000000   1.5200000
            7           8           9
    1   1.2000000   1.5200000   1.5200000
 -------------------------------------------------------
 OpenMP BLAS3 based DFT computing Module                
 Release: version 1.0, May 2013, Q-Chem Inc. Pittsburgh 
 -------------------------------------------------------
 A unrestricted SCF calculation will be
 performed using DIIS, GDM
 SCF converges when RMS gradient is below 1.0e-07
 ---------------------------------------
  Cycle       Energy         DIIS error
 ---------------------------------------
    1    -379.5674495774      1.59e-02  
    2    -378.6357651683      2.26e-03  Done DIIS. Switching to GDM
 ---------------------------------------
  Cycle       Energy        RMS Gradient
 ---------------------------------------
    1    -378.6357651683      1.57e-01   Descent step
    2    -378.7375461367      4.15e-02   Normal BFGS step
    3    -378.7520297474      3.54e-02   Normal BFGS step
    4    -378.7538399330      1.38e-02   Normal BFGS step
    5    -378.7548959101      1.52e-02   Normal BFGS step
    6    -378.7556510135      1.42e-02   Normal BFGS step
    7    -378.7572780594      2.29e-02   Normal BFGS step
    8    -378.7587718933      2.40e-02   Normal BFGS step
    9    -378.7614014674      1.94e-02   Normal BFGS step
   10    -378.7620434456      1.49e-02   Normal BFGS step
   11    -378.7628520951      5.41e-03   Normal BFGS step
   12    -378.7631529459      3.74e-03   Normal BFGS step
   13    -378.7632027716      2.24e-03   Normal BFGS step
   14    -378.7632216664      1.18e-03   Normal BFGS step
   15    -378.7632261721      8.03e-04   Normal BFGS step
   16    -378.7632280508      3.06e-04   Normal BFGS step
   17    -378.7632284114      1.44e-04   Normal BFGS step
   18    -378.7632285131      6.31e-05   Normal BFGS step
   19    -378.7632285457      1.48e-05   Normal BFGS step
   20    -378.7632285495      1.04e-05   Normal BFGS step
   21    -378.7632285500      4.42e-06   Normal BFGS step
   22    -378.7632285501      1.82e-06   Normal BFGS step
   23    -378.7632285501      7.06e-07   Normal BFGS step
   24    -378.7632285501      3.89e-07   Normal BFGS step
   25    -378.7632285501      1.95e-07   Normal BFGS step
   26    -378.7632285501      1.01e-07   Normal BFGS step
   27    -378.7632285501      4.27e-08  Convergence criterion met
 ---------------------------------------
 SCF time:   CPU 712.16s  wall 46.00s 
<S^2> =          1.332890347
(3)  G-ENP(liq) elect-nuc-pol free energy of system     -378.763228550 a.u.
(4)  G-CDS(liq) cavity-dispersion-solvent structure 
     free energy                                                3.6274 kcal/mol
(6)  G-S(liq) free energy of system                     -378.757447983 a.u.
 SCF   energy in the final basis set =     -378.7574479835
 Total energy in the final basis set =     -378.7574479835
 
 --------------------------------------------------------------
 
                    Orbital Energies (a.u.)
 --------------------------------------------------------------
 
 Alpha MOs
 -- Occupied --
-19.4751 -19.4553 -19.4007 -19.3358 -10.4351 -10.4348  -1.4026  -1.2311
 -1.1743  -0.9487  -0.8592  -0.7082  -0.6888  -0.6568  -0.6500  -0.6402
 -0.6035  -0.5568  -0.5228  -0.4979  -0.4785  -0.3960  -0.3911  -0.3782
 -- Virtual --
 -0.0145   0.0331   0.0449   0.0527   0.0874   0.0919   0.1009   0.1140
  0.1342   0.1368   0.1502   0.1591   0.1741   0.1821   0.2000   0.2299
  0.2389   0.2472   0.2620   0.2761   0.2832   0.2882   0.3108   0.3198
  0.3267   0.3334   0.3419   0.3518   0.3576   0.3927   0.4057   0.4106
  0.4312   0.4429   0.4793   0.4995   0.5698   0.5804   0.6186   0.6202
  0.6561   0.6765   0.6823   0.7189   0.7371   0.7624   0.8144   0.8310
  0.8483   0.8846   0.9185   0.9499   0.9971   1.0234   1.0511   1.0654
  1.0897   1.1016   1.1223   1.1313   1.1331   1.1559   1.1714   1.1811
  1.1980   1.2083   1.2416   1.2665   1.2746   1.2903   1.3390   1.3765
  1.4139   1.4406   1.4637   1.4917   1.4971   1.5389   1.5710   1.5804
  1.6030   1.6469   1.6679   1.7156   1.7855   1.7903   1.8167   1.8471
  1.9314   1.9556   2.0131   2.0618   2.1465   2.2568   2.3123   2.3294
  2.3426   2.3799   2.4180   2.5154   2.5459   2.6157   2.6477   2.7349
  2.7606   2.7958   2.8465   2.9477   2.9766   3.0477   3.0590   3.1171
  3.1297   3.1877   3.2456   3.3109   3.3531   3.3712   3.3864   3.4276
  3.4881   3.5381   3.5672   3.5945   3.6351   3.6872   3.7459   3.7603
  3.8048   3.9057   3.9421   4.0055   4.0913   4.2182   4.2469   4.3124
  4.3344   4.3499   4.4523   4.5175   4.5666   4.6112   4.6276   4.6468
  4.8148   4.8278   4.9539   4.9611   4.9655   5.0147   5.0719   5.1208
  5.1436   5.1643   5.1755   5.1817   5.1890   5.2192   5.2301   5.2486
  5.2610   5.2789   5.3110   5.3285   5.3674   5.5152   5.5561   5.5609
  5.6490   5.6969   5.7311   5.7359   5.7969   5.8435   6.0060   6.3067
  6.3601   6.6904   6.7361   6.7704   6.7822   6.7873   6.8555   6.8945
  6.9515   6.9623   6.9822   6.9942   7.0299   7.0456   7.1043   7.1557
  7.2742   7.3048   7.3266   7.3572   7.3742   7.4669   7.5412   7.7113
  7.7649   7.7955   8.0902   8.1311  24.7465  25.0874  50.4554  50.5050
 50.6015  50.6997
 
 Beta MOs
 -- Occupied --
-19.4488 -19.4296 -19.4040 -19.3410 -10.4414 -10.4347  -1.3541  -1.2386
 -1.1829  -0.8914  -0.8583  -0.7125  -0.6932  -0.6195  -0.6089  -0.5921
 -0.5625  -0.5511  -0.5231  -0.5056  -0.4987  -0.3873  -0.3009
 -- Virtual --
 -0.0206  -0.0086   0.0331   0.0448   0.0527   0.0861   0.0910   0.0943
  0.1144   0.1276   0.1365   0.1502   0.1601   0.1712   0.1819   0.2013
  0.2329   0.2381   0.2491   0.2616   0.2764   0.2832   0.2892   0.3122
  0.3215   0.3302   0.3347   0.3413   0.3522   0.3681   0.3999   0.4083
  0.4163   0.4270   0.4445   0.4788   0.4970   0.5669   0.5770   0.6130
  0.6176   0.6564   0.6726   0.6760   0.7133   0.7301   0.7549   0.8149
  0.8306   0.8443   0.8826   0.9121   0.9495   0.9995   1.0319   1.0569
  1.0754   1.0895   1.1120   1.1318   1.1382   1.1415   1.1645   1.1720
  1.1794   1.2062   1.2234   1.2436   1.2735   1.2830   1.2946   1.3385
  1.3785   1.4125   1.4522   1.4830   1.4985   1.5165   1.5546   1.5792
  1.5963   1.6028   1.6464   1.6811   1.7330   1.7841   1.7957   1.8168
  1.8786   1.9276   1.9523   2.0176   2.0561   2.1395   2.2548   2.3209
  2.3455   2.3718   2.3934   2.4152   2.5145   2.5406   2.6299   2.6393
  2.7107   2.7514   2.7837   2.8347   2.9236   2.9659   3.0280   3.0420
  3.0953   3.1182   3.1735   3.2268   3.2989   3.3384   3.3551   3.3656
  3.4105   3.4748   3.5230   3.5506   3.5733   3.6130   3.6677   3.7315
  3.7543   3.7956   3.8920   3.9369   3.9932   4.0843   4.2151   4.2415
  4.2961   4.3215   4.3228   4.4428   4.5137   4.6138   4.6477   4.6705
  4.6870   4.7978   4.8163   4.9884   5.0223   5.0276   5.1047   5.1247
  5.1540   5.1612   5.1691   5.1936   5.2090   5.2228   5.2444   5.2500
  5.2643   5.2772   5.2913   5.3313   5.3554   5.3636   5.5021   5.5456
  5.5472   5.6404   5.6841   5.7745   5.7849   5.7880   5.8386   5.9934
  6.2940   6.3532   6.7063   6.8191   6.8371   6.8422   6.8697   6.8943
  6.9377   6.9836   6.9955   7.0245   7.0383   7.0573   7.0710   7.1497
  7.1851   7.2724   7.3012   7.3173   7.3437   7.4194   7.5008   7.5360
  7.7040   7.7550   7.7911   8.1179   8.1722  24.7428  25.0842  50.4752
 50.5240  50.6006  50.6962
 --------------------------------------------------------------
 
          Ground-State Mulliken Net Atomic Charges

     Atom                 Charge (a.u.)    Spin (a.u.)
  --------------------------------------------------------
      1 C                    -0.146766      -0.426799
      2 O                    -0.232551      -0.096792
      3 H                     0.285764       0.012488
      4 C                     0.052647      -0.025888
      5 H                     0.208546       0.002614
      6 O                    -0.449879      -0.179789
      7 H                     0.370533       0.000911
      8 O                    -0.010004       0.853164
      9 O                    -0.078290       0.860091
  --------------------------------------------------------
  Sum of atomic charges =     0.000000
  Sum of spin   charges =     1.000000

 -----------------------------------------------------------------
                    Cartesian Multipole Moments
 -----------------------------------------------------------------
    Charge (ESU x 10^10)
                 0.0000
    Dipole Moment (Debye)
         X      -3.6796      Y      -4.2008      Z      -1.5764
       Tot       5.8027
    Quadrupole Moments (Debye-Ang)
        XX     -43.0909     XY      -0.0340     YY     -34.4847
        XZ       5.3892     YZ       2.7587     ZZ     -30.9766
    Octopole Moments (Debye-Ang^2)
       XXX     -32.3863    XXY     -23.1049    XYY      -8.1405
       YYY     -20.9518    XXZ      -2.5293    XYZ      -2.1212
       YYZ      -5.8025    XZZ      -1.4962    YZZ      -7.0229
       ZZZ      -7.7105
    Hexadecapole Moments (Debye-Ang^3)
      XXXX    -490.7456   XXXY       7.1806   XXYY    -104.2465
      XYYY      22.7499   YYYY    -210.6770   XXXZ      30.8128
      XXYZ      -0.1295   XYYZ      11.9528   YYYZ      -2.5785
      XXZZ     -81.6611   XYZZ       4.4261   YYZZ     -46.0911
      XZZZ      21.4404   YZZZ      -7.2843   ZZZZ     -60.6301
 -----------------------------------------------------------------
 Calculating analytic gradient of the SCF energy
 Gradient of CDS energy
            1           2           3           4           5           6
    1  -0.0020344   0.0017216  -0.0000852   0.0024367  -0.0001554  -0.0013648
    2  -0.0021527   0.0017873   0.0001913   0.0013642  -0.0001194  -0.0009588
    3   0.0006720  -0.0010470  -0.0000741  -0.0001683   0.0000667   0.0006431
            7           8           9
    1  -0.0003156  -0.0002121   0.0000092
    2  -0.0002804   0.0000345   0.0001339
    3  -0.0000904  -0.0000346   0.0000326
 Gradient of SCF Energy
            1           2           3           4           5           6
    1   0.0034740   0.0151873  -0.0044360   0.0018617  -0.0012737   0.0028574
    2  -0.0028874   0.0069786   0.0009839   0.0024872  -0.0026549   0.0026821
    3   0.0147787   0.0183343  -0.0162146  -0.0056079   0.0051961  -0.0001089
            7           8           9
    1  -0.0180260   0.0020502  -0.0016949
    2  -0.0078334   0.0009335  -0.0006896
    3  -0.0168290  -0.0007690   0.0012204
 Max gradient component =       1.833E-02
 RMS gradient           =       8.411E-03
 Computing fast CPCM-SWIG gradient
 Updating gradient with PCM contributions...
 -- total gradient after adding PCM contribution --
---------------------------------------------------
  Atom         X              Y              Z     
---------------------------------------------------
   1      -0.000019      -0.000037       0.000007
   2       0.000021       0.000008      -0.000017
   3      -0.000003       0.000011      -0.000004
   4       0.000022       0.000040       0.000005
   5      -0.000004       0.000008       0.000000
   6      -0.000019       0.000006       0.000012
   7       0.000010      -0.000012      -0.000006
   8       0.000010      -0.000001      -0.000001
   9      -0.000017      -0.000023       0.000003
---------------------------------------------------
 Number of fixed atoms: 0
 Gradient time:  CPU 64.15 s  wall 5.48 s
 ######################################################
 ######################################################
 # Starting finite difference calculation for IDERIV  #
 Finite diff step size:  1.88973e-03 a.u.
 ----------------------------------------------------------------
             Standard Nuclear Orientation (Angstroms)
    I     Atom           X                Y                Z
 ----------------------------------------------------------------
    1      C       0.1540048957    -0.5140473525    -0.4508835185
    2      O      -0.7103897910    -1.3168677804     0.1401348939
    3      H       0.0816042768    -0.3331649070    -1.5144648807
    4      C       1.2924018927    -0.0917889656     0.3112877040
    5      H       1.3092800803    -0.4020378528     1.3647405136
    6      O       2.1850572505     0.6036112494    -0.1718117140
    7      H      -1.4123188410    -1.5819600205    -0.4703542325
    8      O      -0.8572008767     1.3834619275     0.0559111468
    9      O      -1.9218483872     1.0352738021     0.5387925874
 ----------------------------------------------------------------
 Nuclear Repulsion Energy =         227.28022748 hartrees
 There are       24 alpha and       23 beta electrons
 Discretize the solute cavity surface with Lebedev spheres
	Using 110 Lebedev grid points for each H atom
	Using 194 Lebedev grid points for other atoms
	Atomic van der Waals radii will be scaled by 1.20
 Remove points where switching function is < 1.0e-08
 Keep 855 surface tesserae and discard 639 interior tesserae
 Molecular Surface Area = 106.137 Angst**2

                       Distance Matrix (Angstroms)
             C (  1)   O (  2)   H (  3)   C (  4)   H (  5)   O (  6)
   O (  2)  1.319470
   H (  3)  1.081280  2.081496
   C (  4)  1.433581  2.353994  2.204011
   H (  5)  2.154924  2.532911  3.130775  1.098318
   O (  6)  2.334998  3.488433  2.665480  1.230366  2.034529
   H (  7)  1.895834  0.967303  2.209403  3.185449  3.488107  4.219830
   O (  8)  2.209054  2.705629  2.508833  2.619613  3.097529  3.148866
   O (  9)  2.772909  2.675655  3.178414  3.413713  3.631562  4.190223
             H (  7)   O (  8)
   O (  8)  3.062489
   O (  9)  2.850949  1.219788
 
 Requested basis set is 6-311++G(2df,2p)
 There are 66 shells and 234 basis functions
 A cutoff of  1.0D-12 yielded   2073 shell pairs
 There are     26151 function pairs (     33245 Cartesian)
 Smallest overlap matrix eigenvalue = 6.65E-05
 Guess MOs from SCF MO coefficient file

 -----------------------------------------------------------------------
  General SCF calculation program by
  Eric Jon Sundstrom, Paul Horn, Yuezhi Mao, Dmitri Zuev, Alec White,
  David Stuck, Shaama M.S., Shane Yost, Joonho Lee, David Small,
  Daniel Levine, Susi Lehtola, Hugh Burton, Evgeny Epifanovsky,
  Bang C. Huynh
 -----------------------------------------------------------------------
 Exchange:     0.1500 Hartree-Fock + 1.0000 wB97M-V + LR-HF
 Correlation:  1.0000 wB97M-V
 Using SG-2 standard quadrature grid
 Nonlocal Correlation:  VV10 with C = 0.0100 and b = 6.00 and scale = 1.00000
 Grid used for NLC:  SG-1 standard quadrature
 
 Citation of the SMD model:
 Marenich, A.V.; Cramer, C.J.; Truhlar, D.G.
 J. Phys. Chem. B 2009, 113, 6378-6396.
 iSolventCode=           1
 Solvent: water                                                           
 
 vradii
            1           2           3           4           5           6
    1   1.8500000   1.5200000   1.2000000   1.8500000   1.2000000   1.5200000
            7           8           9
    1   1.2000000   1.5200000   1.5200000
 -------------------------------------------------------
 OpenMP BLAS3 based DFT computing Module                
 Release: version 1.0, May 2013, Q-Chem Inc. Pittsburgh 
 -------------------------------------------------------
 A unrestricted SCF calculation will be
 performed using Roothaan-Hall, DIIS, GDM
 SCF converges when RMS gradient is below 1.0e-07
 ---------------------------------------
  Cycle       Energy         DIIS error
 ---------------------------------------
    1    -378.7314361254      3.37e-04  Roothaan Step
 ---------------------------------------
  Cycle       Energy         DIIS error
 ---------------------------------------
    1    -378.7558263298      4.31e-04  
    2    -378.7582857174      5.17e-04  Done DIIS. Switching to GDM
 ---------------------------------------
  Cycle       Energy        RMS Gradient
 ---------------------------------------
    1    -378.7582857174      2.91e-02   Normal BFGS step
    2    -378.7553902296      5.02e-02  Line search: overstep
    3    -378.7630032573      5.63e-03   Normal BFGS step
    4    -378.7631775416      2.69e-03   Normal BFGS step
    5    -378.7632067413      2.58e-03   Normal BFGS step
    6    -378.7632196319      9.44e-04   Normal BFGS step
    7    -378.7632224917      4.69e-04   Normal BFGS step
    8    -378.7632235257      2.58e-04   Normal BFGS step
    9    -378.7632238272      1.48e-04   Normal BFGS step
   10    -378.7632239236      5.48e-05   Normal BFGS step
   11    -378.7632239592      6.53e-05   Normal BFGS step
   12    -378.7632239769      5.32e-05   Normal BFGS step
   13    -378.7632239812      1.21e-05   Normal BFGS step
   14    -378.7632239829      9.92e-06   Normal BFGS step
   15    -378.7632239834      6.75e-06   Normal BFGS step
   16    -378.7632239836      2.83e-06   Normal BFGS step
   17    -378.7632239837      1.45e-06   Normal BFGS step
   18    -378.7632239837      6.72e-07   Normal BFGS step
   19    -378.7632239837      5.13e-07   Normal BFGS step
   20    -378.7632239837      2.16e-07   Normal BFGS step
   21    -378.7632239837      4.68e-08  Convergence criterion met
 ---------------------------------------
 SCF time:   CPU 583.40s  wall 37.00s 
<S^2> =          1.335307618
(3)  G-ENP(liq) elect-nuc-pol free energy of system     -378.763223984 a.u.
(4)  G-CDS(liq) cavity-dispersion-solvent structure 
     free energy                                                3.6249 kcal/mol
(6)  G-S(liq) free energy of system                     -378.757447272 a.u.
 SCF   energy in the final basis set =     -378.7574472723
 Total energy in the final basis set =     -378.7574472723
 
 --------------------------------------------------------------
 
                    Orbital Energies (a.u.)
 --------------------------------------------------------------
 
 Alpha MOs
 -- Occupied --
-19.4753 -19.4555 -19.4005 -19.3357 -10.4350 -10.4346  -1.4028  -1.2307
 -1.1743  -0.9489  -0.8593  -0.7081  -0.6886  -0.6569  -0.6501  -0.6404
 -0.6034  -0.5567  -0.5227  -0.4978  -0.4784  -0.3962  -0.3913  -0.3782
 -- Virtual --
 -0.0146   0.0331   0.0449   0.0527   0.0874   0.0919   0.1009   0.1140
  0.1343   0.1368   0.1502   0.1591   0.1741   0.1821   0.2000   0.2299
  0.2389   0.2472   0.2620   0.2761   0.2832   0.2882   0.3108   0.3198
  0.3267   0.3334   0.3419   0.3519   0.3575   0.3927   0.4057   0.4105
  0.4314   0.4429   0.4793   0.4995   0.5699   0.5805   0.6186   0.6202
  0.6561   0.6765   0.6824   0.7191   0.7371   0.7625   0.8144   0.8311
  0.8483   0.8845   0.9186   0.9499   0.9971   1.0233   1.0511   1.0654
  1.0896   1.1016   1.1222   1.1313   1.1331   1.1559   1.1715   1.1811
  1.1981   1.2083   1.2415   1.2664   1.2746   1.2904   1.3391   1.3767
  1.4139   1.4407   1.4636   1.4916   1.4970   1.5389   1.5709   1.5804
  1.6029   1.6471   1.6677   1.7155   1.7856   1.7904   1.8169   1.8471
  1.9312   1.9556   2.0132   2.0620   2.1466   2.2567   2.3123   2.3293
  2.3425   2.3798   2.4177   2.5152   2.5460   2.6156   2.6480   2.7351
  2.7608   2.7962   2.8464   2.9476   2.9765   3.0475   3.0589   3.1172
  3.1302   3.1877   3.2457   3.3109   3.3531   3.3713   3.3861   3.4278
  3.4883   3.5383   3.5672   3.5949   3.6354   3.6874   3.7458   3.7603
  3.8046   3.9054   3.9426   4.0061   4.0914   4.2184   4.2471   4.3130
  4.3348   4.3516   4.4524   4.5175   4.5665   4.6110   4.6274   4.6466
  4.8155   4.8289   4.9537   4.9609   4.9653   5.0145   5.0716   5.1206
  5.1434   5.1643   5.1755   5.1817   5.1889   5.2191   5.2301   5.2487
  5.2610   5.2789   5.3108   5.3283   5.3673   5.5154   5.5563   5.5610
  5.6491   5.6968   5.7308   5.7357   5.7970   5.8437   6.0044   6.3068
  6.3592   6.6902   6.7360   6.7702   6.7818   6.7870   6.8551   6.8941
  6.9512   6.9623   6.9820   6.9940   7.0301   7.0456   7.1039   7.1560
  7.2740   7.3048   7.3265   7.3572   7.3741   7.4666   7.5414   7.7115
  7.7650   7.7955   8.0900   8.1309  24.7454  25.0889  50.4552  50.5047
 50.6012  50.6999
 
 Beta MOs
 -- Occupied --
-19.4490 -19.4298 -19.4039 -19.3409 -10.4413 -10.4346  -1.3542  -1.2382
 -1.1829  -0.8915  -0.8584  -0.7124  -0.6930  -0.6196  -0.6088  -0.5922
 -0.5625  -0.5512  -0.5231  -0.5055  -0.4986  -0.3873  -0.3010
 -- Virtual --
 -0.0206  -0.0087   0.0331   0.0448   0.0527   0.0861   0.0910   0.0943
  0.1144   0.1277   0.1365   0.1502   0.1601   0.1712   0.1819   0.2013
  0.2328   0.2381   0.2491   0.2616   0.2763   0.2832   0.2892   0.3122
  0.3215   0.3301   0.3346   0.3413   0.3523   0.3681   0.3999   0.4083
  0.4163   0.4271   0.4444   0.4788   0.4970   0.5670   0.5771   0.6130
  0.6175   0.6565   0.6726   0.6761   0.7135   0.7301   0.7549   0.8149
  0.8306   0.8443   0.8825   0.9122   0.9495   0.9996   1.0318   1.0569
  1.0754   1.0895   1.1120   1.1317   1.1383   1.1414   1.1645   1.1720
  1.1794   1.2062   1.2234   1.2435   1.2735   1.2830   1.2947   1.3386
  1.3787   1.4127   1.4522   1.4830   1.4985   1.5164   1.5546   1.5792
  1.5962   1.6027   1.6467   1.6809   1.7330   1.7841   1.7957   1.8169
  1.8786   1.9274   1.9523   2.0177   2.0562   2.1396   2.2547   2.3210
  2.3453   2.3717   2.3932   2.4149   2.5142   2.5407   2.6299   2.6396
  2.7109   2.7516   2.7840   2.8345   2.9234   2.9657   3.0276   3.0420
  3.0953   3.1188   3.1735   3.2268   3.2988   3.3384   3.3551   3.3653
  3.4106   3.4750   3.5232   3.5508   3.5735   3.6132   3.6678   3.7313
  3.7544   3.7955   3.8917   3.9372   3.9939   4.0845   4.2154   4.2416
  4.2967   4.3218   4.3246   4.4429   4.5137   4.6137   4.6475   4.6703
  4.6869   4.7985   4.8174   4.9883   5.0222   5.0275   5.1046   5.1246
  5.1541   5.1612   5.1691   5.1935   5.2090   5.2227   5.2443   5.2499
  5.2642   5.2770   5.2909   5.3312   5.3553   5.3634   5.5022   5.5457
  5.5472   5.6405   5.6841   5.7744   5.7848   5.7879   5.8387   5.9918
  6.2941   6.3523   6.7063   6.8190   6.8369   6.8420   6.8691   6.8940
  6.9377   6.9834   6.9955   7.0244   7.0381   7.0572   7.0709   7.1498
  7.1849   7.2723   7.3011   7.3172   7.3436   7.4193   7.5005   7.5362
  7.7041   7.7550   7.7910   8.1178   8.1720  24.7417  25.0858  50.4749
 50.5238  50.6003  50.6964
 --------------------------------------------------------------
 
          Ground-State Mulliken Net Atomic Charges

     Atom                 Charge (a.u.)    Spin (a.u.)
  --------------------------------------------------------
      1 C                    -0.146707      -0.427658
      2 O                    -0.233242      -0.096918
      3 H                     0.285799       0.012522
      4 C                     0.052190      -0.026001
      5 H                     0.208545       0.002627
      6 O                    -0.450157      -0.180580
      7 H                     0.370459       0.000916
      8 O                    -0.009486       0.854040
      9 O                    -0.077401       0.861051
  --------------------------------------------------------
  Sum of atomic charges =     0.000000
  Sum of spin   charges =     1.000000

 -----------------------------------------------------------------
                    Cartesian Multipole Moments
 -----------------------------------------------------------------
    Charge (ESU x 10^10)
                 0.0000
    Dipole Moment (Debye)
         X      -3.6913      Y      -4.1883      Z      -1.5743
       Tot       5.8005
    Quadrupole Moments (Debye-Ang)
        XX     -43.0839     XY      -0.0500     YY     -34.4828
        XZ       5.3850     YZ       2.7614     ZZ     -30.9768
    Octopole Moments (Debye-Ang^2)
       XXX     -32.4704    XXY     -23.0814    XYY      -8.1643
       YYY     -20.9052    XXZ      -2.5162    XYZ      -2.1265
       YYZ      -5.7984    XZZ      -1.5107    YZZ      -7.0148
       ZZZ      -7.7074
    Hexadecapole Moments (Debye-Ang^3)
      XXXX    -490.7111   XXXY       7.1140   XXYY    -104.2274
      XYYY      22.7069   YYYY    -210.6702   XXXZ      30.7951
      XXYZ      -0.1165   XYYZ      11.9465   YYYZ      -2.5705
      XXZZ     -81.6563   XYZZ       4.4181   YYZZ     -46.0907
      XZZZ      21.4427   YZZZ      -7.2794   ZZZZ     -60.6314
 -----------------------------------------------------------------
 Calculating analytic gradient of the SCF energy
 Gradient of CDS energy
            1           2           3           4           5           6
    1  -0.0020458   0.0017350  -0.0000862   0.0024357  -0.0001555  -0.0013646
    2  -0.0021630   0.0017991   0.0001910   0.0013642  -0.0001196  -0.0009588
    3   0.0006801  -0.0010551  -0.0000742  -0.0001686   0.0000669   0.0006433
            7           8           9
    1  -0.0003157  -0.0002121   0.0000093
    2  -0.0002809   0.0000345   0.0001335
    3  -0.0000904  -0.0000347   0.0000327
 Gradient of SCF Energy
            1           2           3           4           5           6
    1   0.0042826   0.0148539  -0.0045568   0.0016779  -0.0012686   0.0026847
    2  -0.0023517   0.0067615   0.0009580   0.0025213  -0.0026580   0.0025396
    3   0.0148995   0.0183937  -0.0162592  -0.0057848   0.0051772  -0.0000695
            7           8           9
    1  -0.0180811   0.0023855  -0.0019781
    2  -0.0078694   0.0008859  -0.0007872
    3  -0.0167793  -0.0009252   0.0013476
 Max gradient component =       1.839E-02
 RMS gradient           =       8.416E-03
 Computing fast CPCM-SWIG gradient
 Updating gradient with PCM contributions...
 -- total gradient after adding PCM contribution --
---------------------------------------------------
  Atom         X              Y              Z     
---------------------------------------------------
   1       0.000772       0.000491       0.000130
   2      -0.000310      -0.000196       0.000058
   3      -0.000099      -0.000015      -0.000063
   4      -0.000166       0.000069      -0.000192
   5       0.000003      -0.000001      -0.000001
   6      -0.000198      -0.000130       0.000054
   7      -0.000050      -0.000065       0.000032
   8       0.000316      -0.000051      -0.000140
   9      -0.000270      -0.000103       0.000122
---------------------------------------------------
 Number of fixed atoms: 0
 Gradient time:  CPU 60.44 s  wall 5.12 s
 ----------------------------------------------------------------
             Standard Nuclear Orientation (Angstroms)
    I     Atom           X                Y                Z
 ----------------------------------------------------------------
    1      C       0.1520048957    -0.5140473525    -0.4508835185
    2      O      -0.7103897910    -1.3168677804     0.1401348939
    3      H       0.0816042768    -0.3331649070    -1.5144648807
    4      C       1.2924018927    -0.0917889656     0.3112877040
    5      H       1.3092800803    -0.4020378528     1.3647405136
    6      O       2.1850572505     0.6036112494    -0.1718117140
    7      H      -1.4123188410    -1.5819600205    -0.4703542325
    8      O      -0.8572008767     1.3834619275     0.0559111468
    9      O      -1.9218483872     1.0352738021     0.5387925874
 ----------------------------------------------------------------
 Nuclear Repulsion Energy =         227.28733697 hartrees
 There are       24 alpha and       23 beta electrons
 Discretize the solute cavity surface with Lebedev spheres
	Using 110 Lebedev grid points for each H atom
	Using 194 Lebedev grid points for other atoms
	Atomic van der Waals radii will be scaled by 1.20
 Remove points where switching function is < 1.0e-08
 Keep 855 surface tesserae and discard 639 interior tesserae
 Molecular Surface Area = 106.131 Angst**2

                       Distance Matrix (Angstroms)
             C (  1)   O (  2)   H (  3)   C (  4)   H (  5)   O (  6)
   O (  2)  1.318161
   H (  3)  1.081148  2.081496
   C (  4)  1.435170  2.353994  2.204011
   H (  5)  2.155997  2.532911  3.130775  1.098318
   O (  6)  2.336738  3.488433  2.665480  1.230366  2.034529
   H (  7)  1.894182  0.967303  2.209403  3.185449  3.488107  4.219830
   O (  8)  2.208139  2.705629  2.508833  2.619613  3.097529  3.148866
   O (  9)  2.771412  2.675655  3.178414  3.413713  3.631562  4.190223
             H (  7)   O (  8)
   O (  8)  3.062489
   O (  9)  2.850949  1.219788
 
 Requested basis set is 6-311++G(2df,2p)
 There are 66 shells and 234 basis functions
 A cutoff of  1.0D-12 yielded   2073 shell pairs
 There are     26151 function pairs (     33245 Cartesian)
 Smallest overlap matrix eigenvalue = 6.68E-05
 Guess MOs from SCF MO coefficient file

 -----------------------------------------------------------------------
  General SCF calculation program by
  Eric Jon Sundstrom, Paul Horn, Yuezhi Mao, Dmitri Zuev, Alec White,
  David Stuck, Shaama M.S., Shane Yost, Joonho Lee, David Small,
  Daniel Levine, Susi Lehtola, Hugh Burton, Evgeny Epifanovsky,
  Bang C. Huynh
 -----------------------------------------------------------------------
 Exchange:     0.1500 Hartree-Fock + 1.0000 wB97M-V + LR-HF
 Correlation:  1.0000 wB97M-V
 Using SG-2 standard quadrature grid
 Nonlocal Correlation:  VV10 with C = 0.0100 and b = 6.00 and scale = 1.00000
 Grid used for NLC:  SG-1 standard quadrature
 
 Citation of the SMD model:
 Marenich, A.V.; Cramer, C.J.; Truhlar, D.G.
 J. Phys. Chem. B 2009, 113, 6378-6396.
 iSolventCode=           1
 Solvent: water                                                           
 
 vradii
            1           2           3           4           5           6
    1   1.8500000   1.5200000   1.2000000   1.8500000   1.2000000   1.5200000
            7           8           9
    1   1.2000000   1.5200000   1.5200000
 -------------------------------------------------------
 OpenMP BLAS3 based DFT computing Module                
 Release: version 1.0, May 2013, Q-Chem Inc. Pittsburgh 
 -------------------------------------------------------
 A unrestricted SCF calculation will be
 performed using Roothaan-Hall, DIIS, GDM
 SCF converges when RMS gradient is below 1.0e-07
 ---------------------------------------
  Cycle       Energy         DIIS error
 ---------------------------------------
    1    -378.7314641706      3.36e-04  Roothaan Step
 ---------------------------------------
  Cycle       Energy         DIIS error
 ---------------------------------------
    1    -378.7558524591      4.30e-04  
    2    -378.7583376998      5.14e-04  Done DIIS. Switching to GDM
 ---------------------------------------
  Cycle       Energy        RMS Gradient
 ---------------------------------------
    1    -378.7583376998      2.89e-02   Normal BFGS step
    2    -378.7554826947      5.02e-02  Line search: overstep
    3    -378.7630073207      5.72e-03   Normal BFGS step
    4    -378.7631830061      2.75e-03   Normal BFGS step
    5    -378.7632133991      2.52e-03   Normal BFGS step
    6    -378.7632263760      9.94e-04   Normal BFGS step
    7    -378.7632295887      5.60e-04   Normal BFGS step
    8    -378.7632308311      2.76e-04   Normal BFGS step
    9    -378.7632313165      2.09e-04   Normal BFGS step
   10    -378.7632314865      8.24e-05   Normal BFGS step
   11    -378.7632315598      8.64e-05   Normal BFGS step
   12    -378.7632315906      4.98e-05   Normal BFGS step
   13    -378.7632315968      1.98e-05   Normal BFGS step
   14    -378.7632315993      1.14e-05   Normal BFGS step
   15    -378.7632316000      7.77e-06   Normal BFGS step
   16    -378.7632316004      3.57e-06   Normal BFGS step
   17    -378.7632316004      1.69e-06   Normal BFGS step
   18    -378.7632316005      7.47e-07   Normal BFGS step
   19    -378.7632316005      5.52e-07   Normal BFGS step
   20    -378.7632316005      2.02e-07   Normal BFGS step
   21    -378.7632316005      4.46e-08  Convergence criterion met
 ---------------------------------------
 SCF time:   CPU 585.18s  wall 37.00s 
<S^2> =          1.330457160
(3)  G-ENP(liq) elect-nuc-pol free energy of system     -378.763231600 a.u.
(4)  G-CDS(liq) cavity-dispersion-solvent structure 
     free energy                                                3.6298 kcal/mol
(6)  G-S(liq) free energy of system                     -378.757447200 a.u.
 SCF   energy in the final basis set =     -378.7574471999
 Total energy in the final basis set =     -378.7574471999
 
 --------------------------------------------------------------
 
                    Orbital Energies (a.u.)
 --------------------------------------------------------------
 
 Alpha MOs
 -- Occupied --
-19.4749 -19.4550 -19.4008 -19.3359 -10.4352 -10.4349  -1.4024  -1.2314
 -1.1744  -0.9485  -0.8592  -0.7082  -0.6890  -0.6566  -0.6498  -0.6401
 -0.6035  -0.5568  -0.5230  -0.4980  -0.4787  -0.3958  -0.3910  -0.3782
 -- Virtual --
 -0.0144   0.0331   0.0449   0.0527   0.0874   0.0919   0.1008   0.1139
  0.1342   0.1367   0.1502   0.1591   0.1741   0.1821   0.2000   0.2299
  0.2388   0.2472   0.2619   0.2762   0.2832   0.2882   0.3109   0.3198
  0.3268   0.3335   0.3419   0.3518   0.3576   0.3927   0.4057   0.4106
  0.4310   0.4429   0.4792   0.4994   0.5697   0.5802   0.6186   0.6203
  0.6561   0.6765   0.6822   0.7187   0.7370   0.7623   0.8144   0.8310
  0.8482   0.8847   0.9185   0.9499   0.9971   1.0235   1.0512   1.0654
  1.0898   1.1016   1.1223   1.1314   1.1330   1.1559   1.1713   1.1811
  1.1980   1.2082   1.2416   1.2665   1.2746   1.2902   1.3388   1.3764
  1.4138   1.4406   1.4637   1.4918   1.4972   1.5389   1.5711   1.5804
  1.6032   1.6466   1.6680   1.7156   1.7855   1.7903   1.8165   1.8471
  1.9317   1.9556   2.0130   2.0617   2.1463   2.2569   2.3124   2.3295
  2.3427   2.3801   2.4183   2.5157   2.5459   2.6158   2.6474   2.7346
  2.7604   2.7955   2.8467   2.9479   2.9768   3.0478   3.0591   3.1169
  3.1292   3.1876   3.2455   3.3110   3.3530   3.3712   3.3867   3.4275
  3.4880   3.5378   3.5671   3.5942   3.6348   3.6870   3.7461   3.7603
  3.8049   3.9060   3.9417   4.0048   4.0911   4.2180   4.2468   4.3118
  4.3339   4.3481   4.4522   4.5175   4.5667   4.6114   4.6278   4.6470
  4.8141   4.8267   4.9541   4.9614   4.9657   5.0149   5.0721   5.1210
  5.1437   5.1644   5.1755   5.1817   5.1890   5.2193   5.2301   5.2485
  5.2610   5.2789   5.3112   5.3287   5.3675   5.5151   5.5559   5.5609
  5.6489   5.6969   5.7313   5.7361   5.7968   5.8434   6.0075   6.3065
  6.3610   6.6906   6.7362   6.7706   6.7825   6.7876   6.8559   6.8950
  6.9518   6.9623   6.9824   6.9944   7.0298   7.0455   7.1046   7.1553
  7.2743   7.3049   7.3267   7.3573   7.3742   7.4672   7.5410   7.7112
  7.7649   7.7955   8.0904   8.1314  24.7476  25.0858  50.4557  50.5052
 50.6018  50.6995
 
 Beta MOs
 -- Occupied --
-19.4487 -19.4293 -19.4042 -19.3411 -10.4415 -10.4349  -1.3540  -1.2389
 -1.1830  -0.8913  -0.8582  -0.7126  -0.6933  -0.6195  -0.6089  -0.5921
 -0.5626  -0.5510  -0.5231  -0.5057  -0.4988  -0.3873  -0.3008
 -- Virtual --
 -0.0206  -0.0085   0.0331   0.0448   0.0527   0.0860   0.0910   0.0943
  0.1143   0.1276   0.1365   0.1502   0.1601   0.1713   0.1819   0.2013
  0.2329   0.2381   0.2491   0.2615   0.2764   0.2832   0.2891   0.3122
  0.3215   0.3302   0.3347   0.3413   0.3522   0.3682   0.4000   0.4083
  0.4163   0.4268   0.4445   0.4787   0.4970   0.5668   0.5769   0.6130
  0.6176   0.6564   0.6726   0.6759   0.7131   0.7301   0.7548   0.8149
  0.8306   0.8443   0.8827   0.9121   0.9494   0.9995   1.0319   1.0570
  1.0753   1.0896   1.1119   1.1318   1.1381   1.1415   1.1645   1.1719
  1.1794   1.2061   1.2234   1.2436   1.2735   1.2830   1.2946   1.3384
  1.3784   1.4124   1.4522   1.4830   1.4985   1.5166   1.5545   1.5792
  1.5964   1.6029   1.6462   1.6812   1.7330   1.7840   1.7956   1.8166
  1.8787   1.9278   1.9524   2.0176   2.0559   2.1394   2.2549   2.3208
  2.3457   2.3719   2.3935   2.4154   2.5148   2.5406   2.6300   2.6391
  2.7105   2.7511   2.7834   2.8349   2.9239   2.9660   3.0283   3.0420
  3.0952   3.1177   3.1735   3.2268   3.2990   3.3384   3.3550   3.3660
  3.4105   3.4747   3.5227   3.5504   3.5732   3.6127   3.6675   3.7317
  3.7543   3.7957   3.8924   3.9365   3.9926   4.0841   4.2149   4.2413
  4.2955   4.3209   4.3213   4.4428   4.5137   4.6139   4.6478   4.6706
  4.6872   4.7971   4.8153   4.9886   5.0225   5.0278   5.1049   5.1248
  5.1539   5.1613   5.1691   5.1936   5.2091   5.2228   5.2445   5.2500
  5.2643   5.2774   5.2916   5.3314   5.3556   5.3637   5.5019   5.5454
  5.5472   5.6402   5.6840   5.7747   5.7851   5.7880   5.8385   5.9949
  6.2939   6.3541   6.7064   6.8192   6.8372   6.8423   6.8703   6.8945
  6.9376   6.9837   6.9954   7.0246   7.0385   7.0573   7.0711   7.1495
  7.1853   7.2726   7.3013   7.3174   7.3438   7.4195   7.5010   7.5358
  7.7039   7.7550   7.7911   8.1181   8.1724  24.7439  25.0827  50.4755
 50.5243  50.6009  50.6961
 --------------------------------------------------------------
 
          Ground-State Mulliken Net Atomic Charges

     Atom                 Charge (a.u.)    Spin (a.u.)
  --------------------------------------------------------
      1 C                    -0.146821      -0.425931
      2 O                    -0.231860      -0.096665
      3 H                     0.285730       0.012454
      4 C                     0.053104      -0.025773
      5 H                     0.208549       0.002601
      6 O                    -0.449597      -0.178997
      7 H                     0.370607       0.000906
      8 O                    -0.010526       0.852280
      9 O                    -0.079184       0.859125
  --------------------------------------------------------
  Sum of atomic charges =     0.000000
  Sum of spin   charges =     1.000000

 -----------------------------------------------------------------
                    Cartesian Multipole Moments
 -----------------------------------------------------------------
    Charge (ESU x 10^10)
                 0.0000
    Dipole Moment (Debye)
         X      -3.6678      Y      -4.2134      Z      -1.5786
       Tot       5.8049
    Quadrupole Moments (Debye-Ang)
        XX     -43.0980     XY      -0.0179     YY     -34.4867
        XZ       5.3935     YZ       2.7561     ZZ     -30.9765
    Octopole Moments (Debye-Ang^2)
       XXX     -32.3017    XXY     -23.1285    XYY      -8.1164
       YYY     -20.9986    XXZ      -2.5424    XYZ      -2.1158
       YYZ      -5.8067    XZZ      -1.4817    YZZ      -7.0309
       ZZZ      -7.7136
    Hexadecapole Moments (Debye-Ang^3)
      XXXX    -490.7802   XXXY       7.2476   XXYY    -104.2658
      XYYY      22.7933   YYYY    -210.6841   XXXZ      30.8306
      XXYZ      -0.1425   XYYZ      11.9592   YYYZ      -2.5864
      XXZZ     -81.6659   XYZZ       4.4342   YYZZ     -46.0916
      XZZZ      21.4382   YZZZ      -7.2892   ZZZZ     -60.6287
 -----------------------------------------------------------------
 Calculating analytic gradient of the SCF energy
 Gradient of CDS energy
            1           2           3           4           5           6
    1  -0.0020232   0.0017083  -0.0000843   0.0024378  -0.0001552  -0.0013649
    2  -0.0021423   0.0017755   0.0001916   0.0013643  -0.0001193  -0.0009588
    3   0.0006640  -0.0010389  -0.0000740  -0.0001681   0.0000666   0.0006428
            7           8           9
    1  -0.0003154  -0.0002122   0.0000092
    2  -0.0002798   0.0000346   0.0001342
    3  -0.0000903  -0.0000345   0.0000325
 Gradient of SCF Energy
            1           2           3           4           5           6
    1   0.0026670   0.0155212  -0.0043153   0.0020430  -0.0012788   0.0030305
    2  -0.0034243   0.0071967   0.0010100   0.0024517  -0.0026518   0.0028249
    3   0.0146606   0.0182743  -0.0161706  -0.0054328   0.0052153  -0.0001486
            7           8           9
    1  -0.0179707   0.0017129  -0.0014097
    2  -0.0077973   0.0009815  -0.0005914
    3  -0.0168787  -0.0006118   0.0010924
 Max gradient component =       1.827E-02
 RMS gradient           =       8.412E-03
 Computing fast CPCM-SWIG gradient
 Updating gradient with PCM contributions...
 -- total gradient after adding PCM contribution --
---------------------------------------------------
  Atom         X              Y              Z     
---------------------------------------------------
   1      -0.000810      -0.000567      -0.000112
   2       0.000352       0.000213      -0.000093
   3       0.000092       0.000037       0.000055
   4       0.000207       0.000010       0.000200
   5      -0.000011       0.000018       0.000002
   6       0.000159       0.000142      -0.000029
   7       0.000070       0.000041      -0.000045
   8      -0.000297       0.000048       0.000139
   9       0.000237       0.000057      -0.000117
---------------------------------------------------
 Number of fixed atoms: 0
 Gradient time:  CPU 61.01 s  wall 5.11 s
 ----------------------------------------------------------------
             Standard Nuclear Orientation (Angstroms)
    I     Atom           X                Y                Z
 ----------------------------------------------------------------
    1      C       0.1530048957    -0.5130473525    -0.4508835185
    2      O      -0.7103897910    -1.3168677804     0.1401348939
    3      H       0.0816042768    -0.3331649070    -1.5144648807
    4      C       1.2924018927    -0.0917889656     0.3112877040
    5      H       1.3092800803    -0.4020378528     1.3647405136
    6      O       2.1850572505     0.6036112494    -0.1718117140
    7      H      -1.4123188410    -1.5819600205    -0.4703542325
    8      O      -0.8572008767     1.3834619275     0.0559111468
    9      O      -1.9218483872     1.0352738021     0.5387925874
 ----------------------------------------------------------------
 Nuclear Repulsion Energy =         227.28615133 hartrees
 There are       24 alpha and       23 beta electrons
 Discretize the solute cavity surface with Lebedev spheres
	Using 110 Lebedev grid points for each H atom
	Using 194 Lebedev grid points for other atoms
	Atomic van der Waals radii will be scaled by 1.20
 Remove points where switching function is < 1.0e-08
 Keep 855 surface tesserae and discard 639 interior tesserae
 Molecular Surface Area = 106.131 Angst**2

                       Distance Matrix (Angstroms)
             C (  1)   O (  2)   H (  3)   C (  4)   H (  5)   O (  6)
   O (  2)  1.319424
   H (  3)  1.081046  2.081496
   C (  4)  1.434081  2.353994  2.204011
   H (  5)  2.155409  2.532911  3.130775  1.098318
   O (  6)  2.335390  3.488433  2.665480  1.230366  2.034529
   H (  7)  1.895572  0.967303  2.209403  3.185449  3.488107  4.219830
   O (  8)  2.207737  2.705629  2.508833  2.619613  3.097529  3.148866
   O (  9)  2.771601  2.675655  3.178414  3.413713  3.631562  4.190223
             H (  7)   O (  8)
   O (  8)  3.062489
   O (  9)  2.850949  1.219788
 
 Requested basis set is 6-311++G(2df,2p)
 There are 66 shells and 234 basis functions
 A cutoff of  1.0D-12 yielded   2073 shell pairs
 There are     26151 function pairs (     33245 Cartesian)
 Smallest overlap matrix eigenvalue = 6.66E-05
 Guess MOs from SCF MO coefficient file

 -----------------------------------------------------------------------
  General SCF calculation program by
  Eric Jon Sundstrom, Paul Horn, Yuezhi Mao, Dmitri Zuev, Alec White,
  David Stuck, Shaama M.S., Shane Yost, Joonho Lee, David Small,
  Daniel Levine, Susi Lehtola, Hugh Burton, Evgeny Epifanovsky,
  Bang C. Huynh
 -----------------------------------------------------------------------
 Exchange:     0.1500 Hartree-Fock + 1.0000 wB97M-V + LR-HF
 Correlation:  1.0000 wB97M-V
 Using SG-2 standard quadrature grid
 Nonlocal Correlation:  VV10 with C = 0.0100 and b = 6.00 and scale = 1.00000
 Grid used for NLC:  SG-1 standard quadrature
 
 Citation of the SMD model:
 Marenich, A.V.; Cramer, C.J.; Truhlar, D.G.
 J. Phys. Chem. B 2009, 113, 6378-6396.
 iSolventCode=           1
 Solvent: water                                                           
 
 vradii
            1           2           3           4           5           6
    1   1.8500000   1.5200000   1.2000000   1.8500000   1.2000000   1.5200000
            7           8           9
    1   1.2000000   1.5200000   1.5200000
 -------------------------------------------------------
 OpenMP BLAS3 based DFT computing Module                
 Release: version 1.0, May 2013, Q-Chem Inc. Pittsburgh 
 -------------------------------------------------------
 A unrestricted SCF calculation will be
 performed using Roothaan-Hall, DIIS, GDM
 SCF converges when RMS gradient is below 1.0e-07
 ---------------------------------------
  Cycle       Energy         DIIS error
 ---------------------------------------
    1    -378.7314166154      3.37e-04  Roothaan Step
 ---------------------------------------
  Cycle       Energy         DIIS error
 ---------------------------------------
    1    -378.7558202920      4.32e-04  
    2    -378.7582741622      5.17e-04  Done DIIS. Switching to GDM
 ---------------------------------------
  Cycle       Energy        RMS Gradient
 ---------------------------------------
    1    -378.7582741622      2.91e-02   Normal BFGS step
    2    -378.7553663196      5.02e-02  Line search: overstep
    3    -378.7630036097      5.61e-03   Normal BFGS step
    4    -378.7631776172      2.67e-03   Normal BFGS step
    5    -378.7632066770      2.58e-03   Normal BFGS step
    6    -378.7632196662      9.38e-04   Normal BFGS step
    7    -378.7632225105      4.74e-04   Normal BFGS step
    8    -378.7632235635      2.61e-04   Normal BFGS step
    9    -378.7632238819      1.48e-04   Normal BFGS step
   10    -378.7632239874      5.56e-05   Normal BFGS step
   11    -378.7632240274      6.94e-05   Normal BFGS step
   12    -378.7632240472      5.53e-05   Normal BFGS step
   13    -378.7632240520      1.37e-05   Normal BFGS step
   14    -378.7632240538      1.00e-05   Normal BFGS step
   15    -378.7632240544      6.76e-06   Normal BFGS step
   16    -378.7632240546      3.04e-06   Normal BFGS step
   17    -378.7632240547      1.50e-06   Normal BFGS step
   18    -378.7632240547      6.89e-07   Normal BFGS step
   19    -378.7632240548      5.22e-07   Normal BFGS step
   20    -378.7632240548      2.18e-07   Normal BFGS step
   21    -378.7632240548      4.74e-08  Convergence criterion met
 ---------------------------------------
 SCF time:   CPU 581.00s  wall 37.00s 
<S^2> =          1.332113084
(3)  G-ENP(liq) elect-nuc-pol free energy of system     -378.763224055 a.u.
(4)  G-CDS(liq) cavity-dispersion-solvent structure 
     free energy                                                3.6248 kcal/mol
(6)  G-S(liq) free energy of system                     -378.757447566 a.u.
 SCF   energy in the final basis set =     -378.7574475663
 Total energy in the final basis set =     -378.7574475663
 
 --------------------------------------------------------------
 
                    Orbital Energies (a.u.)
 --------------------------------------------------------------
 
 Alpha MOs
 -- Occupied --
-19.4751 -19.4552 -19.4006 -19.3359 -10.4351 -10.4348  -1.4026  -1.2308
 -1.1744  -0.9487  -0.8593  -0.7082  -0.6887  -0.6568  -0.6500  -0.6402
 -0.6035  -0.5568  -0.5228  -0.4979  -0.4785  -0.3960  -0.3911  -0.3783
 -- Virtual --
 -0.0146   0.0331   0.0449   0.0527   0.0874   0.0919   0.1009   0.1140
  0.1342   0.1368   0.1502   0.1591   0.1741   0.1821   0.2000   0.2299
  0.2389   0.2472   0.2620   0.2761   0.2832   0.2882   0.3108   0.3198
  0.3267   0.3334   0.3419   0.3518   0.3576   0.3927   0.4057   0.4105
  0.4312   0.4429   0.4792   0.4994   0.5698   0.5804   0.6186   0.6202
  0.6560   0.6765   0.6822   0.7189   0.7370   0.7624   0.8144   0.8310
  0.8483   0.8847   0.9185   0.9500   0.9972   1.0234   1.0511   1.0655
  1.0899   1.1016   1.1222   1.1314   1.1331   1.1559   1.1715   1.1811
  1.1980   1.2082   1.2417   1.2664   1.2746   1.2903   1.3390   1.3765
  1.4139   1.4407   1.4637   1.4918   1.4971   1.5389   1.5711   1.5805
  1.6029   1.6468   1.6679   1.7156   1.7855   1.7902   1.8165   1.8471
  1.9314   1.9557   2.0131   2.0617   2.1461   2.2567   2.3124   2.3295
  2.3426   2.3799   2.4177   2.5152   2.5459   2.6157   2.6474   2.7351
  2.7604   2.7952   2.8467   2.9479   2.9761   3.0478   3.0591   3.1172
  3.1299   3.1878   3.2455   3.3108   3.3530   3.3711   3.3860   3.4276
  3.4883   3.5381   3.5672   3.5947   3.6353   3.6867   3.7460   3.7603
  3.8051   3.9055   3.9422   4.0058   4.0913   4.2182   4.2469   4.3124
  4.3344   4.3505   4.4530   4.5174   4.5666   4.6112   4.6277   4.6469
  4.8150   4.8282   4.9540   4.9612   4.9656   5.0147   5.0719   5.1208
  5.1436   5.1643   5.1756   5.1817   5.1890   5.2193   5.2301   5.2486
  5.2610   5.2788   5.3109   5.3284   5.3672   5.5151   5.5561   5.5606
  5.6489   5.6966   5.7310   5.7359   5.7968   5.8434   6.0047   6.3066
  6.3590   6.6902   6.7358   6.7704   6.7822   6.7873   6.8552   6.8944
  6.9515   6.9623   6.9822   6.9942   7.0299   7.0456   7.1045   7.1556
  7.2741   7.3046   7.3263   7.3572   7.3742   7.4670   7.5412   7.7110
  7.7649   7.7954   8.0902   8.1312  24.7455  25.0878  50.4555  50.5050
 50.6011  50.6996
 
 Beta MOs
 -- Occupied --
-19.4489 -19.4295 -19.4040 -19.3410 -10.4414 -10.4347  -1.3541  -1.2383
 -1.1830  -0.8914  -0.8583  -0.7125  -0.6930  -0.6195  -0.6089  -0.5921
 -0.5625  -0.5511  -0.5231  -0.5056  -0.4986  -0.3874  -0.3010
 -- Virtual --
 -0.0206  -0.0086   0.0331   0.0448   0.0527   0.0861   0.0910   0.0943
  0.1144   0.1276   0.1365   0.1502   0.1600   0.1713   0.1819   0.2013
  0.2328   0.2381   0.2491   0.2616   0.2764   0.2832   0.2892   0.3121
  0.3215   0.3301   0.3347   0.3413   0.3522   0.3681   0.4000   0.4083
  0.4163   0.4270   0.4444   0.4787   0.4969   0.5668   0.5770   0.6131
  0.6175   0.6564   0.6726   0.6759   0.7133   0.7300   0.7549   0.8149
  0.8306   0.8444   0.8828   0.9121   0.9496   0.9996   1.0319   1.0569
  1.0754   1.0897   1.1119   1.1318   1.1382   1.1416   1.1645   1.1721
  1.1794   1.2061   1.2233   1.2436   1.2735   1.2830   1.2946   1.3385
  1.3785   1.4125   1.4523   1.4830   1.4985   1.5166   1.5546   1.5794
  1.5963   1.6027   1.6464   1.6811   1.7329   1.7841   1.7955   1.8167
  1.8786   1.9276   1.9525   2.0177   2.0559   2.1391   2.2548   2.3210
  2.3455   2.3718   2.3932   2.4150   2.5143   2.5406   2.6299   2.6391
  2.7110   2.7511   2.7832   2.8350   2.9239   2.9654   3.0283   3.0419
  3.0954   3.1185   3.1737   3.2268   3.2988   3.3383   3.3550   3.3653
  3.4106   3.4750   3.5230   3.5507   3.5734   3.6132   3.6672   3.7316
  3.7543   3.7958   3.8919   3.9369   3.9936   4.0843   4.2151   4.2415
  4.2962   4.3215   4.3235   4.4434   4.5136   4.6138   4.6477   4.6705
  4.6871   4.7981   4.8167   4.9885   5.0224   5.0277   5.1048   5.1247
  5.1539   5.1612   5.1691   5.1936   5.2090   5.2228   5.2443   5.2501
  5.2643   5.2773   5.2911   5.3313   5.3553   5.3635   5.5020   5.5456
  5.5469   5.6403   5.6839   5.7744   5.7849   5.7880   5.8385   5.9921
  6.2939   6.3521   6.7057   6.8190   6.8371   6.8421   6.8692   6.8943
  6.9377   6.9836   6.9954   7.0246   7.0383   7.0573   7.0710   7.1496
  7.1853   7.2724   7.3010   7.3170   7.3437   7.4194   7.5008   7.5360
  7.7037   7.7549   7.7910   8.1180   8.1723  24.7417  25.0847  50.4752
 50.5240  50.6002  50.6962
 --------------------------------------------------------------
 
          Ground-State Mulliken Net Atomic Charges

     Atom                 Charge (a.u.)    Spin (a.u.)
  --------------------------------------------------------
      1 C                    -0.146747      -0.426741
      2 O                    -0.233069      -0.096654
      3 H                     0.285884       0.012494
      4 C                     0.052850      -0.025651
      5 H                     0.208623       0.002614
      6 O                    -0.449745      -0.179726
      7 H                     0.370471       0.000912
      8 O                    -0.009955       0.852837
      9 O                    -0.078312       0.859916
  --------------------------------------------------------
  Sum of atomic charges =     0.000000
  Sum of spin   charges =     1.000000

 -----------------------------------------------------------------
                    Cartesian Multipole Moments
 -----------------------------------------------------------------
    Charge (ESU x 10^10)
                 0.0000
    Dipole Moment (Debye)
         X      -3.6742      Y      -4.1972      Z      -1.5772
       Tot       5.7969
    Quadrupole Moments (Debye-Ang)
        XX     -43.0890     XY      -0.0355     YY     -34.4899
        XZ       5.3899     YZ       2.7590     ZZ     -30.9741
    Octopole Moments (Debye-Ang^2)
       XXX     -32.3650    XXY     -23.1070    XYY      -8.1320
       YYY     -20.9545    XXZ      -2.5310    XYZ      -2.1204
       YYZ      -5.8032    XZZ      -1.4908    YZZ      -7.0279
       ZZZ      -7.7127
    Hexadecapole Moments (Debye-Ang^3)
      XXXX    -490.7305   XXXY       7.1788   XXYY    -104.2424
      XYYY      22.7441   YYYY    -210.6691   XXXZ      30.8132
      XXYZ      -0.1289   XYYZ      11.9531   YYYZ      -2.5727
      XXZZ     -81.6560   XYZZ       4.4234   YYZZ     -46.0863
      XZZZ      21.4427   YZZZ      -7.2744   ZZZZ     -60.6150
 -----------------------------------------------------------------
 Calculating analytic gradient of the SCF energy
 Gradient of CDS energy
            1           2           3           4           5           6
    1  -0.0020448   0.0017326  -0.0000855   0.0024364  -0.0001555  -0.0013646
    2  -0.0021635   0.0018007   0.0001905   0.0013635  -0.0001196  -0.0009588
    3   0.0006792  -0.0010548  -0.0000741  -0.0001686   0.0000668   0.0006433
            7           8           9
    1  -0.0003156  -0.0002122   0.0000093
    2  -0.0002811   0.0000345   0.0001336
    3  -0.0000903  -0.0000343   0.0000327
 Gradient of SCF Energy
            1           2           3           4           5           6
    1   0.0039954   0.0148834  -0.0044565   0.0017019  -0.0012703   0.0028320
    2  -0.0023430   0.0066643   0.0008794   0.0023097  -0.0026313   0.0026989
    3   0.0145782   0.0184784  -0.0161304  -0.0056662   0.0052220  -0.0001405
            7           8           9
    1  -0.0180348   0.0020053  -0.0016566
    2  -0.0078520   0.0009642  -0.0006902
    3  -0.0168009  -0.0007439   0.0012032
 Max gradient component =       1.848E-02
 RMS gradient           =       8.373E-03
 Computing fast CPCM-SWIG gradient
 Updating gradient with PCM contributions...
 -- total gradient after adding PCM contribution --
---------------------------------------------------
  Atom         X              Y              Z     
---------------------------------------------------
   1       0.000509       0.000478      -0.000192
   2      -0.000265      -0.000289       0.000132
   3      -0.000023      -0.000072       0.000088
   4      -0.000138      -0.000133      -0.000054
   5      -0.000004       0.000031       0.000017
   6      -0.000049       0.000019      -0.000016
   7      -0.000016      -0.000039       0.000015
   8      -0.000031       0.000027       0.000023
   9       0.000017      -0.000022      -0.000012
---------------------------------------------------
 Number of fixed atoms: 0
 Gradient time:  CPU 61.59 s  wall 5.11 s
 ----------------------------------------------------------------
             Standard Nuclear Orientation (Angstroms)
    I     Atom           X                Y                Z
 ----------------------------------------------------------------
    1      C       0.1530048957    -0.5150473525    -0.4508835185
    2      O      -0.7103897910    -1.3168677804     0.1401348939
    3      H       0.0816042768    -0.3331649070    -1.5144648807
    4      C       1.2924018927    -0.0917889656     0.3112877040
    5      H       1.3092800803    -0.4020378528     1.3647405136
    6      O       2.1850572505     0.6036112494    -0.1718117140
    7      H      -1.4123188410    -1.5819600205    -0.4703542325
    8      O      -0.8572008767     1.3834619275     0.0559111468
    9      O      -1.9218483872     1.0352738021     0.5387925874
 ----------------------------------------------------------------
 Nuclear Repulsion Energy =         227.28139974 hartrees
 There are       24 alpha and       23 beta electrons
 Discretize the solute cavity surface with Lebedev spheres
	Using 110 Lebedev grid points for each H atom
	Using 194 Lebedev grid points for other atoms
	Atomic van der Waals radii will be scaled by 1.20
 Remove points where switching function is < 1.0e-08
 Keep 855 surface tesserae and discard 639 interior tesserae
 Molecular Surface Area = 106.137 Angst**2

                       Distance Matrix (Angstroms)
             C (  1)   O (  2)   H (  3)   C (  4)   H (  5)   O (  6)
   O (  2)  1.318207
   H (  3)  1.081381  2.081496
   C (  4)  1.434670  2.353994  2.204011
   H (  5)  2.155512  2.532911  3.130775  1.098318
   O (  6)  2.336346  3.488433  2.665480  1.230366  2.034529
   H (  7)  1.894445  0.967303  2.209403  3.185449  3.488107  4.219830
   O (  8)  2.209456  2.705629  2.508833  2.619613  3.097529  3.148866
   O (  9)  2.772719  2.675655  3.178414  3.413713  3.631562  4.190223
             H (  7)   O (  8)
   O (  8)  3.062489
   O (  9)  2.850949  1.219788
 
 Requested basis set is 6-311++G(2df,2p)
 There are 66 shells and 234 basis functions
 A cutoff of  1.0D-12 yielded   2073 shell pairs
 There are     26151 function pairs (     33245 Cartesian)
 Smallest overlap matrix eigenvalue = 6.67E-05
 Guess MOs from SCF MO coefficient file

 -----------------------------------------------------------------------
  General SCF calculation program by
  Eric Jon Sundstrom, Paul Horn, Yuezhi Mao, Dmitri Zuev, Alec White,
  David Stuck, Shaama M.S., Shane Yost, Joonho Lee, David Small,
  Daniel Levine, Susi Lehtola, Hugh Burton, Evgeny Epifanovsky,
  Bang C. Huynh
 -----------------------------------------------------------------------
 Exchange:     0.1500 Hartree-Fock + 1.0000 wB97M-V + LR-HF
 Correlation:  1.0000 wB97M-V
 Using SG-2 standard quadrature grid
 Nonlocal Correlation:  VV10 with C = 0.0100 and b = 6.00 and scale = 1.00000
 Grid used for NLC:  SG-1 standard quadrature
 
 Citation of the SMD model:
 Marenich, A.V.; Cramer, C.J.; Truhlar, D.G.
 J. Phys. Chem. B 2009, 113, 6378-6396.
 iSolventCode=           1
 Solvent: water                                                           
 
 vradii
            1           2           3           4           5           6
    1   1.8500000   1.5200000   1.2000000   1.8500000   1.2000000   1.5200000
            7           8           9
    1   1.2000000   1.5200000   1.5200000
 -------------------------------------------------------
 OpenMP BLAS3 based DFT computing Module                
 Release: version 1.0, May 2013, Q-Chem Inc. Pittsburgh 
 -------------------------------------------------------
 A unrestricted SCF calculation will be
 performed using Roothaan-Hall, DIIS, GDM
 SCF converges when RMS gradient is below 1.0e-07
 ---------------------------------------
  Cycle       Energy         DIIS error
 ---------------------------------------
    1    -378.7314520812      3.36e-04  Roothaan Step
 ---------------------------------------
  Cycle       Energy         DIIS error
 ---------------------------------------
    1    -378.7558469669      4.30e-04  
    2    -378.7583262078      5.15e-04  Done DIIS. Switching to GDM
 ---------------------------------------
  Cycle       Energy        RMS Gradient
 ---------------------------------------
    1    -378.7583262078      2.90e-02   Normal BFGS step
    2    -378.7554607099      5.02e-02  Line search: overstep
    3    -378.7630095596      5.70e-03   Normal BFGS step
    4    -378.7631848455      2.73e-03   Normal BFGS step
    5    -378.7632146894      2.55e-03   Normal BFGS step
    6    -378.7632275099      9.61e-04   Normal BFGS step
    7    -378.7632304631      4.81e-04   Normal BFGS step
    8    -378.7632315400      2.65e-04   Normal BFGS step
    9    -378.7632318701      1.50e-04   Normal BFGS step
   10    -378.7632319795      5.57e-05   Normal BFGS step
   11    -378.7632320215      7.38e-05   Normal BFGS step
   12    -378.7632320420      5.21e-05   Normal BFGS step
   13    -378.7632320466      1.42e-05   Normal BFGS step
   14    -378.7632320485      9.91e-06   Normal BFGS step
   15    -378.7632320491      6.68e-06   Normal BFGS step
   16    -378.7632320493      2.98e-06   Normal BFGS step
   17    -378.7632320494      1.53e-06   Normal BFGS step
   18    -378.7632320494      7.06e-07   Normal BFGS step
   19    -378.7632320494      5.37e-07   Normal BFGS step
   20    -378.7632320494      2.13e-07   Normal BFGS step
   21    -378.7632320494      4.63e-08  Convergence criterion met
 ---------------------------------------
 SCF time:   CPU 585.48s  wall 37.00s 
<S^2> =          1.333663889
(3)  G-ENP(liq) elect-nuc-pol free energy of system     -378.763232049 a.u.
(4)  G-CDS(liq) cavity-dispersion-solvent structure 
     free energy                                                3.6299 kcal/mol
(6)  G-S(liq) free energy of system                     -378.757447425 a.u.
 SCF   energy in the final basis set =     -378.7574474250
 Total energy in the final basis set =     -378.7574474250
 
 --------------------------------------------------------------
 
                    Orbital Energies (a.u.)
 --------------------------------------------------------------
 
 Alpha MOs
 -- Occupied --
-19.4750 -19.4553 -19.4007 -19.3358 -10.4351 -10.4347  -1.4026  -1.2313
 -1.1743  -0.9487  -0.8591  -0.7081  -0.6889  -0.6568  -0.6500  -0.6402
 -0.6035  -0.5567  -0.5229  -0.4979  -0.4786  -0.3960  -0.3911  -0.3782
 -- Virtual --
 -0.0144   0.0331   0.0449   0.0527   0.0874   0.0919   0.1009   0.1140
  0.1342   0.1368   0.1502   0.1591   0.1741   0.1822   0.1999   0.2299
  0.2389   0.2473   0.2620   0.2761   0.2832   0.2882   0.3109   0.3198
  0.3267   0.3334   0.3419   0.3519   0.3576   0.3927   0.4057   0.4106
  0.4311   0.4430   0.4793   0.4996   0.5698   0.5804   0.6185   0.6203
  0.6562   0.6765   0.6823   0.7189   0.7372   0.7624   0.8144   0.8311
  0.8482   0.8845   0.9185   0.9498   0.9971   1.0234   1.0512   1.0654
  1.0896   1.1016   1.1224   1.1312   1.1330   1.1559   1.1713   1.1811
  1.1980   1.2083   1.2415   1.2665   1.2746   1.2903   1.3389   1.3765
  1.4139   1.4405   1.4637   1.4916   1.4971   1.5389   1.5709   1.5803
  1.6032   1.6469   1.6679   1.7156   1.7856   1.7904   1.8168   1.8471
  1.9315   1.9555   2.0131   2.0619   2.1468   2.2568   2.3123   2.3293
  2.3426   2.3800   2.4183   2.5157   2.5460   2.6157   2.6479   2.7346
  2.7609   2.7964   2.8464   2.9476   2.9771   3.0475   3.0590   3.1170
  3.1295   3.1875   3.2456   3.3110   3.3532   3.3713   3.3868   3.4277
  3.4880   3.5380   3.5671   3.5944   3.6349   3.6877   3.7459   3.7603
  3.8044   3.9059   3.9421   4.0051   4.0913   4.2182   4.2469   4.3124
  4.3343   4.3492   4.4517   4.5176   4.5666   4.6111   4.6275   4.6467
  4.8145   4.8274   4.9539   4.9610   4.9654   5.0147   5.0718   5.1208
  5.1436   5.1644   5.1755   5.1817   5.1889   5.2192   5.2301   5.2486
  5.2611   5.2790   5.3111   5.3286   5.3676   5.5154   5.5562   5.5612
  5.6491   5.6971   5.7311   5.7358   5.7969   5.8437   6.0072   6.3067
  6.3613   6.6907   6.7363   6.7704   6.7821   6.7873   6.8559   6.8947
  6.9515   6.9623   6.9823   6.9942   7.0300   7.0455   7.1040   7.1557
  7.2742   7.3051   7.3269   7.3572   7.3742   7.4668   7.5412   7.7117
  7.7650   7.7956   8.0902   8.1311  24.7476  25.0869  50.4554  50.5049
 50.6019  50.6998
 
 Beta MOs
 -- Occupied --
-19.4488 -19.4296 -19.4041 -19.3409 -10.4414 -10.4347  -1.3541  -1.2389
 -1.1829  -0.8913  -0.8583  -0.7125  -0.6933  -0.6195  -0.6089  -0.5921
 -0.5625  -0.5511  -0.5231  -0.5056  -0.4987  -0.3873  -0.3008
 -- Virtual --
 -0.0206  -0.0086   0.0331   0.0448   0.0527   0.0861   0.0910   0.0943
  0.1144   0.1276   0.1365   0.1502   0.1601   0.1712   0.1819   0.2013
  0.2329   0.2381   0.2491   0.2616   0.2764   0.2832   0.2892   0.3123
  0.3215   0.3302   0.3347   0.3413   0.3522   0.3682   0.3999   0.4083
  0.4163   0.4269   0.4445   0.4788   0.4971   0.5669   0.5770   0.6129
  0.6176   0.6565   0.6726   0.6760   0.7134   0.7302   0.7549   0.8149
  0.8306   0.8443   0.8825   0.9121   0.9494   0.9995   1.0319   1.0570
  1.0753   1.0894   1.1120   1.1317   1.1382   1.1414   1.1645   1.1719
  1.1794   1.2062   1.2234   1.2435   1.2735   1.2830   1.2947   1.3384
  1.3785   1.4125   1.4521   1.4830   1.4985   1.5165   1.5546   1.5790
  1.5963   1.6029   1.6465   1.6810   1.7331   1.7840   1.7958   1.8169
  1.8786   1.9277   1.9522   2.0176   2.0562   2.1398   2.2549   2.3208
  2.3455   2.3718   2.3936   2.4154   2.5147   2.5407   2.6299   2.6396
  2.7104   2.7517   2.7843   2.8345   2.9234   2.9664   3.0277   3.0420
  3.0951   3.1180   3.1733   3.2269   3.2990   3.3385   3.3552   3.3660
  3.4105   3.4746   3.5229   3.5505   3.5732   3.6128   3.6682   3.7314
  3.7544   3.7953   3.8922   3.9369   3.9929   4.0843   4.2151   4.2415
  4.2960   4.3214   4.3221   4.4422   4.5138   4.6138   4.6476   4.6704
  4.6869   4.7975   4.8159   4.9884   5.0223   5.0276   5.1047   5.1247
  5.1540   5.1613   5.1692   5.1936   5.2090   5.2227   5.2445   5.2499
  5.2642   5.2772   5.2914   5.3314   5.3556   5.3636   5.5021   5.5456
  5.5475   5.6405   5.6842   5.7747   5.7850   5.7880   5.8387   5.9946
  6.2940   6.3544   6.7069   6.8192   6.8371   6.8422   6.8702   6.8943
  6.9377   6.9836   6.9955   7.0245   7.0383   7.0572   7.0710   7.1497
  7.1849   7.2725   7.3015   7.3176   7.3437   7.4194   7.5007   7.5360
  7.7043   7.7551   7.7911   8.1179   8.1721  24.7439  25.0838  50.4752
 50.5240  50.6010  50.6963
 --------------------------------------------------------------
 
          Ground-State Mulliken Net Atomic Charges

     Atom                 Charge (a.u.)    Spin (a.u.)
  --------------------------------------------------------
      1 C                    -0.146787      -0.426855
      2 O                    -0.232033      -0.096930
      3 H                     0.285643       0.012483
      4 C                     0.052445      -0.026124
      5 H                     0.208470       0.002615
      6 O                    -0.450012      -0.179851
      7 H                     0.370595       0.000909
      8 O                    -0.010052       0.853489
      9 O                    -0.078268       0.860265
  --------------------------------------------------------
  Sum of atomic charges =     0.000000
  Sum of spin   charges =     1.000000

 -----------------------------------------------------------------
                    Cartesian Multipole Moments
 -----------------------------------------------------------------
    Charge (ESU x 10^10)
                 0.0000
    Dipole Moment (Debye)
         X      -3.6850      Y      -4.2044      Z      -1.5757
       Tot       5.8085
    Quadrupole Moments (Debye-Ang)
        XX     -43.0928     XY      -0.0325     YY     -34.4796
        XZ       5.3885     YZ       2.7585     ZZ     -30.9792
    Octopole Moments (Debye-Ang^2)
       XXX     -32.4076    XXY     -23.1028    XYY      -8.1489
       YYY     -20.9491    XXZ      -2.5276    XYZ      -2.1220
       YYZ      -5.8018    XZZ      -1.5016    YZZ      -7.0178
       ZZZ      -7.7082
    Hexadecapole Moments (Debye-Ang^3)
      XXXX    -490.7606   XXXY       7.1824   XXYY    -104.2507
      XYYY      22.7557   YYYY    -210.6850   XXXZ      30.8124
      XXYZ      -0.1301   XYYZ      11.9525   YYYZ      -2.5843
      XXZZ     -81.6662   XYZZ       4.4289   YYZZ     -46.0959
      XZZZ      21.4382   YZZZ      -7.2943   ZZZZ     -60.6452
 -----------------------------------------------------------------
 Calculating analytic gradient of the SCF energy
 Gradient of CDS energy
            1           2           3           4           5           6
    1  -0.0020241   0.0017106  -0.0000850   0.0024371  -0.0001552  -0.0013649
    2  -0.0021419   0.0017739   0.0001921   0.0013649  -0.0001193  -0.0009587
    3   0.0006648  -0.0010392  -0.0000741  -0.0001681   0.0000667   0.0006429
            7           8           9
    1  -0.0003156  -0.0002121   0.0000092
    2  -0.0002797   0.0000345   0.0001341
    3  -0.0000905  -0.0000349   0.0000324
 Gradient of SCF Energy
            1           2           3           4           5           6
    1   0.0029517   0.0154927  -0.0044156   0.0020210  -0.0012771   0.0028828
    2  -0.0034333   0.0072938   0.0010887   0.0026646  -0.0026785   0.0026653
[...]
    Charge (ESU x 10^10)
                 0.0000
    Dipole Moment (Debye)
         X      -0.9905      Y      -3.8010      Z      -1.7480
       Tot       4.2993
    Quadrupole Moments (Debye-Ang)
        XX     -42.4470     XY       1.5785     YY     -36.2254
        XZ       5.9344     YZ       2.4060     ZZ     -30.9406
    Octopole Moments (Debye-Ang^2)
       XXX     -19.2683    XXY     -22.4482    XYY      -3.2693
       YYY     -20.2167    XXZ      -3.6786    XYZ      -1.5310
       YYZ      -5.8933    XZZ       0.5059    YZZ      -6.6434
       ZZZ      -6.8097
    Hexadecapole Moments (Debye-Ang^3)
      XXXX    -464.5686   XXXY       5.3464   XXYY     -97.4094
      XYYY      18.3409   YYYY    -181.4211   XXXZ      27.0006
      XXYZ       0.9046   XYYZ      11.4248   YYYZ       1.8614
      XXZZ     -77.1498   XYZZ       1.5299   YYZZ     -40.4126
      XZZZ      17.0550   YZZZ      -2.0717   ZZZZ     -57.8529
 -----------------------------------------------------------------
 Calculating analytic gradient of the SCF energy
 Gradient of CDS energy
            1           2           3           4           5           6
    1  -0.0024823   0.0019702  -0.0000034   0.0021920  -0.0001760  -0.0010345
    2  -0.0034556   0.0034088   0.0001426   0.0009173  -0.0001414  -0.0006039
    3   0.0011090  -0.0014243  -0.0001190  -0.0000410   0.0000571   0.0004637
            7           8           9
    1  -0.0002829  -0.0001915   0.0000084
    2  -0.0003585  -0.0000298   0.0001206
    3  -0.0000938   0.0000192   0.0000292
 Gradient of SCF Energy
            1           2           3           4           5           6
    1  -0.0038692   0.0114300  -0.0002189   0.0058839  -0.0006689  -0.0013753
    2  -0.0000116   0.0048429  -0.0050608   0.0035852  -0.0021124   0.0016544
    3   0.0173363   0.0140193  -0.0167301  -0.0126074   0.0083632   0.0017306
            7           8           9
    1  -0.0128297   0.0042953  -0.0026472
    2  -0.0070031   0.0029053   0.0012002
    3  -0.0153647   0.0001040   0.0031490
 Max gradient component =       1.734E-02
 RMS gradient           =       8.064E-03
 Computing fast CPCM-SWIG gradient
 Updating gradient with PCM contributions...
 -- total gradient after adding PCM contribution --
---------------------------------------------------
  Atom         X              Y              Z     
---------------------------------------------------
   1      -0.002144      -0.002304      -0.001056
   2      -0.000249      -0.000554      -0.001723
   3       0.000249      -0.001969      -0.000544
   4       0.007469       0.004333      -0.002442
   5      -0.000732       0.001357      -0.000243
   6      -0.006636      -0.002887       0.003431
   7       0.000338       0.000109      -0.000143
   8       0.003009       0.000748       0.001549
   9      -0.001304       0.001168       0.001172
---------------------------------------------------
 Number of fixed atoms: 0
 Gradient time:  CPU 65.27 s  wall 5.46 s
rPathMan2.  file_steps = 952
 IRC --- Status = 3.  Assess initial corrector step
 IRC --- bisector search: b =  0.000000 E =     -378.785530 G.B =  -0.007141
 IRC --- bisector search: b =  0.017838 E =     -378.785487 G.B =   0.011992
 IRC --- performed gradient/energy interpolation
 IRC --- bisector search:  estimate b(min) =   6.680950063935681E-003
 ----------------------------------------------------------------
             Standard Nuclear Orientation (Angstroms)
    I     Atom           X                Y                Z
 ----------------------------------------------------------------
    1      C      -0.0401014121    -0.2428511115    -0.3779789389
    2      O      -0.7113222570    -1.2990361779     0.1482234291
    3      H       0.0562381411    -0.2590855151    -1.4621969970
    4      C       1.2804010740    -0.0381181738     0.3355896818
    5      H       1.3271974941    -0.4274192294     1.3636029979
    6      O       2.1857678304     0.5708885670    -0.1739120238
    7      H      -1.4070211211    -1.5835771938    -0.4596226593
    8      O      -0.7117876632     1.0855839856    -0.0768214391
    9      O      -1.8597817140     0.9760950196     0.5064684273
 ----------------------------------------------------------------
 Nuclear Repulsion Energy =         236.72638793 hartrees
 There are       24 alpha and       23 beta electrons
 Discretize the solute cavity surface with Lebedev spheres
	Using 110 Lebedev grid points for each H atom
	Using 194 Lebedev grid points for other atoms
	Atomic van der Waals radii will be scaled by 1.20
 Remove points where switching function is < 1.0e-08
 Keep 827 surface tesserae and discard 667 interior tesserae
 Molecular Surface Area = 101.731 Angst**2

                       Distance Matrix (Angstroms)
             C (  1)   O (  2)   H (  3)   C (  4)   H (  5)   O (  6)
   O (  2)  1.357554
   H (  3)  1.088611  2.064970
   C (  4)  1.514867  2.364737  2.186193
   H (  5)  2.221864  2.528325  3.103034  1.100253
   O (  6)  2.378720  3.463166  2.623630  1.204230  2.024281
   H (  7)  1.916424  0.966663  2.213721  3.200476  3.483792  4.198986
   O (  8)  1.518749  2.395216  2.077803  2.324135  2.919154  2.944515
   O (  9)  2.362057  2.573620  3.012050  3.304327  3.586275  4.122327
             H (  7)   O (  8)
   O (  8)  2.784656
   O (  9)  2.773129  1.292326
 
 Applying Cartesian multipole field
    Component          Value
    ---------          -----
     (2,0,0)        1.00000E-11
     (0,2,0)        2.00000E-11
     (0,0,2)       -3.00000E-11
 Nucleus-field energy     =     0.0000000048 hartrees
 Requested basis set is 6-311++G(2df,2p)
 There are 66 shells and 234 basis functions
 A cutoff of  1.0D-12 yielded   2095 shell pairs
 There are     26507 function pairs (     33727 Cartesian)
 Smallest overlap matrix eigenvalue = 8.61E-05
 Guess MOs from SCF MO coefficient file

 -----------------------------------------------------------------------
  General SCF calculation program by
  Eric Jon Sundstrom, Paul Horn, Yuezhi Mao, Dmitri Zuev, Alec White,
  David Stuck, Shaama M.S., Shane Yost, Joonho Lee, David Small,
  Daniel Levine, Susi Lehtola, Hugh Burton, Evgeny Epifanovsky,
  Bang C. Huynh
 -----------------------------------------------------------------------
 Exchange:     0.1500 Hartree-Fock + 1.0000 wB97M-V + LR-HF
 Correlation:  1.0000 wB97M-V
 Using SG-2 standard quadrature grid
 Nonlocal Correlation:  VV10 with C = 0.0100 and b = 6.00 and scale = 1.00000
 Grid used for NLC:  SG-1 standard quadrature
 
 Citation of the SMD model:
 Marenich, A.V.; Cramer, C.J.; Truhlar, D.G.
 J. Phys. Chem. B 2009, 113, 6378-6396.
 iSolventCode=           1
 Solvent: water                                                           
 
 vradii
            1           2           3           4           5           6
    1   1.8500000   1.5200000   1.2000000   1.8500000   1.2000000   1.5200000
            7           8           9
    1   1.2000000   1.5200000   1.5200000
 -------------------------------------------------------
 OpenMP BLAS3 based DFT computing Module                
 Release: version 1.0, May 2013, Q-Chem Inc. Pittsburgh 
 -------------------------------------------------------
 A unrestricted SCF calculation will be
 performed using Roothaan-Hall, DIIS, GDM
 SCF converges when RMS gradient is below 1.0e-07
 ---------------------------------------
  Cycle       Energy         DIIS error
 ---------------------------------------
    1    -378.7613813153      3.17e-04  Roothaan Step
 ---------------------------------------
  Cycle       Energy         DIIS error
 ---------------------------------------
    1    -378.7849147056      4.05e-04  
    2    -378.7868862100      4.71e-04  Done DIIS. Switching to GDM
 ---------------------------------------
  Cycle       Energy        RMS Gradient
 ---------------------------------------
    1    -378.7868862100      2.97e-02   Normal BFGS step
    2    -378.7841947027      4.40e-02  Line search: overstep
    3    -378.7908381040      2.93e-03   Normal BFGS step
    4    -378.7909581740      1.21e-03   Normal BFGS step
    5    -378.7909855442      1.28e-03   Normal BFGS step
    6    -378.7909930278      2.61e-04   Normal BFGS step
    7    -378.7909942187      2.92e-04   Normal BFGS step
    8    -378.7909947912      2.04e-04   Normal BFGS step
    9    -378.7909949963      1.27e-04   Normal BFGS step
   10    -378.7909950715      1.04e-04   Normal BFGS step
   11    -378.7909951053      8.40e-05   Normal BFGS step
   12    -378.7909951309      5.43e-05   Normal BFGS step
   13    -378.7909951525      9.23e-06   Normal BFGS step
   14    -378.7909951552      5.66e-06   Normal BFGS step
   15    -378.7909951558      2.76e-06   Normal BFGS step
   16    -378.7909951558      1.25e-06   Normal BFGS step
   17    -378.7909951558      5.64e-07   Normal BFGS step
   18    -378.7909951558      1.68e-07   Normal BFGS step
   19    -378.7909951558      8.86e-08  Convergence criterion met
 ---------------------------------------
 SCF time:   CPU 546.91s  wall 34.00s 
<S^2> =          0.754198838
(3)  G-ENP(liq) elect-nuc-pol free energy of system     -378.790995156 a.u.
(4)  G-CDS(liq) cavity-dispersion-solvent structure 
     free energy                                                3.4147 kcal/mol
(6)  G-S(liq) free energy of system                     -378.785553526 a.u.
 SCF   energy in the final basis set =     -378.7855535262
 Total energy in the final basis set =     -378.7855535262
 
 --------------------------------------------------------------
 
                    Orbital Energies (a.u.)
 --------------------------------------------------------------
 
 Alpha MOs
 -- Occupied --
-19.4668 -19.4201 -19.3781 -19.3645 -10.4709 -10.4562  -1.3513  -1.2175
 -1.2052  -1.0103  -0.8459  -0.7296  -0.6858  -0.6628  -0.6407  -0.6055
 -0.5866  -0.5751  -0.5258  -0.4993  -0.4598  -0.4165  -0.4004  -0.3769
 -- Virtual --
  0.0252   0.0319   0.0449   0.0541   0.0863   0.0914   0.1103   0.1122
  0.1267   0.1416   0.1543   0.1689   0.1724   0.2051   0.2295   0.2342
  0.2372   0.2419   0.2495   0.2786   0.2804   0.2937   0.2994   0.3239
  0.3293   0.3353   0.3406   0.3456   0.3530   0.3781   0.3927   0.4016
  0.4080   0.4276   0.4708   0.4988   0.5503   0.5763   0.6236   0.6288
  0.6495   0.6535   0.6672   0.7052   0.7118   0.7643   0.8074   0.8314
  0.8570   0.8887   0.9781   0.9900   1.0151   1.0374   1.0678   1.0839
  1.1042   1.1117   1.1251   1.1386   1.1525   1.1592   1.1715   1.1857
  1.2029   1.2235   1.2429   1.2667   1.2982   1.3175   1.3554   1.3759
  1.4041   1.4595   1.4908   1.5120   1.5288   1.5514   1.5670   1.6004
  1.6107   1.6696   1.7031   1.7256   1.7374   1.7939   1.8197   1.8823
  1.9648   2.0354   2.0563   2.1136   2.1492   2.2431   2.2603   2.3084
  2.3496   2.3902   2.4284   2.5044   2.5559   2.6137   2.6359   2.6911
  2.7419   2.8359   2.8731   2.9382   3.0154   3.0398   3.0996   3.1378
  3.1985   3.2576   3.2730   3.3269   3.3688   3.3954   3.4318   3.5099
  3.5414   3.5630   3.6241   3.6571   3.6728   3.6863   3.7730   3.7935
  3.8395   3.8574   3.9513   3.9857   4.0542   4.1538   4.1894   4.2046
  4.2332   4.3321   4.4232   4.4965   4.5782   4.6308   4.6872   4.7004
  4.8099   4.8892   4.9470   5.0480   5.0640   5.0768   5.1198   5.1358
  5.1598   5.1736   5.1771   5.2080   5.2322   5.2413   5.2618   5.2884
  5.3009   5.3276   5.3370   5.4537   5.4926   5.5134   5.5666   5.5767
  5.6045   5.6358   5.6977   5.8110   5.8593   6.0126   6.1348   6.2430
  6.3772   6.5124   6.6402   6.6600   6.7856   6.8118   6.8535   6.9206
  6.9479   6.9835   7.0505   7.0866   7.1289   7.1584   7.2010   7.2763
  7.2815   7.3013   7.3474   7.4398   7.4654   7.5120   7.6534   7.7196
  7.7664   7.8495   8.0160   8.0993  24.7007  24.9545  50.4233  50.4906
 50.5834  50.6993
 
 Beta MOs
 -- Occupied --
-19.4559 -19.4015 -19.3781 -19.3644 -10.4713 -10.4560  -1.3253  -1.2163
 -1.2047  -0.9799  -0.8353  -0.7237  -0.6822  -0.6511  -0.6240  -0.5888
 -0.5716  -0.5402  -0.5148  -0.4917  -0.4545  -0.3995  -0.3775
 -- Virtual --
 -0.0306   0.0292   0.0328   0.0452   0.0543   0.0875   0.0919   0.1120
  0.1126   0.1288   0.1429   0.1551   0.1693   0.1749   0.2072   0.2323
  0.2354   0.2440   0.2453   0.2533   0.2806   0.2817   0.2955   0.3020
  0.3247   0.3310   0.3377   0.3425   0.3507   0.3561   0.3796   0.3938
  0.4032   0.4100   0.4289   0.4716   0.4993   0.5511   0.5771   0.6242
  0.6291   0.6502   0.6552   0.6684   0.7057   0.7130   0.7654   0.8087
  0.8320   0.8585   0.8892   0.9791   0.9940   1.0160   1.0426   1.0719
  1.0868   1.1096   1.1169   1.1361   1.1454   1.1536   1.1671   1.1823
  1.1926   1.2091   1.2306   1.2505   1.2705   1.3020   1.3201   1.3592
  1.3769   1.4060   1.4627   1.4983   1.5179   1.5386   1.5561   1.5792
  1.6130   1.6241   1.6774   1.7137   1.7366   1.7508   1.7954   1.8277
  1.8901   1.9676   2.0368   2.0617   2.1220   2.1538   2.2552   2.2644
  2.3192   2.3584   2.3934   2.4332   2.5078   2.5564   2.6185   2.6419
  2.6934   2.7423   2.8365   2.8736   2.9396   3.0157   3.0401   3.0997
  3.1382   3.1988   3.2579   3.2742   3.3281   3.3691   3.3956   3.4320
  3.5105   3.5420   3.5633   3.6245   3.6574   3.6731   3.6875   3.7737
  3.7936   3.8397   3.8574   3.9516   3.9867   4.0547   4.1549   4.1897
  4.2051   4.2339   4.3333   4.4256   4.4988   4.6154   4.6324   4.6950
  4.7135   4.8360   4.9009   4.9603   5.0916   5.1188   5.1296   5.1512
  5.1570   5.1626   5.1825   5.1908   5.2427   5.2504   5.2640   5.2762
  5.3050   5.3112   5.3353   5.3505   5.4701   5.4980   5.5189   5.5707
  5.5780   5.6193   5.6388   5.7117   5.8177   5.8690   6.0160   6.1353
  6.2534   6.3780   6.5601   6.6434   6.6708   6.8035   6.8761   6.9291
  6.9383   6.9771   6.9958   7.0659   7.1109   7.1528   7.1727   7.2361
  7.2852   7.2967   7.3060   7.3566   7.4727   7.4856   7.5174   7.6549
  7.7231   7.7690   7.8552   8.0290   8.1203  24.7005  24.9547  50.4357
 50.5003  50.5838  50.6995
 --------------------------------------------------------------
 
          Ground-State Mulliken Net Atomic Charges

     Atom                 Charge (a.u.)    Spin (a.u.)
  --------------------------------------------------------
      1 C                    -0.090374      -0.011014
      2 O                    -0.343566      -0.004313
      3 H                     0.258666       0.009897
      4 C                     0.155669       0.007727
      5 H                     0.218250       0.001860
      6 O                    -0.359163       0.005784
      7 H                     0.360969       0.000013
      8 O                     0.020413       0.327023
      9 O                    -0.220865       0.663024
  --------------------------------------------------------
  Sum of atomic charges =     0.000000
  Sum of spin   charges =     1.000000

 -----------------------------------------------------------------
                    Cartesian Multipole Moments
 -----------------------------------------------------------------
    Charge (ESU x 10^10)
                 0.0000
    Dipole Moment (Debye)
         X      -1.0268      Y      -3.7944      Z      -1.7428
       Tot       4.2999
    Quadrupole Moments (Debye-Ang)
        XX     -42.5278     XY       1.5388     YY     -36.2367
        XZ       5.9539     YZ       2.4120     ZZ     -30.9281
    Octopole Moments (Debye-Ang^2)
       XXX     -19.5974    XXY     -22.4751    XYY      -3.3373
       YYY     -20.1682    XXZ      -3.6536    XYZ      -1.5517
       YYZ      -5.8801    XZZ       0.4789    YZZ      -6.6447
       ZZZ      -6.7755
    Hexadecapole Moments (Debye-Ang^3)
      XXXX    -465.3043   XXXY       5.1380   XXYY     -97.4420
      XYYY      18.1834   YYYY    -181.4157   XXXZ      27.0894
      XXYZ       0.9419   XYYZ      11.4429   YYYZ       1.9762
      XXZZ     -77.1739   XYZZ       1.4574   YYZZ     -40.3961
      XZZZ      17.1737   YZZZ      -1.9908   ZZZZ     -57.7365
 -----------------------------------------------------------------
 Calculating analytic gradient of the SCF energy
 Gradient of CDS energy
            1           2           3           4           5           6
    1  -0.0025237   0.0020226  -0.0000055   0.0022387  -0.0001756  -0.0010907
    2  -0.0035292   0.0034925   0.0001420   0.0009508  -0.0001428  -0.0006404
    3   0.0011509  -0.0014635  -0.0001205  -0.0000751   0.0000607   0.0004926
            7           8           9
    1  -0.0002832  -0.0001912   0.0000085
    2  -0.0003619  -0.0000299   0.0001188
    3  -0.0000935   0.0000189   0.0000295
 Gradient of SCF Energy
            1           2           3           4           5           6
    1  -0.0005057   0.0115332  -0.0005370  -0.0023230  -0.0003300   0.0047809
    2   0.0019519   0.0043305  -0.0050298  -0.0004946  -0.0023689   0.0056095
    3   0.0181453   0.0154592  -0.0170439  -0.0114736   0.0093416  -0.0013515
            7           8           9
    1  -0.0139790   0.0020839  -0.0007233
    2  -0.0075432   0.0019873   0.0015573
    3  -0.0162508   0.0010234   0.0021501
 Max gradient component =       1.815E-02
 RMS gradient           =       8.300E-03
 Computing fast CPCM-SWIG gradient
 Updating gradient with PCM contributions...
 -- total gradient after adding PCM contribution --
---------------------------------------------------
  Atom         X              Y              Z     
---------------------------------------------------
   1       0.001146      -0.000378      -0.000320
   2      -0.000117      -0.001021      -0.000353
   3       0.000012      -0.001935      -0.000794
   4      -0.000779       0.000214      -0.001210
   5      -0.000420       0.001109       0.000681
   6      -0.000474       0.001091       0.000323
   7      -0.000805      -0.000460      -0.000984
   8       0.000773      -0.000165       0.002505
   9       0.000663       0.001545       0.000150
---------------------------------------------------
 Number of fixed atoms: 0
 Gradient time:  CPU 63.56 s  wall 5.14 s
rPathMan2.  file_steps = 952
 IRC --- Status = 4.  Checking bisector search.
 IRC --- Bisector search finished successfully.
 ------------------------------------------------------------------------
 Reaction path following.  The coordinates are cartesian              
 Step  10 E=    -378.785554 |G|=  0.004920 S_lin= 0.9766 S_tot= 1.0365
 ------------------------------------------------------------------------
  IRC -- convergence criterion reached.
 ----------------------------------------------------------------
             Standard Nuclear Orientation (Angstroms)
    I     Atom           X                Y                Z
 ----------------------------------------------------------------
    1      C       0.1530048957    -0.5140473525    -0.4508835185
    2      O      -0.7103897910    -1.3168677804     0.1401348939
    3      H       0.0816042768    -0.3331649070    -1.5144648807
    4      C       1.2924018927    -0.0917889656     0.3112877040
    5      H       1.3092800803    -0.4020378528     1.3647405136
    6      O       2.1850572505     0.6036112494    -0.1718117140
    7      H      -1.4123188410    -1.5819600205    -0.4703542325
    8      O      -0.8572008767     1.3834619275     0.0559111468
    9      O      -1.9218483872     1.0352738021     0.5387925874
 ----------------------------------------------------------------
 Nuclear Repulsion Energy =         227.28377755 hartrees
 There are       24 alpha and       23 beta electrons
 Here is where we should summarize the reaction path
 Total job time:  2718.10s(wall), 41471.23s(cpu) 
 Thu May  9 19:07:53 2024

        *************************************************************
        *                                                           *
        *  Thank you very much for using Q-Chem.  Have a nice day.  *
        *                                                           *
        *************************************************************


