
Running Job 1 of 2 Q_in.in
qchem Q_in.in_186702.0 /scratch/ari.fischer/qChem2090984.hpc-mn1/qchem186702/ 0
/usr/local/qchem-5.4.1/exe/qcprog.exe_s Q_in.in_186702.0 /scratch/ari.fischer/qChem2090984.hpc-mn1/qchem186702/
                  Welcome to Q-Chem
     A Quantum Leap Into The Future Of Chemistry


 Q-Chem 5.4, Q-Chem, Inc., Pleasanton, CA (2021)

 License issued to: Nanyang Technological University (site)

 E. Epifanovsky,  A. T. B. Gilbert,  Xintian Feng,  Joonho Lee,  Yuezhi Mao,  
 N. Mardirossian,  P. Pokhilko,  A. White,  M. Wormit,  M. P. Coons,  
 A. L. Dempwolff,  Zhengting Gan,  D. Hait,  P. R. Horn,  L. D. Jacobson,  
 I. Kaliman,  J. Kussmann,  A. W. Lange,  Ka Un Lao,  D. S. Levine,  Jie Liu,  
 S. C. McKenzie,  A. F. Morrison,  K. Nanda,  F. Plasser,  D. R. Rehn,  
 M. L. Vidal,  Zhi-Qiang You,  Ying Zhu,  B. Alam,  B. Albrecht,  
 A. Aldossary,  E. Alguire,  J. H. Andersen,  D. Barton,  K. Begam,  A. Behn,  
 Y. A. Bernard,  E. J. Berquist,  H. Burton,  A. Carreras,  K. Carter-Fenk,  
 R. Chakraborty,  A. D. Chien,  K. D. Closser,  V. Cofer-Shabica,  
 S. Dasgupta,  Jia Deng,  M. de Wergifosse,  M. Diedenhofen,  Hainam Do,  
 S. Ehlert,  Po-Tung Fang,  S. Fatehi,  Qingguo Feng,  T. Friedhoff,  
 J. Gayvert,  Qinghui Ge,  G. Gidofalvi,  M. Goldey,  J. Gomes,  
 C. Gonzalez-Espinoza,  S. Gulania,  A. Gunina,  M. W. D. Hanson-Heine,  
 P. H. P. Harbach,  A. W. Hauser,  M. F. Herbst,  M. Hernandez Vera,  
 M. Hodecker,  Z. C. Holden,  S. Houck,  Xunkun Huang,  Kerwin Hui,  
 B. C. Huynh,  M. Ivanov,  Hyunjun Ji,  Hanjie Jiang,  B. Kaduk,  S. Kaehler,  
 K. Khistyaev,  Jaehoon Kim,  P. Klunzinger,  Z. Koczor-Benda,  
 Joong Hoon Koh,  D. Kosenkov,  L. Koulias,  T. Kowalczyk,  C. M. Krauter,  
 K. Kue,  A. Kunitsa,  T. Kus,  A. Landau,  K. V. Lawler,  D. Lefrancois,  
 S. Lehtola,  Rain Li,  Yi-Pei Li,  Jiashu Liang,  M. Liebenthal,  
 Hung-Hsuan Lin,  You-Sheng Lin,  Fenglai Liu,  Kuan-Yu Liu,  
 M. Loipersberger,  A. Luenser,  A. Manjanath,  P. Manohar,  E. Mansoor,  
 S. F. Manzer,  Shan-Ping Mao,  A. V. Marenich,  T. Markovich,  S. Mason,  
 S. A. Maurer,  P. F. McLaughlin,  M. F. S. J. Menger,  J.-M. Mewes,  
 S. A. Mewes,  P. Morgante,  J. W. Mullinax,  K. J. Oosterbaan,  G. Paran,  
 Alexander C. Paul,  Suranjan K. Paul,  F. Pavosevic,  Zheng Pei,  S. Prager,  
 E. I. Proynov,  E. Ramos,  B. Rana,  A. E. Rask,  A. Rettig,  R. M. Richard,  
 F. Rob,  E. Rossomme,  T. Scheele,  M. Scheurer,  M. Schneider,  
 N. Sergueev,  S. M. Sharada,  W. Skomorowski,  D. W. Small,  C. J. Stein,  
 Yu-Chuan Su,  E. J. Sundstrom,  Zhen Tao,  J. Thirman,  T. Tsuchimochi,  
 N. M. Tubman,  S. P. Veccham,  O. Vydrov,  J. Wenzel,  J. Witte,  A. Yamada,  
 Kun Yao,  S. Yeganeh,  S. R. Yost,  A. Zech,  Igor Ying Zhang,  Xing Zhang,  
 Yu Zhang,  D. Zuev,  A. Aspuru-Guzik,  A. T. Bell,  N. A. Besley,  
 K. B. Bravaya,  B. R. Brooks,  D. Casanova,  Jeng-Da Chai,  S. Coriani,  
 C. J. Cramer,  A. E. DePrince, III,  R. A. DiStasio Jr.,  A. Dreuw,  
 B. D. Dunietz,  T. R. Furlani,  W. A. Goddard III,  S. Grimme,  
 S. Hammes-Schiffer,  T. Head-Gordon,  W. J. Hehre,  Chao-Ping Hsu,  
 T.-C. Jagau,  Yousung Jung,  A. Klamt,  Jing Kong,  D. S. Lambrecht,  
 WanZhen Liang,  N. J. Mayhall,  C. W. McCurdy,  J. B. Neaton,  
 C. Ochsenfeld,  J. A. Parkhill,  R. Peverati,  V. A. Rassolov,  Yihan Shao,  
 L. V. Slipchenko,  T. Stauch,  R. P. Steele,  J. E. Subotnik,  
 A. J. W. Thom,  A. Tkatchenko,  D. G. Truhlar,  T. Van Voorhis,  
 T. A. Wesolowski,  K. B. Whaley,  H. L. Woodcock III,  P. M. Zimmerman,  
 S. Faraji,  P. M. W. Gill,  M. Head-Gordon,  J. M. Herbert,  A. I. Krylov

 Additional authors for Version 5.4.1: 
 S. Kotaru,  Shaozhi Li,  Xiangyuan Li,  F. Matz,  A. Molle,  Haisheng Ren,  
 Yingli Su,  Hung-Yi Tsai,  C. Utku,  Fang Wang

 Contributors to earlier versions of Q-Chem not listed above: 
 R. D. Adamson,  B. Austin,  R. Baer,  J. Baker,  G. J. O. Beran,  
 K. Brandhorst,  S. T. Brown,  E. F. C. Byrd,  A. K. Chakraborty,  
 G. K. L. Chan,  Chun-Min Chang,  Yunqing Chen,  C.-L. Cheng,  
 Siu Hung Chien,  D. M. Chipman,  D. L. Crittenden,  H. Dachsel,  
 R. J. Doerksen,  A. D. Dutoi,  R. G. Edgar,  J. Fosso-Tande,  
 L. Fusti-Molnar,  D. Ghosh,  A. Ghysels,  A. Golubeva-Zadorozhnaya,  
 J. Gonthier,  M. S. Gordon,  S. R. Gwaltney,  G. Hawkins,  J. E. Herr,  
 A. Heyden,  S. Hirata,  E. G. Hohenstein,  G. Kedziora,  F. J. Keil,  
 C. Kelley,  Jihan Kim,  R. A. King,  R. Z. Khaliullin,  P. P. Korambath,  
 W. Kurlancheek,  A. Laurent,  A. M. Lee,  M. S. Lee,  S. V. Levchenko,  
 Ching Yeh Lin,  D. Liotard,  E. Livshits,  R. C. Lochan,  I. Lotan,  
 L. A. Martinez-Martinez,  P. E. Maslen,  N. Nair,  D. P. O'Neill,  
 D. Neuhauser,  E. Neuscamman,  C. M. Oana,  R. Olivares-Amaya,  R. Olson,  
 T. M. Perrine,  B. Peters,  P. A. Pieniazek,  A. Prociuk,  Y. M. Rhee,  
 J. Ritchie,  M. A. Rohrdanz,  E. Rosta,  N. J. Russ,  H. F. Schaefer III,  
 M. W. Schmidt,  N. E. Schultz,  S. Sharma,  N. Shenvi,  C. D. Sherrill,  
 A. C. Simmonett,  A. Sodt,  T. Stein,  D. Stuck,  K. S. Thanthiriwatte,  
 V. Vanovschi,  L. Vogt,  Tao Wang,  A. Warshel,  M. A. Watson,  
 C. F. Williams,  Q. Wu,  X. Xu,  Jun Yang,  W. Zhang,  Yan Zhao

 Please cite Q-Chem as follows:
 Y. Shao et al., Mol. Phys. 113, 184-215 (2015)
 DOI: 10.1080/00268976.2014.952696

 Q-Chem 5.4.1 for Intel X86 EM64T Linux

 Parts of Q-Chem use Armadillo 9.800.1 (Horizon Scraper).
 http://arma.sourceforge.net/

 Q-Chem begins on Thu May  9 14:12:40 2024  

 Host: 
0

     Scratch files written to /scratch/ari.fischer/qChem2090984.hpc-mn1/qchem186702//
 Aug1521 |scratch|qcdevops|jenkins|workspace|build_RNUM 8249   
 Processing $rem in /usr/local/qchem-5.4.1/config/preferences:
 Processing $rem in /home/ari.fischer/.qchemrc:
 Symmetry turned off for PCM/SM12/SMD calculation


!!********************************************.
!!******************Warning*******************.
!!Desired Analytical derivatives not available.
!!Finite difference job might take a long time.
!!********************************************.
!!********************************************.


 2-order derivative to be evaluated numerically with 1-order analytical derivatives

 Checking the input file for inconsistencies... 	...done.

--------------------------------------------------------------
User input:
--------------------------------------------------------------
$molecule
0 2
C   -0.0467819   -0.2844205   -0.2067773
O   -0.6322274   -1.3670698    0.4157195
H   -0.0518470   -0.3592164   -1.2954774
C    1.3751126   -0.1262203    0.3010104
H    1.8949622   -1.0730899    0.5015316
O    1.8977899    0.9480380    0.4463101
H   -1.3651886   -1.6875296   -0.1236876
O   -0.9037600    1.3341182    0.1931480
O   -2.0484693    1.3978704   -0.4284248
$end

$rem
BASIS = 6-311++G(2df,2p)
GUI = 2
JOB_TYPE = Frequency
METHOD = wB97M-V
SCF_ALGORITHM = DIIS_GDM
MAX_SCF_CYCLES = 400
SCF_CONVERGENCE = 6
THRESH = 11
solvent_method = SMD
$end

--------------------------------------------------------------
 ----------------------------------------------------------------
             Standard Nuclear Orientation (Angstroms)
    I     Atom           X                Y                Z
 ----------------------------------------------------------------
    1      C      -0.0467819000    -0.2844205000    -0.2067773000
    2      O      -0.6322274000    -1.3670698000     0.4157195000
    3      H      -0.0518470000    -0.3592164000    -1.2954774000
    4      C       1.3751126000    -0.1262203000     0.3010104000
    5      H       1.8949622000    -1.0730899000     0.5015316000
    6      O       1.8977899000     0.9480380000     0.4463101000
    7      H      -1.3651886000    -1.6875296000    -0.1236876000
    8      O      -0.9037600000     1.3341182000     0.1931480000
    9      O      -2.0484693000     1.3978704000    -0.4284248000
 ----------------------------------------------------------------
 Nuclear Repulsion Energy =         224.34735146 hartrees
 There are       24 alpha and       23 beta electrons
 Requested basis set is 6-311++G(2df,2p)
 There are 66 shells and 234 basis functions

 Total QAlloc Memory Limit 288000 MB
 Mega-Array Size       188 MB
 MEM_STATIC part       192 MB
 
 Citation of the SMD model:
 Marenich, A.V.; Cramer, C.J.; Truhlar, D.G.
 J. Phys. Chem. B 2009, 113, 6378-6396.
 iSolventCode=           1
 Solvent: water                                                           
 
 vradii
            1           2           3           4           5           6
    1   1.8500000   1.5200000   1.2000000   1.8500000   1.2000000   1.5200000
            7           8           9
    1   1.2000000   1.5200000   1.5200000
 Changing PCM_VDW_RADII to SMD_RADIUS
 Discretize the solute cavity surface with Lebedev spheres
	Using 110 Lebedev grid points for each H atom
	Using 194 Lebedev grid points for other atoms
	Atomic van der Waals radii will be scaled by 1.20
 Remove points where switching function is < 1.0e-08
 Keep 867 surface tesserae and discard 627 interior tesserae
 Molecular Surface Area = 106.454 Angst**2

                       Distance Matrix (Angstroms)
             C (  1)   O (  2)   H (  3)   C (  4)   H (  5)   O (  6)
   O (  2)  1.379267
   H (  3)  1.091278  2.069011
   C (  4)  1.518111  2.362685  2.153897
   H (  5)  2.212255  2.545678  2.743888  1.098642
   O (  6)  2.393081  3.429526  2.922982  1.203468  2.021884
   H (  7)  1.927126  0.964825  2.205079  3.182343  3.375947  4.232983
   O (  8)  1.874572  2.723910  2.410216  2.708779  3.704402  2.839336
   O (  9)  2.624116  3.219195  2.797434  3.817832  4.745642  4.066998
             H (  7)   O (  8)
   O (  8)  3.073053
   O (  9)  3.174812  1.304138
 
 A cutoff of  1.0D-11 yielded   2031 shell pairs
 There are     25720 function pairs (     32653 Cartesian)
 Smallest overlap matrix eigenvalue = 9.12E-05
 Guess from superposition of atomic densities
 Warning:  Energy on first SCF cycle will be non-variational
 SAD guess density has 47.000000 electrons

 -----------------------------------------------------------------------
  General SCF calculation program by
  Eric Jon Sundstrom, Paul Horn, Yuezhi Mao, Dmitri Zuev, Alec White,
  David Stuck, Shaama M.S., Shane Yost, Joonho Lee, David Small,
  Daniel Levine, Susi Lehtola, Hugh Burton, Evgeny Epifanovsky,
  Bang C. Huynh
 -----------------------------------------------------------------------
 Exchange:     0.1500 Hartree-Fock + 1.0000 wB97M-V + LR-HF
 Correlation:  1.0000 wB97M-V
 Using SG-2 standard quadrature grid
 Nonlocal Correlation:  VV10 with C = 0.0100 and b = 6.00 and scale = 1.00000
 Grid used for NLC:  SG-1 standard quadrature
 using 8 threads for integral computing
 -------------------------------------------------------
 OpenMP Integral computing Module                
 Release: version 1.0, May 2013, Q-Chem Inc. Pittsburgh 
 -------------------------------------------------------
 
 Citation of the SMD model:
 Marenich, A.V.; Cramer, C.J.; Truhlar, D.G.
 J. Phys. Chem. B 2009, 113, 6378-6396.
 iSolventCode=           1
 Solvent: water                                                           
 
 vradii
            1           2           3           4           5           6
    1   1.8500000   1.5200000   1.2000000   1.8500000   1.2000000   1.5200000
            7           8           9
    1   1.2000000   1.5200000   1.5200000
 -------------------------------------------------------
 OpenMP BLAS3 based DFT computing Module                
 Release: version 1.0, May 2013, Q-Chem Inc. Pittsburgh 
 -------------------------------------------------------
 A unrestricted SCF calculation will be
 performed using DIIS, GDM
 SCF converges when RMS gradient is below 1.0e-06
 ---------------------------------------
  Cycle       Energy         DIIS error
 ---------------------------------------
    1    -379.3251302753      1.50e-02  
    2    -378.6286199477      2.39e-03  Done DIIS. Switching to GDM
 ---------------------------------------
  Cycle       Energy        RMS Gradient
 ---------------------------------------
    1    -378.6286199477      1.22e-01   Descent step
    2    -378.7455544764      1.51e-02   Normal BFGS step
    3    -378.7574353090      2.21e-02   Normal BFGS step
    4    -378.7586704888      7.68e-03   Normal BFGS step
    5    -378.7595044640      5.84e-03   Normal BFGS step
    6    -378.7596331096      2.82e-03   Normal BFGS step
    7    -378.7596887584      1.44e-03   Normal BFGS step
    8    -378.7597117361      1.21e-03   Normal BFGS step
    9    -378.7597165314      6.08e-04   Normal BFGS step
   10    -378.7597180904      2.77e-04   Normal BFGS step
   11    -378.7597187985      1.99e-04   Normal BFGS step
   12    -378.7597190693      1.43e-04   Normal BFGS step
   13    -378.7597192023      1.07e-04   Normal BFGS step
   14    -378.7597192477      8.07e-05   Normal BFGS step
   15    -378.7597192677      6.34e-05   Normal BFGS step
   16    -378.7597192865      4.07e-05   Normal BFGS step
   17    -378.7597192985      2.56e-05   Normal BFGS step
   18    -378.7597193028      1.00e-05   Normal BFGS step
   19    -378.7597193036      2.64e-06   Normal BFGS step
   20    -378.7597193037      6.39e-07  Convergence criterion met
 ---------------------------------------
 SCF time:   CPU 378.44s  wall 48.00s 
<S^2> =          0.759804307
(3)  G-ENP(liq) elect-nuc-pol free energy of system     -378.759719304 a.u.
(4)  G-CDS(liq) cavity-dispersion-solvent structure 
     free energy                                                3.3592 kcal/mol
(6)  G-S(liq) free energy of system                     -378.754366112 a.u.
 SCF   energy in the final basis set =     -378.7543661116
 Total energy in the final basis set =     -378.7543661116
 
 --------------------------------------------------------------
 
                    Orbital Energies (a.u.)
 --------------------------------------------------------------
 
 Alpha MOs
 -- Occupied --
-19.4533 -19.4112 -19.3970 -19.3665 -10.4876 -10.4627  -1.3117  -1.2215
 -1.2090  -0.9494  -0.8666  -0.7163  -0.6821  -0.6340  -0.6131  -0.5953
 -0.5898  -0.5749  -0.5303  -0.5056  -0.4850  -0.4018  -0.3891  -0.3672
 -- Virtual --
  0.0009   0.0325   0.0439   0.0559   0.0739   0.0805   0.1020   0.1109
  0.1164   0.1332   0.1410   0.1651   0.1672   0.1820   0.2043   0.2241
  0.2319   0.2483   0.2670   0.2680   0.2742   0.2827   0.2936   0.2967
  0.3137   0.3193   0.3324   0.3449   0.3522   0.3635   0.3778   0.3944
  0.4147   0.4502   0.4509   0.4727   0.5620   0.5759   0.5949   0.6098
  0.6485   0.6597   0.6656   0.6774   0.6948   0.7354   0.8086   0.8172
  0.8333   0.9104   0.9578   0.9701   1.0082   1.0332   1.0569   1.0871
  1.0983   1.1090   1.1151   1.1310   1.1385   1.1584   1.1700   1.1793
  1.1927   1.2131   1.2388   1.2472   1.2927   1.3223   1.3412   1.3585
  1.3910   1.4059   1.4327   1.4802   1.4930   1.5311   1.5477   1.5611
  1.5991   1.6145   1.6664   1.6729   1.7356   1.7547   1.7988   1.8066
  1.9113   1.9493   2.0146   2.0823   2.1329   2.1721   2.2032   2.2667
  2.3060   2.3242   2.3389   2.4408   2.5008   2.5542   2.6713   2.6866
  2.7530   2.7901   2.8436   2.9364   2.9608   2.9757   3.0956   3.1007
  3.1321   3.1703   3.2198   3.2450   3.3035   3.3449   3.3990   3.4162
  3.4439   3.5333   3.5634   3.6174   3.6575   3.7036   3.7331   3.7793
  3.8071   3.8501   3.9434   3.9753   4.0604   4.1111   4.1584   4.2077
  4.2285   4.3307   4.4091   4.5007   4.5453   4.6094   4.6619   4.7022
  4.7391   4.7781   4.8533   5.0278   5.0643   5.0669   5.0986   5.1356
  5.1421   5.1562   5.1704   5.1808   5.1952   5.2075   5.2240   5.2295
  5.2535   5.2680   5.3000   5.3303   5.4164   5.4647   5.4872   5.5364
  5.5611   5.5745   5.6201   5.6515   5.6925   5.8521   5.9021   6.0598
  6.3781   6.4639   6.5146   6.5991   6.7337   6.7906   6.8403   6.9081
  6.9312   6.9729   6.9810   6.9977   7.0511   7.0940   7.1313   7.2430
  7.2658   7.2672   7.3184   7.3497   7.3757   7.4840   7.5594   7.6072
  7.7306   7.7464   7.9379   8.0056  24.5612  24.9197  50.3974  50.4557
 50.5369  50.6888
 
 Beta MOs
 -- Occupied --
-19.4405 -19.3973 -19.3929 -19.3666 -10.4886 -10.4627  -1.2815  -1.2215
 -1.2093  -0.9135  -0.8593  -0.7156  -0.6816  -0.6296  -0.6028  -0.5821
 -0.5602  -0.5309  -0.5182  -0.4977  -0.4814  -0.3993  -0.3475
 -- Virtual --
 -0.0185   0.0029   0.0329   0.0445   0.0563   0.0748   0.0810   0.1028
  0.1122   0.1168   0.1345   0.1415   0.1662   0.1674   0.1853   0.2067
  0.2252   0.2340   0.2548   0.2682   0.2691   0.2792   0.2856   0.2962
  0.3011   0.3152   0.3208   0.3334   0.3469   0.3531   0.3683   0.3780
  0.3956   0.4152   0.4509   0.4520   0.4730   0.5618   0.5758   0.5950
  0.6097   0.6481   0.6596   0.6657   0.6771   0.6947   0.7358   0.8086
  0.8172   0.8337   0.9104   0.9587   0.9709   1.0099   1.0362   1.0653
  1.0938   1.1014   1.1110   1.1289   1.1336   1.1504   1.1620   1.1763
  1.1862   1.1962   1.2297   1.2422   1.2491   1.2954   1.3236   1.3464
  1.3599   1.3914   1.4114   1.4520   1.4821   1.5036   1.5313   1.5497
  1.5831   1.6100   1.6157   1.6766   1.6892   1.7562   1.7568   1.8025
  1.8195   1.9126   1.9500   2.0190   2.0852   2.1368   2.1735   2.2188
  2.2799   2.3147   2.3325   2.3416   2.4416   2.5006   2.5539   2.6798
  2.6870   2.7527   2.7882   2.8433   2.9353   2.9602   2.9743   3.0931
  3.0991   3.1313   3.1682   3.2186   3.2431   3.3034   3.3428   3.3971
  3.4148   3.4432   3.5318   3.5588   3.6152   3.6543   3.7018   3.7309
  3.7782   3.8067   3.8481   3.9410   3.9740   4.0586   4.1095   4.1577
  4.2071   4.2275   4.3295   4.4076   4.4986   4.5844   4.6117   4.6740
  4.7019   4.7659   4.7991   4.8681   5.0881   5.1018   5.1122   5.1302
  5.1522   5.1570   5.1713   5.1815   5.2014   5.2136   5.2331   5.2521
  5.2571   5.2706   5.2806   5.3108   5.3334   5.4230   5.4676   5.4905
  5.5384   5.5633   5.5839   5.6375   5.6689   5.7016   5.8518   5.9018
  6.0595   6.3779   6.5123   6.5282   6.6008   6.7415   6.8612   6.9195
  6.9338   6.9666   6.9813   7.0191   7.0337   7.0649   7.1217   7.1443
  7.2540   7.2661   7.2788   7.3275   7.3563   7.4261   7.4858   7.5746
  7.6076   7.7306   7.7463   7.9529   8.0282  24.5604  24.9196  50.4103
 50.4659  50.5375  50.6888
 --------------------------------------------------------------
 
          Ground-State Mulliken Net Atomic Charges

     Atom                 Charge (a.u.)    Spin (a.u.)
  --------------------------------------------------------
      1 C                    -0.080920      -0.051291
      2 O                    -0.284706      -0.010342
      3 H                     0.277088       0.002061
      4 C                     0.182237       0.002230
      5 H                     0.200152      -0.001473
      6 O                    -0.338588      -0.000683
      7 H                     0.367583       0.000669
      8 O                    -0.080285       0.410186
      9 O                    -0.242562       0.648644
  --------------------------------------------------------
  Sum of atomic charges =     0.000000
  Sum of spin   charges =     1.000000

 -----------------------------------------------------------------
                    Cartesian Multipole Moments
 -----------------------------------------------------------------
    Charge (ESU x 10^10)
                 0.0000
    Dipole Moment (Debye)
         X       0.8388      Y      -6.7851      Z      -2.3763
       Tot       7.2380
    Quadrupole Moments (Debye-Ang)
        XX     -39.8620     XY       2.1872     YY     -38.2010
        XZ      -0.7009     YZ       1.4814     ZZ     -33.2401
    Octopole Moments (Debye-Ang^2)
       XXX       6.3899    XXY     -35.7420    XYY       0.8295
       YYY     -43.0212    XXZ      -4.1609    XYZ      -5.7749
       YYZ      -7.2910    XZZ       3.5555    YZZ     -10.1562
       ZZZ     -13.1014
    Hexadecapole Moments (Debye-Ang^3)
      XXXX    -452.2273   XXXY      33.3688   XXYY    -121.3213
      XYYY      45.6403   YYYY    -272.0673   XXXZ     -41.0685
      XXYZ       1.8626   XYYZ     -10.0487   YYYZ      11.5341
      XXZZ     -81.4815   XYZZ       7.8982   YYZZ     -56.1952
      XZZZ     -30.4185   YZZZ       9.7530   ZZZZ     -59.0018
 -----------------------------------------------------------------
 Calculating analytic gradient of the SCF energy
 Gradient of CDS energy
            1           2           3           4           5           6
    1  -0.0027333   0.0023387  -0.0001229   0.0018211  -0.0001451  -0.0006200
    2  -0.0044235   0.0044493   0.0000362   0.0014316  -0.0001936  -0.0010748
    3   0.0021691  -0.0024273  -0.0001092   0.0005137   0.0000253  -0.0001532
            7           8           9
    1  -0.0003096  -0.0002249  -0.0000039
    2  -0.0003799   0.0000203   0.0001343
    3  -0.0000278  -0.0000256   0.0000349
 Gradient of SCF Energy
            1           2           3           4           5           6
    1   0.0095547   0.0089902   0.0118667   0.0020703   0.0078335   0.0003574
    2   0.0100153  -0.0277990  -0.0186856  -0.0060363  -0.0118967   0.0085908
    3  -0.0006877   0.0262099  -0.0199820  -0.0102825   0.0026520   0.0026772
            7           8           9
    1  -0.0133444  -0.0074356  -0.0198929
    2  -0.0091935   0.0485726   0.0064325
    3  -0.0131377   0.0221335  -0.0095827
 Max gradient component =       4.857E-02
 RMS gradient           =       1.602E-02
 Computing fast CPCM-SWIG gradient
 Updating gradient with PCM contributions...
 -- total gradient after adding PCM contribution --
---------------------------------------------------
  Atom         X              Y              Z     
---------------------------------------------------
   1       0.011204       0.006679      -0.018524
   2      -0.005691      -0.034341       0.009947
   3       0.010816      -0.012412      -0.000806
   4       0.008269      -0.013069      -0.004393
   5       0.001070       0.000832       0.000443
   6      -0.001161       0.001094       0.000777
   7       0.002092       0.000808       0.001314
   8      -0.006826       0.046907       0.021701
   9      -0.019775       0.003503      -0.010459
---------------------------------------------------
 Number of fixed atoms: 0
 Gradient time:  CPU 45.12 s  wall 6.79 s
 ######################################################
 ######################################################
 # Starting finite difference calculation for IDERIV  #
 Finite diff step size:  1.88973e-03 a.u.
 ----------------------------------------------------------------
             Standard Nuclear Orientation (Angstroms)
    I     Atom           X                Y                Z
 ----------------------------------------------------------------
    1      C      -0.0457819000    -0.2844205000    -0.2067773000
    2      O      -0.6322274000    -1.3670698000     0.4157195000
    3      H      -0.0518470000    -0.3592164000    -1.2954774000
    4      C       1.3751126000    -0.1262203000     0.3010104000
    5      H       1.8949622000    -1.0730899000     0.5015316000
    6      O       1.8977899000     0.9480380000     0.4463101000
    7      H      -1.3651886000    -1.6875296000    -0.1236876000
    8      O      -0.9037600000     1.3341182000     0.1931480000
    9      O      -2.0484693000     1.3978704000    -0.4284248000
 ----------------------------------------------------------------
 Nuclear Repulsion Energy =         224.34688616 hartrees
 There are       24 alpha and       23 beta electrons
 Discretize the solute cavity surface with Lebedev spheres
	Using 110 Lebedev grid points for each H atom
	Using 194 Lebedev grid points for other atoms
	Atomic van der Waals radii will be scaled by 1.20
 Remove points where switching function is < 1.0e-08
 Keep 867 surface tesserae and discard 627 interior tesserae
 Molecular Surface Area = 106.455 Angst**2

                       Distance Matrix (Angstroms)
             C (  1)   O (  2)   H (  3)   C (  4)   H (  5)   O (  6)
   O (  2)  1.379692
   H (  3)  1.091283  2.069011
   C (  4)  1.517174  2.362685  2.153897
   H (  5)  2.211377  2.545678  2.743888  1.098642
   O (  6)  2.392268  3.429526  2.922982  1.203468  2.021884
   H (  7)  1.927810  0.964825  2.205079  3.182343  3.375947  4.232983
   O (  8)  1.875029  2.723910  2.410216  2.708779  3.704402  2.839336
   O (  9)  2.624878  3.219195  2.797434  3.817832  4.745642  4.066998
             H (  7)   O (  8)
   O (  8)  3.073053
   O (  9)  3.174812  1.304138
 
 Requested basis set is 6-311++G(2df,2p)
 There are 66 shells and 234 basis functions
 A cutoff of  1.0D-11 yielded   2031 shell pairs
 There are     25720 function pairs (     32653 Cartesian)
 Smallest overlap matrix eigenvalue = 9.10E-05
 Guess MOs from SCF MO coefficient file

 -----------------------------------------------------------------------
  General SCF calculation program by
  Eric Jon Sundstrom, Paul Horn, Yuezhi Mao, Dmitri Zuev, Alec White,
  David Stuck, Shaama M.S., Shane Yost, Joonho Lee, David Small,
  Daniel Levine, Susi Lehtola, Hugh Burton, Evgeny Epifanovsky,
  Bang C. Huynh
 -----------------------------------------------------------------------
 Exchange:     0.1500 Hartree-Fock + 1.0000 wB97M-V + LR-HF
 Correlation:  1.0000 wB97M-V
 Using SG-2 standard quadrature grid
 Nonlocal Correlation:  VV10 with C = 0.0100 and b = 6.00 and scale = 1.00000
 Grid used for NLC:  SG-1 standard quadrature
 
 Citation of the SMD model:
 Marenich, A.V.; Cramer, C.J.; Truhlar, D.G.
 J. Phys. Chem. B 2009, 113, 6378-6396.
 iSolventCode=           1
 Solvent: water                                                           
 
 vradii
            1           2           3           4           5           6
    1   1.8500000   1.5200000   1.2000000   1.8500000   1.2000000   1.5200000
            7           8           9
    1   1.2000000   1.5200000   1.5200000
 -------------------------------------------------------
 OpenMP BLAS3 based DFT computing Module                
 Release: version 1.0, May 2013, Q-Chem Inc. Pittsburgh 
 -------------------------------------------------------
 A unrestricted SCF calculation will be
 performed using Roothaan-Hall, DIIS, GDM
 SCF converges when RMS gradient is below 1.0e-06
 ---------------------------------------
  Cycle       Energy         DIIS error
 ---------------------------------------
    1    -378.7212081518      3.92e-04  Roothaan Step
 ---------------------------------------
  Cycle       Energy         DIIS error
 ---------------------------------------
    1    -378.7482633639      5.32e-04  
    2    -378.7512004648      6.62e-04  Done DIIS. Switching to GDM
 ---------------------------------------
  Cycle       Energy        RMS Gradient
 ---------------------------------------
    1    -378.7512004648      2.83e-02   Normal BFGS step
    2    -378.7458435241      4.66e-02  Line search: overstep
    3    -378.7593191018      3.62e-03   Normal BFGS step
    4    -378.7595799969      4.63e-03   Normal BFGS step
    5    -378.7596651538      1.58e-03   Normal BFGS step
    6    -378.7596864193      6.84e-04   Normal BFGS step
    7    -378.7596902258      6.88e-04   Normal BFGS step
    8    -378.7596917830      2.61e-04   Normal BFGS step
    9    -378.7596920431      8.84e-05   Normal BFGS step
   10    -378.7596921448      9.72e-05   Normal BFGS step
   11    -378.7596921660      5.44e-05   Normal BFGS step
   12    -378.7596921744      1.58e-05   Normal BFGS step
   13    -378.7596921765      1.00e-05   Normal BFGS step
   14    -378.7596921774      6.72e-06   Normal BFGS step
   15    -378.7596921777      3.19e-06   Normal BFGS step
   16    -378.7596921778      1.96e-06   Normal BFGS step
   17    -378.7596921778      1.75e-06   Normal BFGS step
   18    -378.7596921777      1.42e-06   Normal BFGS step
   19    -378.7596921778      9.42e-07  Convergence criterion met
 ---------------------------------------
 SCF time:   CPU 393.25s  wall 55.00s 
<S^2> =          0.759838748
(3)  G-ENP(liq) elect-nuc-pol free energy of system     -378.759692178 a.u.
(4)  G-CDS(liq) cavity-dispersion-solvent structure 
     free energy                                                3.3559 kcal/mol
(6)  G-S(liq) free energy of system                     -378.754344153 a.u.
 SCF   energy in the final basis set =     -378.7543441528
 Total energy in the final basis set =     -378.7543441528
 
 --------------------------------------------------------------
 
                    Orbital Energies (a.u.)
 --------------------------------------------------------------
 
 Alpha MOs
 -- Occupied --
-19.4533 -19.4112 -19.3970 -19.3666 -10.4877 -10.4627  -1.3117  -1.2215
 -1.2090  -0.9494  -0.8668  -0.7163  -0.6821  -0.6340  -0.6131  -0.5953
 -0.5898  -0.5749  -0.5304  -0.5055  -0.4850  -0.4018  -0.3891  -0.3672
 -- Virtual --
  0.0008   0.0325   0.0439   0.0559   0.0738   0.0804   0.1020   0.1109
  0.1164   0.1332   0.1410   0.1651   0.1672   0.1820   0.2043   0.2240
  0.2319   0.2483   0.2669   0.2681   0.2742   0.2827   0.2936   0.2968
  0.3137   0.3192   0.3324   0.3449   0.3523   0.3635   0.3779   0.3945
  0.4147   0.4503   0.4509   0.4728   0.5620   0.5758   0.5950   0.6097
  0.6484   0.6596   0.6656   0.6774   0.6948   0.7355   0.8085   0.8172
  0.8333   0.9104   0.9578   0.9701   1.0082   1.0332   1.0569   1.0870
  1.0983   1.1090   1.1151   1.1310   1.1386   1.1583   1.1700   1.1794
  1.1927   1.2131   1.2388   1.2473   1.2928   1.3225   1.3413   1.3586
  1.3910   1.4059   1.4327   1.4802   1.4930   1.5311   1.5477   1.5611
  1.5992   1.6143   1.6664   1.6729   1.7355   1.7547   1.7987   1.8067
  1.9113   1.9492   2.0147   2.0821   2.1328   2.1721   2.2031   2.2667
  2.3058   2.3242   2.3389   2.4408   2.5009   2.5542   2.6713   2.6870
  2.7528   2.7900   2.8435   2.9363   2.9610   2.9759   3.0956   3.1007
  3.1321   3.1700   3.2199   3.2451   3.3035   3.3445   3.3987   3.4161
  3.4441   3.5333   3.5633   3.6173   3.6574   3.7035   3.7332   3.7796
  3.8070   3.8502   3.9439   3.9759   4.0609   4.1113   4.1585   4.2078
  4.2288   4.3315   4.4091   4.5016   4.5453   4.6099   4.6620   4.7027
  4.7391   4.7781   4.8532   5.0278   5.0643   5.0669   5.0986   5.1355
  5.1421   5.1562   5.1704   5.1808   5.1951   5.2075   5.2239   5.2294
  5.2534   5.2680   5.3000   5.3302   5.4164   5.4648   5.4871   5.5365
  5.5612   5.5744   5.6201   5.6513   5.6923   5.8516   5.9016   6.0597
  6.3782   6.4639   6.5146   6.5984   6.7340   6.7904   6.8402   6.9080
  6.9312   6.9729   6.9808   6.9975   7.0511   7.0941   7.1315   7.2428
  7.2657   7.2671   7.3184   7.3495   7.3758   7.4841   7.5593   7.6073
  7.7307   7.7463   7.9379   8.0056  24.5609  24.9207  50.3974  50.4556
 50.5367  50.6888
 
 Beta MOs
 -- Occupied --
-19.4405 -19.3973 -19.3929 -19.3666 -10.4886 -10.4627  -1.2815  -1.2215
 -1.2092  -0.9135  -0.8595  -0.7156  -0.6815  -0.6297  -0.6028  -0.5821
 -0.5601  -0.5309  -0.5182  -0.4976  -0.4814  -0.3994  -0.3474
 -- Virtual --
 -0.0185   0.0028   0.0329   0.0444   0.0563   0.0748   0.0810   0.1028
  0.1122   0.1168   0.1345   0.1415   0.1662   0.1674   0.1853   0.2067
  0.2252   0.2339   0.2548   0.2682   0.2692   0.2792   0.2856   0.2962
  0.3012   0.3152   0.3207   0.3334   0.3469   0.3531   0.3683   0.3780
  0.3957   0.4152   0.4509   0.4520   0.4730   0.5618   0.5757   0.5950
  0.6096   0.6481   0.6595   0.6658   0.6772   0.6946   0.7360   0.8085
  0.8173   0.8337   0.9104   0.9587   0.9709   1.0098   1.0362   1.0653
  1.0938   1.1014   1.1110   1.1289   1.1336   1.1504   1.1620   1.1763
  1.1863   1.1962   1.2298   1.2422   1.2492   1.2955   1.3237   1.3465
  1.3600   1.3915   1.4114   1.4520   1.4822   1.5035   1.5313   1.5497
  1.5831   1.6100   1.6156   1.6766   1.6892   1.7562   1.7568   1.8026
  1.8194   1.9126   1.9500   2.0191   2.0851   2.1367   2.1735   2.2187
  2.2799   2.3146   2.3325   2.3417   2.4415   2.5007   2.5539   2.6799
  2.6872   2.7525   2.7881   2.8433   2.9352   2.9604   2.9746   3.0931
  3.0991   3.1314   3.1679   3.2187   3.2432   3.3034   3.3424   3.3968
  3.4147   3.4434   3.5317   3.5587   3.6151   3.6542   3.7018   3.7310
  3.7785   3.8066   3.8482   3.9415   3.9747   4.0591   4.1098   4.1578
  4.2072   4.2278   4.3303   4.4076   4.4996   4.5844   4.6122   4.6740
  4.7024   4.7659   4.7991   4.8680   5.0880   5.1018   5.1121   5.1302
  5.1522   5.1570   5.1713   5.1815   5.2014   5.2136   5.2331   5.2520
  5.2571   5.2706   5.2805   5.3108   5.3334   5.4229   5.4677   5.4903
  5.5384   5.5634   5.5836   5.6375   5.6688   5.7015   5.8513   5.9013
  6.0594   6.3781   6.5123   6.5282   6.6001   6.7418   6.8611   6.9194
  6.9338   6.9666   6.9813   7.0190   7.0335   7.0648   7.1217   7.1443
  7.2538   7.2660   7.2788   7.3274   7.3561   7.4261   7.4859   7.5744
  7.6077   7.7307   7.7462   7.9529   8.0281  24.5601  24.9206  50.4103
 50.4658  50.5373  50.6888
 --------------------------------------------------------------
 
          Ground-State Mulliken Net Atomic Charges

     Atom                 Charge (a.u.)    Spin (a.u.)
  --------------------------------------------------------
      1 C                    -0.080605      -0.051460
      2 O                    -0.285038      -0.010363
      3 H                     0.277116       0.002069
      4 C                     0.182310       0.002249
      5 H                     0.200160      -0.001480
      6 O                    -0.338622      -0.000703
      7 H                     0.367585       0.000670
      8 O                    -0.080341       0.410421
      9 O                    -0.242565       0.648598
  --------------------------------------------------------
  Sum of atomic charges =     0.000000
  Sum of spin   charges =     1.000000

 -----------------------------------------------------------------
                    Cartesian Multipole Moments
 -----------------------------------------------------------------
    Charge (ESU x 10^10)
                 0.0000
    Dipole Moment (Debye)
         X       0.8413      Y      -6.7839      Z      -2.3775
       Tot       7.2375
    Quadrupole Moments (Debye-Ang)
        XX     -39.8609     XY       2.1866     YY     -38.2026
        XZ      -0.6998     YZ       1.4821     ZZ     -33.2396
    Octopole Moments (Debye-Ang^2)
       XXX       6.3798    XXY     -35.7396    XYY       0.8258
       YYY     -43.0146    XXZ      -4.1622    XYZ      -5.7745
       YYZ      -7.2932    XZZ       3.5514    YZZ     -10.1553
       ZZZ     -13.1040
    Hexadecapole Moments (Debye-Ang^3)
      XXXX    -452.2084   XXXY      33.3719   XXYY    -121.3140
      XYYY      45.6403   YYYY    -272.0801   XXXZ     -41.0634
      XXYZ       1.8613   XYYZ     -10.0454   YYYZ      11.5353
      XXZZ     -81.4804   XYZZ       7.9000   YYZZ     -56.1974
      XZZZ     -30.4124   YZZZ       9.7556   ZZZZ     -58.9995
 -----------------------------------------------------------------
 Calculating analytic gradient of the SCF energy
 Gradient of CDS energy
            1           2           3           4           5           6
    1  -0.0027352   0.0023429  -0.0001236   0.0018196  -0.0001452  -0.0006199
    2  -0.0044232   0.0044504   0.0000361   0.0014318  -0.0001938  -0.0010749
    3   0.0021691  -0.0024277  -0.0001093   0.0005140   0.0000253  -0.0001532
            7           8           9
    1  -0.0003098  -0.0002250  -0.0000039
    2  -0.0003804   0.0000200   0.0001341
    3  -0.0000276  -0.0000253   0.0000348
 Gradient of SCF Energy
            1           2           3           4           5           6
    1   0.0104331   0.0087244   0.0117297   0.0017349   0.0078175   0.0003344
    2   0.0102626  -0.0279235  -0.0186912  -0.0059718  -0.0119069   0.0085409
    3  -0.0005735   0.0262158  -0.0200103  -0.0103617   0.0026344   0.0026623
            7           8           9
    1  -0.0133687  -0.0074472  -0.0199580
    2  -0.0092588   0.0484738   0.0064748
    3  -0.0130904   0.0221187  -0.0095953
 Max gradient component =       4.847E-02
 RMS gradient           =       1.604E-02
 Computing fast CPCM-SWIG gradient
 Updating gradient with PCM contributions...
 -- total gradient after adding PCM contribution --
---------------------------------------------------
  Atom         X              Y              Z     
---------------------------------------------------
   1       0.012036       0.006936      -0.018410
   2      -0.005934      -0.034467       0.009959
   3       0.010710      -0.012416      -0.000828
   4       0.007930      -0.013013      -0.004478
   5       0.001052       0.000824       0.000426
   6      -0.001185       0.001037       0.000761
   7       0.002064       0.000744       0.001357
   8      -0.006832       0.046808       0.021688
   9      -0.019842       0.003546      -0.010475
---------------------------------------------------
 Number of fixed atoms: 0
 Gradient time:  CPU 54.03 s  wall 13.66 s
 ----------------------------------------------------------------
             Standard Nuclear Orientation (Angstroms)
    I     Atom           X                Y                Z
 ----------------------------------------------------------------
    1      C      -0.0477819000    -0.2844205000    -0.2067773000
    2      O      -0.6322274000    -1.3670698000     0.4157195000
    3      H      -0.0518470000    -0.3592164000    -1.2954774000
    4      C       1.3751126000    -0.1262203000     0.3010104000
    5      H       1.8949622000    -1.0730899000     0.5015316000
    6      O       1.8977899000     0.9480380000     0.4463101000
    7      H      -1.3651886000    -1.6875296000    -0.1236876000
    8      O      -0.9037600000     1.3341182000     0.1931480000
    9      O      -2.0484693000     1.3978704000    -0.4284248000
 ----------------------------------------------------------------
 Nuclear Repulsion Energy =         224.34782074 hartrees
 There are       24 alpha and       23 beta electrons
 Discretize the solute cavity surface with Lebedev spheres
	Using 110 Lebedev grid points for each H atom
	Using 194 Lebedev grid points for other atoms
	Atomic van der Waals radii will be scaled by 1.20
 Remove points where switching function is < 1.0e-08
 Keep 867 surface tesserae and discard 627 interior tesserae
 Molecular Surface Area = 106.452 Angst**2

                       Distance Matrix (Angstroms)
             C (  1)   O (  2)   H (  3)   C (  4)   H (  5)   O (  6)
   O (  2)  1.378843
   H (  3)  1.091274  2.069011
   C (  4)  1.519047  2.362685  2.153897
   H (  5)  2.213133  2.545678  2.743888  1.098642
   O (  6)  2.393894  3.429526  2.922982  1.203468  2.021884
   H (  7)  1.926442  0.964825  2.205079  3.182343  3.375947  4.232983
   O (  8)  1.874115  2.723910  2.410216  2.708779  3.704402  2.839336
   O (  9)  2.623353  3.219195  2.797434  3.817832  4.745642  4.066998
             H (  7)   O (  8)
   O (  8)  3.073053
   O (  9)  3.174812  1.304138
 
 Requested basis set is 6-311++G(2df,2p)
 There are 66 shells and 234 basis functions
 A cutoff of  1.0D-11 yielded   2031 shell pairs
 There are     25720 function pairs (     32653 Cartesian)
 Smallest overlap matrix eigenvalue = 9.15E-05
 Guess MOs from SCF MO coefficient file

 -----------------------------------------------------------------------
  General SCF calculation program by
  Eric Jon Sundstrom, Paul Horn, Yuezhi Mao, Dmitri Zuev, Alec White,
  David Stuck, Shaama M.S., Shane Yost, Joonho Lee, David Small,
  Daniel Levine, Susi Lehtola, Hugh Burton, Evgeny Epifanovsky,
  Bang C. Huynh
 -----------------------------------------------------------------------
 Exchange:     0.1500 Hartree-Fock + 1.0000 wB97M-V + LR-HF
 Correlation:  1.0000 wB97M-V
 Using SG-2 standard quadrature grid
 Nonlocal Correlation:  VV10 with C = 0.0100 and b = 6.00 and scale = 1.00000
 Grid used for NLC:  SG-1 standard quadrature
 
 Citation of the SMD model:
 Marenich, A.V.; Cramer, C.J.; Truhlar, D.G.
 J. Phys. Chem. B 2009, 113, 6378-6396.
 iSolventCode=           1
 Solvent: water                                                           
 
 vradii
            1           2           3           4           5           6
    1   1.8500000   1.5200000   1.2000000   1.8500000   1.2000000   1.5200000
            7           8           9
    1   1.2000000   1.5200000   1.5200000
 -------------------------------------------------------
 OpenMP BLAS3 based DFT computing Module                
 Release: version 1.0, May 2013, Q-Chem Inc. Pittsburgh 
 -------------------------------------------------------
 A unrestricted SCF calculation will be
 performed using Roothaan-Hall, DIIS, GDM
 SCF converges when RMS gradient is below 1.0e-06
 ---------------------------------------
  Cycle       Energy         DIIS error
 ---------------------------------------
    1    -378.7212681006      3.92e-04  Roothaan Step
 ---------------------------------------
  Cycle       Energy         DIIS error
 ---------------------------------------
    1    -378.7483662270      5.30e-04  
    2    -378.7513406790      6.59e-04  Done DIIS. Switching to GDM
 ---------------------------------------
  Cycle       Energy        RMS Gradient
 ---------------------------------------
    1    -378.7513406790      2.81e-02   Normal BFGS step
    2    -378.7460696422      4.64e-02  Line search: overstep
    3    -378.7593721075      3.63e-03   Normal BFGS step
    4    -378.7596332947      4.56e-03   Normal BFGS step
    5    -378.7597176910      1.60e-03   Normal BFGS step
    6    -378.7597390758      6.87e-04   Normal BFGS step
    7    -378.7597428673      7.04e-04   Normal BFGS step
    8    -378.7597444452      2.72e-04   Normal BFGS step
    9    -378.7597447115      9.04e-05   Normal BFGS step
   10    -378.7597448187      1.01e-04   Normal BFGS step
   11    -378.7597448417      5.64e-05   Normal BFGS step
   12    -378.7597448513      1.57e-05   Normal BFGS step
   13    -378.7597448537      1.19e-05   Normal BFGS step
   14    -378.7597448547      8.35e-06   Normal BFGS step
   15    -378.7597448553      5.26e-06   Normal BFGS step
   16    -378.7597448554      4.56e-06   Normal BFGS step
   17    -378.7597448554      3.75e-06   Normal BFGS step
   18    -378.7597448555      2.53e-06   Normal BFGS step
   19    -378.7597448555      1.12e-06   Normal BFGS step
   20    -378.7597448555      4.89e-07  Convergence criterion met
 ---------------------------------------
 SCF time:   CPU 622.49s  wall 146.00s 
<S^2> =          0.759770019
(3)  G-ENP(liq) elect-nuc-pol free energy of system     -378.759744855 a.u.
(4)  G-CDS(liq) cavity-dispersion-solvent structure 
     free energy                                                3.3624 kcal/mol
(6)  G-S(liq) free energy of system                     -378.754386500 a.u.
 SCF   energy in the final basis set =     -378.7543865000
 Total energy in the final basis set =     -378.7543865000
 
 --------------------------------------------------------------
 
                    Orbital Energies (a.u.)
 --------------------------------------------------------------
 
 Alpha MOs
 -- Occupied --
-19.4533 -19.4112 -19.3970 -19.3665 -10.4876 -10.4627  -1.3117  -1.2216
 -1.2091  -0.9494  -0.8663  -0.7163  -0.6822  -0.6339  -0.6131  -0.5952
 -0.5898  -0.5749  -0.5303  -0.5056  -0.4851  -0.4017  -0.3891  -0.3672
 -- Virtual --
  0.0010   0.0325   0.0439   0.0559   0.0739   0.0805   0.1020   0.1109
  0.1164   0.1332   0.1410   0.1651   0.1672   0.1820   0.2043   0.2241
  0.2319   0.2483   0.2670   0.2679   0.2742   0.2827   0.2936   0.2967
  0.3137   0.3193   0.3324   0.3449   0.3522   0.3635   0.3778   0.3942
  0.4146   0.4502   0.4509   0.4727   0.5620   0.5759   0.5949   0.6098
  0.6485   0.6598   0.6655   0.6773   0.6948   0.7352   0.8086   0.8172
  0.8333   0.9104   0.9578   0.9701   1.0082   1.0332   1.0569   1.0872
  1.0983   1.1089   1.1150   1.1309   1.1385   1.1584   1.1700   1.1792
  1.1927   1.2131   1.2388   1.2472   1.2926   1.3222   1.3412   1.3583
  1.3909   1.4059   1.4328   1.4801   1.4931   1.5310   1.5476   1.5611
  1.5991   1.6146   1.6664   1.6729   1.7356   1.7547   1.7989   1.8065
  1.9113   1.9494   2.0146   2.0824   2.1330   2.1720   2.2032   2.2667
  2.3062   2.3242   2.3388   2.4409   2.5007   2.5542   2.6712   2.6863
  2.7531   2.7902   2.8437   2.9364   2.9606   2.9754   3.0957   3.1007
  3.1320   3.1706   3.2197   3.2449   3.3036   3.3453   3.3993   3.4163
  3.4438   3.5334   3.5635   3.6175   3.6576   3.7036   3.7329   3.7790
  3.8071   3.8500   3.9430   3.9746   4.0599   4.1108   4.1582   4.2075
  4.2281   4.3299   4.4091   4.4997   4.5453   4.6089   4.6618   4.7017
  4.7391   4.7782   4.8534   5.0279   5.0644   5.0669   5.0987   5.1356
  5.1421   5.1562   5.1704   5.1808   5.1952   5.2075   5.2240   5.2296
  5.2536   5.2680   5.3001   5.3304   5.4165   5.4647   5.4873   5.5363
  5.5610   5.5747   5.6202   5.6517   5.6926   5.8526   5.9026   6.0599
  6.3780   6.4639   6.5146   6.5998   6.7335   6.7907   6.8403   6.9081
  6.9311   6.9728   6.9812   6.9978   7.0511   7.0940   7.1312   7.2432
  7.2658   7.2673   7.3184   7.3499   7.3757   7.4839   7.5596   7.6071
  7.7306   7.7464   7.9380   8.0057  24.5615  24.9187  50.3975  50.4557
 50.5371  50.6887
 
 Beta MOs
 -- Occupied --
-19.4405 -19.3973 -19.3928 -19.3665 -10.4886 -10.4628  -1.2816  -1.2216
 -1.2094  -0.9134  -0.8592  -0.7156  -0.6816  -0.6295  -0.6028  -0.5821
 -0.5602  -0.5309  -0.5182  -0.4977  -0.4814  -0.3992  -0.3475
 -- Virtual --
 -0.0185   0.0031   0.0329   0.0445   0.0563   0.0748   0.0811   0.1028
  0.1122   0.1168   0.1345   0.1415   0.1662   0.1674   0.1853   0.2067
  0.2253   0.2340   0.2548   0.2683   0.2690   0.2792   0.2856   0.2962
  0.3011   0.3151   0.3208   0.3334   0.3469   0.3531   0.3683   0.3779
  0.3955   0.4151   0.4508   0.4520   0.4730   0.5618   0.5758   0.5950
  0.6097   0.6482   0.6597   0.6657   0.6771   0.6947   0.7357   0.8086
  0.8172   0.8337   0.9104   0.9588   0.9709   1.0099   1.0362   1.0653
  1.0939   1.1014   1.1109   1.1289   1.1335   1.1504   1.1620   1.1763
  1.1862   1.1963   1.2297   1.2422   1.2491   1.2954   1.3234   1.3463
  1.3597   1.3914   1.4114   1.4520   1.4821   1.5036   1.5312   1.5497
  1.5830   1.6099   1.6159   1.6766   1.6893   1.7561   1.7568   1.8024
  1.8196   1.9126   1.9501   2.0190   2.0854   2.1370   2.1735   2.2188
  2.2800   2.3148   2.3326   2.3415   2.4416   2.5005   2.5539   2.6796
  2.6868   2.7528   2.7883   2.8434   2.9353   2.9600   2.9740   3.0931
  3.0991   3.1313   3.1685   3.2185   3.2431   3.3035   3.3432   3.3974
  3.4149   3.4431   3.5319   3.5589   3.6154   3.6544   3.7018   3.7308
  3.7779   3.8068   3.8480   3.9406   3.9734   4.0581   4.1093   4.1575
  4.2069   4.2271   4.3287   4.4077   4.4977   4.5844   4.6111   4.6739
  4.7014   4.7659   4.7992   4.8681   5.0881   5.1019   5.1122   5.1302
  5.1522   5.1570   5.1712   5.1816   5.2014   5.2136   5.2331   5.2521
  5.2572   5.2706   5.2806   5.3108   5.3335   5.4230   5.4674   5.4908
  5.5383   5.5632   5.5842   5.6375   5.6690   5.7018   5.8522   5.9022
  6.0596   6.3778   6.5123   6.5282   6.6015   6.7412   6.8613   6.9195
  6.9338   6.9666   6.9812   7.0192   7.0339   7.0649   7.1216   7.1442
  7.2542   7.2662   7.2788   7.3275   7.3565   7.4261   7.4858   7.5747
  7.6075   7.7306   7.7464   7.9528   8.0282  24.5606  24.9186  50.4104
 50.4660  50.5377  50.6887
 --------------------------------------------------------------
 
          Ground-State Mulliken Net Atomic Charges

     Atom                 Charge (a.u.)    Spin (a.u.)
  --------------------------------------------------------
      1 C                    -0.081235      -0.051123
      2 O                    -0.284375      -0.010321
      3 H                     0.277061       0.002052
      4 C                     0.182164       0.002211
      5 H                     0.200144      -0.001467
      6 O                    -0.338554      -0.000663
      7 H                     0.367582       0.000669
      8 O                    -0.080229       0.409950
      9 O                    -0.242558       0.648691
  --------------------------------------------------------
  Sum of atomic charges =     0.000000
  Sum of spin   charges =     1.000000

 -----------------------------------------------------------------
                    Cartesian Multipole Moments
 -----------------------------------------------------------------
    Charge (ESU x 10^10)
                 0.0000
    Dipole Moment (Debye)
         X       0.8362      Y      -6.7863      Z      -2.3751
       Tot       7.2384
    Quadrupole Moments (Debye-Ang)
        XX     -39.8631     XY       2.1879     YY     -38.1994
        XZ      -0.7020     YZ       1.4807     ZZ     -33.2406
    Octopole Moments (Debye-Ang^2)
       XXX       6.4000    XXY     -35.7444    XYY       0.8332
       YYY     -43.0279    XXZ      -4.1595    XYZ      -5.7753
       YYZ      -7.2888    XZZ       3.5596    YZZ     -10.1570
       ZZZ     -13.0987
    Hexadecapole Moments (Debye-Ang^3)
      XXXX    -452.2461   XXXY      33.3657   XXYY    -121.3286
      XYYY      45.6402   YYYY    -272.0546   XXXZ     -41.0736
      XXYZ       1.8639   XYYZ     -10.0521   YYYZ      11.5330
      XXZZ     -81.4826   XYZZ       7.8965   YYZZ     -56.1929
      XZZZ     -30.4245   YZZZ       9.7505   ZZZZ     -59.0042
 -----------------------------------------------------------------
 Calculating analytic gradient of the SCF energy
 Gradient of CDS energy
            1           2           3           4           5           6
    1  -0.0027312   0.0023342  -0.0001222   0.0018226  -0.0001450  -0.0006200
    2  -0.0044232   0.0044477   0.0000362   0.0014315  -0.0001933  -0.0010747
    3   0.0021689  -0.0024267  -0.0001091   0.0005135   0.0000253  -0.0001532
            7           8           9
    1  -0.0003094  -0.0002249  -0.0000040
    2  -0.0003794   0.0000205   0.0001346
    3  -0.0000279  -0.0000258   0.0000351
 Gradient of SCF Energy
            1           2           3           4           5           6
    1   0.0086783   0.0092559   0.0120038   0.0024040   0.0078494   0.0003803
    2   0.0097682  -0.0276745  -0.0186802  -0.0061011  -0.0118865   0.0086405
    3  -0.0008009   0.0262039  -0.0199540  -0.0102040   0.0026695   0.0026921
            7           8           9
    1  -0.0133200  -0.0074240  -0.0198277
    2  -0.0091280   0.0486714   0.0063901
    3  -0.0131849   0.0221484  -0.0095702
 Max gradient component =       4.867E-02
 RMS gradient           =       1.600E-02
 Computing fast CPCM-SWIG gradient
 Updating gradient with PCM contributions...
 -- total gradient after adding PCM contribution --
---------------------------------------------------
  Atom         X              Y              Z     
---------------------------------------------------
   1       0.010374       0.006422      -0.018638
   2      -0.005447      -0.034215       0.009935
   3       0.010922      -0.012408      -0.000784
   4       0.008606      -0.013124      -0.004309
   5       0.001088       0.000839       0.000460
   6      -0.001136       0.001150       0.000793
   7       0.002120       0.000872       0.001270
   8      -0.006821       0.047005       0.021715
   9      -0.019707       0.003460      -0.010443
---------------------------------------------------
 Number of fixed atoms: 0
 Gradient time:  CPU 61.26 s  wall 15.20 s
 ----------------------------------------------------------------
             Standard Nuclear Orientation (Angstroms)
    I     Atom           X                Y                Z
 ----------------------------------------------------------------
    1      C      -0.0467819000    -0.2834205000    -0.2067773000
    2      O      -0.6322274000    -1.3670698000     0.4157195000
    3      H      -0.0518470000    -0.3592164000    -1.2954774000
    4      C       1.3751126000    -0.1262203000     0.3010104000
    5      H       1.8949622000    -1.0730899000     0.5015316000
    6      O       1.8977899000     0.9480380000     0.4463101000
    7      H      -1.3651886000    -1.6875296000    -0.1236876000
    8      O      -0.9037600000     1.3341182000     0.1931480000
    9      O      -2.0484693000     1.3978704000    -0.4284248000
 ----------------------------------------------------------------
 Nuclear Repulsion Energy =         224.34758858 hartrees
 There are       24 alpha and       23 beta electrons
 Discretize the solute cavity surface with Lebedev spheres
	Using 110 Lebedev grid points for each H atom
	Using 194 Lebedev grid points for other atoms
	Atomic van der Waals radii will be scaled by 1.20
 Remove points where switching function is < 1.0e-08
 Keep 867 surface tesserae and discard 627 interior tesserae
 Molecular Surface Area = 106.454 Angst**2

                       Distance Matrix (Angstroms)
             C (  1)   O (  2)   H (  3)   C (  4)   H (  5)   O (  6)
   O (  2)  1.380052
   H (  3)  1.091347  2.069011
   C (  4)  1.518007  2.362685  2.153897
   H (  5)  2.212611  2.545678  2.743888  1.098642
   O (  6)  2.392566  3.429526  2.922982  1.203468  2.021884
   H (  7)  1.927854  0.964825  2.205079  3.182343  3.375947  4.232983
   O (  8)  1.873708  2.723910  2.410216  2.708779  3.704402  2.839336
   O (  9)  2.623475  3.219195  2.797434  3.817832  4.745642  4.066998
             H (  7)   O (  8)
   O (  8)  3.073053
   O (  9)  3.174812  1.304138
 
 Requested basis set is 6-311++G(2df,2p)
 There are 66 shells and 234 basis functions
 A cutoff of  1.0D-11 yielded   2031 shell pairs
 There are     25720 function pairs (     32653 Cartesian)
 Smallest overlap matrix eigenvalue = 9.12E-05
 Guess MOs from SCF MO coefficient file

 -----------------------------------------------------------------------
  General SCF calculation program by
  Eric Jon Sundstrom, Paul Horn, Yuezhi Mao, Dmitri Zuev, Alec White,
  David Stuck, Shaama M.S., Shane Yost, Joonho Lee, David Small,
  Daniel Levine, Susi Lehtola, Hugh Burton, Evgeny Epifanovsky,
  Bang C. Huynh
 -----------------------------------------------------------------------
 Exchange:     0.1500 Hartree-Fock + 1.0000 wB97M-V + LR-HF
 Correlation:  1.0000 wB97M-V
 Using SG-2 standard quadrature grid
 Nonlocal Correlation:  VV10 with C = 0.0100 and b = 6.00 and scale = 1.00000
 Grid used for NLC:  SG-1 standard quadrature
 
 Citation of the SMD model:
 Marenich, A.V.; Cramer, C.J.; Truhlar, D.G.
 J. Phys. Chem. B 2009, 113, 6378-6396.
 iSolventCode=           1
 Solvent: water                                                           
 
 vradii
            1           2           3           4           5           6
    1   1.8500000   1.5200000   1.2000000   1.8500000   1.2000000   1.5200000
            7           8           9
    1   1.2000000   1.5200000   1.5200000
 -------------------------------------------------------
 OpenMP BLAS3 based DFT computing Module                
 Release: version 1.0, May 2013, Q-Chem Inc. Pittsburgh 
 -------------------------------------------------------
 A unrestricted SCF calculation will be
 performed using Roothaan-Hall, DIIS, GDM
 SCF converges when RMS gradient is below 1.0e-06
 ---------------------------------------
  Cycle       Energy         DIIS error
 ---------------------------------------
    1    -378.7212337259      3.92e-04  Roothaan Step
 ---------------------------------------
  Cycle       Energy         DIIS error
 ---------------------------------------
    1    -378.7482947676      5.32e-04  
    2    -378.7512304803      6.62e-04  Done DIIS. Switching to GDM
 ---------------------------------------
  Cycle       Energy        RMS Gradient
 ---------------------------------------
    1    -378.7512304803      2.83e-02   Normal BFGS step
    2    -378.7458946779      4.66e-02  Line search: overstep
    3    -378.7593273789      3.58e-03   Normal BFGS step
    4    -378.7595870143      4.59e-03   Normal BFGS step
    5    -378.7596710050      1.60e-03   Normal BFGS step
    6    -378.7596922189      6.78e-04   Normal BFGS step
    7    -378.7596959757      6.87e-04   Normal BFGS step
    8    -378.7596975250      2.60e-04   Normal BFGS step
    9    -378.7596977820      8.79e-05   Normal BFGS step
   10    -378.7596978839      9.72e-05   Normal BFGS step
   11    -378.7596979052      5.44e-05   Normal BFGS step
   12    -378.7596979138      1.54e-05   Normal BFGS step
   13    -378.7596979160      9.37e-06   Normal BFGS step
   14    -378.7596979169      6.38e-06   Normal BFGS step
   15    -378.7596979173      3.95e-06   Normal BFGS step
   16    -378.7596979174      2.86e-06   Normal BFGS step
   17    -378.7596979174      2.56e-06   Normal BFGS step
   18    -378.7596979174      2.19e-06   Normal BFGS step
   19    -378.7596979174      1.07e-06   Normal BFGS step
   20    -378.7596979174      3.55e-07  Convergence criterion met
 ---------------------------------------
 SCF time:   CPU 614.72s  wall 134.00s 
<S^2> =          0.759774543
(3)  G-ENP(liq) elect-nuc-pol free energy of system     -378.759697917 a.u.
(4)  G-CDS(liq) cavity-dispersion-solvent structure 
     free energy                                                3.3539 kcal/mol
(6)  G-S(liq) free energy of system                     -378.754353087 a.u.
 SCF   energy in the final basis set =     -378.7543530869
 Total energy in the final basis set =     -378.7543530869
 
 --------------------------------------------------------------
 
                    Orbital Energies (a.u.)
 --------------------------------------------------------------
 
 Alpha MOs
 -- Occupied --
-19.4535 -19.4113 -19.3969 -19.3665 -10.4876 -10.4627  -1.3119  -1.2213
 -1.2089  -0.9495  -0.8665  -0.7163  -0.6819  -0.6340  -0.6131  -0.5954
 -0.5899  -0.5749  -0.5303  -0.5055  -0.4849  -0.4018  -0.3892  -0.3673
 -- Virtual --
  0.0009   0.0325   0.0439   0.0559   0.0739   0.0805   0.1020   0.1109
  0.1164   0.1332   0.1410   0.1651   0.1672   0.1820   0.2043   0.2241
  0.2319   0.2483   0.2669   0.2680   0.2741   0.2827   0.2936   0.2967
  0.3137   0.3192   0.3324   0.3448   0.3522   0.3634   0.3778   0.3944
  0.4146   0.4502   0.4508   0.4727   0.5620   0.5759   0.5950   0.6098
  0.6484   0.6596   0.6655   0.6774   0.6948   0.7353   0.8086   0.8173
  0.8333   0.9104   0.9579   0.9701   1.0082   1.0332   1.0570   1.0872
  1.0983   1.1089   1.1151   1.1310   1.1385   1.1584   1.1700   1.1793
  1.1926   1.2131   1.2389   1.2473   1.2925   1.3223   1.3411   1.3585
  1.3909   1.4060   1.4327   1.4801   1.4930   1.5310   1.5478   1.5610
  1.5992   1.6146   1.6665   1.6728   1.7355   1.7548   1.7986   1.8067
  1.9113   1.9493   2.0149   2.0819   2.1326   2.1721   2.2030   2.2666
  2.3059   2.3240   2.3388   2.4407   2.5008   2.5543   2.6711   2.6862
  2.7529   2.7901   2.8436   2.9363   2.9608   2.9756   3.0958   3.1009
  3.1320   3.1702   3.2200   3.2449   3.3036   3.3450   3.3989   3.4162
  3.4437   3.5334   3.5637   3.6177   3.6577   3.7034   3.7330   3.7795
  3.8069   3.8497   3.9434   3.9753   4.0606   4.1108   4.1584   4.2078
  4.2287   4.3305   4.4085   4.5010   4.5452   4.6098   4.6619   4.7022
  4.7392   4.7782   4.8534   5.0278   5.0643   5.0669   5.0985   5.1355
  5.1421   5.1562   5.1705   5.1809   5.1953   5.2074   5.2240   5.2295
  5.2535   5.2680   5.3000   5.3304   5.4163   5.4648   5.4872   5.5363
  5.5610   5.5740   5.6199   5.6513   5.6922   5.8517   5.9011   6.0586
  6.3779   6.4638   6.5146   6.5975   6.7333   6.7903   6.8402   6.9080
  6.9312   6.9729   6.9812   6.9977   7.0512   7.0940   7.1313   7.2431
  7.2656   7.2671   7.3184   7.3495   7.3756   7.4840   7.5597   7.6071
  7.7306   7.7462   7.9379   8.0056  24.5596  24.9198  50.3973  50.4556
 50.5366  50.6888
 
 Beta MOs
 -- Occupied --
-19.4407 -19.3971 -19.3930 -19.3665 -10.4886 -10.4627  -1.2817  -1.2213
 -1.2091  -0.9136  -0.8593  -0.7156  -0.6813  -0.6296  -0.6028  -0.5821
 -0.5602  -0.5309  -0.5182  -0.4976  -0.4812  -0.3993  -0.3476
 -- Virtual --
 -0.0186   0.0030   0.0329   0.0445   0.0563   0.0748   0.0811   0.1028
  0.1122   0.1168   0.1345   0.1416   0.1662   0.1674   0.1853   0.2067
  0.2252   0.2339   0.2548   0.2682   0.2691   0.2792   0.2856   0.2962
  0.3011   0.3152   0.3207   0.3334   0.3469   0.3531   0.3682   0.3780
  0.3956   0.4152   0.4508   0.4519   0.4730   0.5618   0.5758   0.5950
  0.6097   0.6481   0.6596   0.6657   0.6771   0.6946   0.7358   0.8086
  0.8173   0.8337   0.9104   0.9588   0.9708   1.0099   1.0363   1.0654
  1.0939   1.1014   1.1110   1.1289   1.1336   1.1504   1.1620   1.1763
  1.1862   1.1962   1.2297   1.2422   1.2492   1.2953   1.3235   1.3463
  1.3598   1.3914   1.4115   1.4520   1.4820   1.5035   1.5312   1.5498
  1.5830   1.6100   1.6159   1.6767   1.6892   1.7562   1.7568   1.8024
  1.8195   1.9126   1.9500   2.0193   2.0849   2.1366   2.1735   2.2187
  2.2797   2.3146   2.3324   2.3416   2.4414   2.5006   2.5540   2.6795
  2.6867   2.7527   2.7882   2.8434   2.9352   2.9602   2.9743   3.0933
  3.0992   3.1312   3.1682   3.2188   3.2430   3.3035   3.3430   3.3970
  3.4148   3.4430   3.5319   3.5590   3.6155   3.6545   3.7016   3.7309
  3.7783   3.8065   3.8478   3.9410   3.9741   4.0587   4.1093   4.1577
  4.2072   4.2277   4.3293   4.4071   4.4989   4.5843   4.6120   4.6740
  4.7019   4.7659   4.7991   4.8682   5.0881   5.1017   5.1121   5.1301
  5.1522   5.1570   5.1714   5.1816   5.2014   5.2136   5.2330   5.2520
  5.2571   5.2706   5.2806   5.3107   5.3335   5.4229   5.4675   5.4907
  5.5383   5.5632   5.5831   5.6373   5.6687   5.7016   5.8513   5.9008
  6.0583   6.3778   6.5122   6.5281   6.5992   6.7410   6.8610   6.9194
  6.9338   6.9665   6.9813   7.0191   7.0338   7.0650   7.1215   7.1442
  7.2539   7.2659   7.2789   7.3275   7.3562   7.4260   7.4858   7.5748
  7.6075   7.7306   7.7461   7.9528   8.0282  24.5588  24.9197  50.4102
 50.4658  50.5373  50.6888
 --------------------------------------------------------------
 
          Ground-State Mulliken Net Atomic Charges

     Atom                 Charge (a.u.)    Spin (a.u.)
  --------------------------------------------------------
      1 C                    -0.080976      -0.051202
      2 O                    -0.285447      -0.010290
      3 H                     0.277095       0.002062
      4 C                     0.182188       0.002225
      5 H                     0.200246      -0.001469
      6 O                    -0.338609      -0.000678
      7 H                     0.367524       0.000670
      8 O                    -0.079850       0.409823
      9 O                    -0.242172       0.648859
  --------------------------------------------------------
  Sum of atomic charges =     0.000000
  Sum of spin   charges =     1.000000

 -----------------------------------------------------------------
                    Cartesian Multipole Moments
 -----------------------------------------------------------------
    Charge (ESU x 10^10)
                 0.0000
    Dipole Moment (Debye)
         X       0.8361      Y      -6.7741      Z      -2.3778
       Tot       7.2278
    Quadrupole Moments (Debye-Ang)
        XX     -39.8550     XY       2.1743     YY     -38.2019
        XZ      -0.6980     YZ       1.4821     ZZ     -33.2410
    Octopole Moments (Debye-Ang^2)
       XXX       6.3692    XXY     -35.7288    XYY       0.8215
       YYY     -42.9984    XXZ      -4.1664    XYZ      -5.7751
       YYZ      -7.2946    XZZ       3.5539    YZZ     -10.1547
       ZZZ     -13.1049
    Hexadecapole Moments (Debye-Ang^3)
      XXXX    -452.1665   XXXY      33.3095   XXYY    -121.2977
      XYYY      45.5969   YYYY    -272.0463   XXXZ     -41.0552
      XXYZ       1.8570   XYYZ     -10.0425   YYYZ      11.5381
      XXZZ     -81.4771   XYZZ       7.8885   YYZZ     -56.1916
      XZZZ     -30.4129   YZZZ       9.7596   ZZZZ     -59.0043
 -----------------------------------------------------------------
 Calculating analytic gradient of the SCF energy
 Gradient of CDS energy
            1           2           3           4           5           6
    1  -0.0027328   0.0023392  -0.0001229   0.0018207  -0.0001453  -0.0006199
    2  -0.0044256   0.0044550   0.0000356   0.0014306  -0.0001939  -0.0010748
    3   0.0021691  -0.0024283  -0.0001093   0.0005139   0.0000254  -0.0001532
            7           8           9
    1  -0.0003098  -0.0002251  -0.0000041
    2  -0.0003811   0.0000200   0.0001342
    3  -0.0000273  -0.0000254   0.0000352
 Gradient of SCF Energy
            1           2           3           4           5           6
    1   0.0098050   0.0088745   0.0118414   0.0020734   0.0078734   0.0002811
    2   0.0104679  -0.0280466  -0.0187764  -0.0061763  -0.0118854   0.0085662
    3  -0.0007571   0.0262591  -0.0199978  -0.0102699   0.0026655   0.0026473
            7           8           9
    1  -0.0133455  -0.0074836  -0.0199197
    2  -0.0092182   0.0486326   0.0064362
    3  -0.0131124   0.0221539  -0.0095886
 Max gradient component =       4.863E-02
 RMS gradient           =       1.607E-02
 Computing fast CPCM-SWIG gradient
 Updating gradient with PCM contributions...
 -- total gradient after adding PCM contribution --
---------------------------------------------------
  Atom         X              Y              Z     
---------------------------------------------------
   1       0.011461       0.007106      -0.018587
   2      -0.005793      -0.034579       0.010009
   3       0.010794      -0.012483      -0.000835
   4       0.008276      -0.013195      -0.004379
   5       0.001108       0.000834       0.000457
   6      -0.001241       0.001070       0.000747
   7       0.002071       0.000763       0.001330
   8      -0.006877       0.046968       0.021721
   9      -0.019800       0.003515      -0.010463
---------------------------------------------------
 Number of fixed atoms: 0
 Gradient time:  CPU 56.97 s  wall 13.09 s
 ----------------------------------------------------------------
             Standard Nuclear Orientation (Angstroms)
    I     Atom           X                Y                Z
 ----------------------------------------------------------------
    1      C      -0.0467819000    -0.2854205000    -0.2067773000
    2      O      -0.6322274000    -1.3670698000     0.4157195000
    3      H      -0.0518470000    -0.3592164000    -1.2954774000
    4      C       1.3751126000    -0.1262203000     0.3010104000
    5      H       1.8949622000    -1.0730899000     0.5015316000
    6      O       1.8977899000     0.9480380000     0.4463101000
    7      H      -1.3651886000    -1.6875296000    -0.1236876000
    8      O      -0.9037600000     1.3341182000     0.1931480000
    9      O      -2.0484693000     1.3978704000    -0.4284248000
 ----------------------------------------------------------------
 Nuclear Repulsion Energy =         224.34711967 hartrees
 There are       24 alpha and       23 beta electrons
 Discretize the solute cavity surface with Lebedev spheres
	Using 110 Lebedev grid points for each H atom
	Using 194 Lebedev grid points for other atoms
	Atomic van der Waals radii will be scaled by 1.20
 Remove points where switching function is < 1.0e-08
 Keep 867 surface tesserae and discard 627 interior tesserae
 Molecular Surface Area = 106.453 Angst**2

                       Distance Matrix (Angstroms)
             C (  1)   O (  2)   H (  3)   C (  4)   H (  5)   O (  6)
   O (  2)  1.378482
   H (  3)  1.091210  2.069011
   C (  4)  1.518215  2.362685  2.153897
   H (  5)  2.211898  2.545678  2.743888  1.098642
   O (  6)  2.393596  3.429526  2.922982  1.203468  2.021884
   H (  7)  1.926398  0.964825  2.205079  3.182343  3.375947  4.232983
   O (  8)  1.875435  2.723910  2.410216  2.708779  3.704402  2.839336
   O (  9)  2.624757  3.219195  2.797434  3.817832  4.745642  4.066998
             H (  7)   O (  8)
   O (  8)  3.073053
   O (  9)  3.174812  1.304138
 
 Requested basis set is 6-311++G(2df,2p)
 There are 66 shells and 234 basis functions
 A cutoff of  1.0D-11 yielded   2031 shell pairs
 There are     25720 function pairs (     32653 Cartesian)
 Smallest overlap matrix eigenvalue = 9.12E-05
 Guess MOs from SCF MO coefficient file

 -----------------------------------------------------------------------
  General SCF calculation program by
  Eric Jon Sundstrom, Paul Horn, Yuezhi Mao, Dmitri Zuev, Alec White,
  David Stuck, Shaama M.S., Shane Yost, Joonho Lee, David Small,
  Daniel Levine, Susi Lehtola, Hugh Burton, Evgeny Epifanovsky,
  Bang C. Huynh
 -----------------------------------------------------------------------
 Exchange:     0.1500 Hartree-Fock + 1.0000 wB97M-V + LR-HF
 Correlation:  1.0000 wB97M-V
 Using SG-2 standard quadrature grid
 Nonlocal Correlation:  VV10 with C = 0.0100 and b = 6.00 and scale = 1.00000
 Grid used for NLC:  SG-1 standard quadrature
 
 Citation of the SMD model:
 Marenich, A.V.; Cramer, C.J.; Truhlar, D.G.
 J. Phys. Chem. B 2009, 113, 6378-6396.
 iSolventCode=           1
 Solvent: water                                                           
 
 vradii
            1           2           3           4           5           6
    1   1.8500000   1.5200000   1.2000000   1.8500000   1.2000000   1.5200000
            7           8           9
    1   1.2000000   1.5200000   1.5200000
 -------------------------------------------------------
 OpenMP BLAS3 based DFT computing Module                
 Release: version 1.0, May 2013, Q-Chem Inc. Pittsburgh 
 -------------------------------------------------------
 A unrestricted SCF calculation will be
 performed using Roothaan-Hall, DIIS, GDM
 SCF converges when RMS gradient is below 1.0e-06
 ---------------------------------------
  Cycle       Energy         DIIS error
 ---------------------------------------
    1    -378.7212837894      3.91e-04  Roothaan Step
 ---------------------------------------
  Cycle       Energy         DIIS error
 ---------------------------------------
    1    -378.7483128450      5.32e-04  
    2    -378.7512649548      6.62e-04  Done DIIS. Switching to GDM
 ---------------------------------------
  Cycle       Energy        RMS Gradient
 ---------------------------------------
    1    -378.7512649548      2.82e-02   Normal BFGS step
    2    -378.7459201177      4.66e-02  Line search: overstep
    3    -378.7593637154      3.68e-03   Normal BFGS step
    4    -378.7596262588      4.66e-03   Normal BFGS step
    5    -378.7597126978      1.56e-03   Normal BFGS step
    6    -378.7597340487      6.95e-04   Normal BFGS step
    7    -378.7597379087      6.89e-04   Normal BFGS step
    8    -378.7597394788      2.63e-04   Normal BFGS step
    9    -378.7597397434      8.86e-05   Normal BFGS step
   10    -378.7597398450      9.65e-05   Normal BFGS step
   11    -378.7597398659      5.37e-05   Normal BFGS step
   12    -378.7597398742      1.58e-05   Normal BFGS step
   13    -378.7597398763      1.16e-05   Normal BFGS step
   14    -378.7597398771      8.07e-06   Normal BFGS step
   15    -378.7597398776      3.53e-06   Normal BFGS step
   16    -378.7597398776      2.83e-06   Normal BFGS step
   17    -378.7597398776      2.44e-06   Normal BFGS step
   18    -378.7597398776      1.89e-06   Normal BFGS step
   19    -378.7597398776      1.01e-06   Normal BFGS step
   20    -378.7597398776      3.79e-07  Convergence criterion met
 ---------------------------------------
 SCF time:   CPU 609.34s  wall 127.00s 
<S^2> =          0.759833994
(3)  G-ENP(liq) elect-nuc-pol free energy of system     -378.759739878 a.u.
(4)  G-CDS(liq) cavity-dispersion-solvent structure 
     free energy                                                3.3644 kcal/mol
(6)  G-S(liq) free energy of system                     -378.754378330 a.u.
 SCF   energy in the final basis set =     -378.7543783298
 Total energy in the final basis set =     -378.7543783298
 
 --------------------------------------------------------------
 
                    Orbital Energies (a.u.)
 --------------------------------------------------------------
 
 Alpha MOs
 -- Occupied --
-19.4532 -19.4111 -19.3972 -19.3666 -10.4876 -10.4627  -1.3116  -1.2217
 -1.2092  -0.9492  -0.8666  -0.7163  -0.6824  -0.6339  -0.6130  -0.5951
 -0.5898  -0.5749  -0.5304  -0.5057  -0.4852  -0.4017  -0.3890  -0.3671
 -- Virtual --
  0.0009   0.0325   0.0439   0.0559   0.0739   0.0804   0.1020   0.1109
  0.1164   0.1333   0.1410   0.1651   0.1672   0.1820   0.2043   0.2241
  0.2320   0.2483   0.2670   0.2680   0.2743   0.2827   0.2937   0.2967
  0.3137   0.3194   0.3324   0.3449   0.3523   0.3635   0.3778   0.3943
  0.4147   0.4503   0.4510   0.4727   0.5620   0.5758   0.5949   0.6098
  0.6485   0.6597   0.6656   0.6774   0.6948   0.7354   0.8085   0.8171
  0.8333   0.9103   0.9577   0.9702   1.0082   1.0332   1.0568   1.0871
  1.0983   1.1090   1.1151   1.1309   1.1385   1.1583   1.1699   1.1794
  1.1928   1.2131   1.2388   1.2472   1.2929   1.3224   1.3413   1.3585
  1.3910   1.4058   1.4327   1.4803   1.4931   1.5311   1.5476   1.5612
  1.5991   1.6144   1.6663   1.6730   1.7356   1.7546   1.7990   1.8065
  1.9114   1.9493   2.0144   2.0826   2.1332   2.1720   2.2033   2.2669
  2.3061   2.3244   2.3389   2.4410   2.5008   2.5541   2.6714   2.6871
  2.7530   2.7901   2.8436   2.9365   2.9608   2.9757   3.0955   3.1005
  3.1321   3.1703   3.2196   3.2451   3.3034   3.3447   3.3991   3.4162
  3.4441   3.5332   3.5632   3.6171   3.6573   3.7038   3.7331   3.7792
  3.8073   3.8504   3.9435   3.9752   4.0603   4.1113   4.1583   4.2076
  4.2283   4.3309   4.4097   4.5004   4.5454   4.6091   4.6619   4.7022
  4.7391   4.7781   4.8532   5.0279   5.0644   5.0669   5.0987   5.1356
  5.1421   5.1562   5.1703   5.1808   5.1950   5.2075   5.2239   5.2295
  5.2536   5.2680   5.3001   5.3302   5.4165   5.4647   5.4871   5.5365
  5.5612   5.5751   5.6204   5.6516   5.6927   5.8526   5.9031   6.0611
  6.3783   6.4640   6.5146   6.6007   6.7341   6.7908   6.8403   6.9082
  6.9312   6.9728   6.9809   6.9976   7.0510   7.0941   7.1314   7.2430
  7.2659   7.2673   7.3184   7.3498   7.3758   7.4840   7.5592   7.6073
  7.7307   7.7465   7.9380   8.0057  24.5628  24.9196  50.3975  50.4557
 50.5371  50.6888
 
 Beta MOs
 -- Occupied --
-19.4403 -19.3975 -19.3927 -19.3666 -10.4886 -10.4628  -1.2814  -1.2218
 -1.2095  -0.9133  -0.8594  -0.7156  -0.6818  -0.6296  -0.6028  -0.5821
 -0.5601  -0.5309  -0.5182  -0.4977  -0.4816  -0.3993  -0.3473
 -- Virtual --
 -0.0184   0.0029   0.0329   0.0445   0.0563   0.0748   0.0810   0.1028
  0.1122   0.1168   0.1346   0.1415   0.1662   0.1674   0.1852   0.2067
  0.2252   0.2340   0.2548   0.2683   0.2691   0.2792   0.2856   0.2962
  0.3012   0.3152   0.3209   0.3334   0.3469   0.3531   0.3683   0.3780
  0.3955   0.4152   0.4509   0.4521   0.4730   0.5618   0.5757   0.5950
  0.6097   0.6482   0.6596   0.6657   0.6771   0.6947   0.7359   0.8085
  0.8172   0.8337   0.9103   0.9587   0.9709   1.0099   1.0361   1.0652
  1.0938   1.1014   1.1110   1.1289   1.1335   1.1504   1.1620   1.1763
  1.1863   1.1963   1.2298   1.2422   1.2491   1.2956   1.3237   1.3465
  1.3599   1.3915   1.4113   1.4520   1.4822   1.5036   1.5313   1.5496
  1.5831   1.6099   1.6156   1.6766   1.6893   1.7561   1.7568   1.8026
  1.8195   1.9127   1.9501   2.0188   2.0856   2.1371   2.1734   2.2189
  2.2801   2.3147   2.3327   2.3416   2.4417   2.5006   2.5538   2.6800
  2.6873   2.7527   2.7882   2.8433   2.9354   2.9602   2.9743   3.0929
  3.0989   3.1314   3.1682   3.2184   3.2432   3.3033   3.3426   3.3972
  3.4148   3.4434   3.5317   3.5585   3.6150   3.6541   3.7020   3.7309
  3.7780   3.8069   3.8484   3.9411   3.9740   4.0584   4.1098   4.1576
  4.2070   4.2272   4.3297   4.4082   4.4983   4.5845   4.6113   4.6740
  4.7019   4.7659   4.7991   4.8679   5.0880   5.1019   5.1122   5.1303
  5.1522   5.1570   5.1712   5.1815   5.2014   5.2136   5.2332   5.2521
  5.2571   5.2706   5.2806   5.3109   5.3333   5.4231   5.4676   5.4904
  5.5384   5.5634   5.5846   5.6376   5.6691   5.7017   5.8522   5.9027
  6.0607   6.3781   6.5124   6.5282   6.6024   6.7420   6.8613   6.9195
  6.9338   6.9667   6.9813   7.0191   7.0336   7.0648   7.1218   7.1443
  7.2541   7.2663   7.2787   7.3274   7.3565   7.4262   7.4858   7.5743
  7.6077   7.7307   7.7465   7.9529   8.0282  24.5619  24.9195  50.4104
 50.4660  50.5378  50.6888
 --------------------------------------------------------------
 
          Ground-State Mulliken Net Atomic Charges

     Atom                 Charge (a.u.)    Spin (a.u.)
  --------------------------------------------------------
      1 C                    -0.080863      -0.051380
      2 O                    -0.283965      -0.010394
      3 H                     0.277081       0.002059
      4 C                     0.182286       0.002235
      5 H                     0.200058      -0.001478
      6 O                    -0.338567      -0.000688
      7 H                     0.367643       0.000669
      8 O                    -0.080721       0.410547
      9 O                    -0.242953       0.648429
  --------------------------------------------------------
  Sum of atomic charges =     0.000000
  Sum of spin   charges =     1.000000

 -----------------------------------------------------------------
                    Cartesian Multipole Moments
 -----------------------------------------------------------------
    Charge (ESU x 10^10)
                 0.0000
    Dipole Moment (Debye)
         X       0.8415      Y      -6.7962      Z      -2.3747
       Tot       7.2481
    Quadrupole Moments (Debye-Ang)
        XX     -39.8690     XY       2.2002     YY     -38.2001
        XZ      -0.7038     YZ       1.4807     ZZ     -33.2392
    Octopole Moments (Debye-Ang^2)
       XXX       6.4106    XXY     -35.7553    XYY       0.8375
       YYY     -43.0442    XXZ      -4.1554    XYZ      -5.7747
       YYZ      -7.2875    XZZ       3.5571    YZZ     -10.1576
       ZZZ     -13.0978
    Hexadecapole Moments (Debye-Ang^3)
      XXXX    -452.2882   XXXY      33.4282   XXYY    -121.3449
      XYYY      45.6837   YYYY    -272.0885   XXXZ     -41.0818
      XXYZ       1.8682   XYYZ     -10.0550   YYYZ      11.5301
      XXZZ     -81.4859   XYZZ       7.9079   YYZZ     -56.1987
      XZZZ     -30.4241   YZZZ       9.7465   ZZZZ     -58.9994
 -----------------------------------------------------------------
 Calculating analytic gradient of the SCF energy
 Gradient of CDS energy
            1           2           3           4           5           6
    1  -0.0027328   0.0023371  -0.0001229   0.0018215  -0.0001449  -0.0006200
    2  -0.0044194   0.0044417   0.0000368   0.0014326  -0.0001933  -0.0010748
    3   0.0021680  -0.0024252  -0.0001091   0.0005135   0.0000252  -0.0001532
            7           8           9
    1  -0.0003094  -0.0002248  -0.0000038
    2  -0.0003787   0.0000206   0.0001344
    3  -0.0000282  -0.0000257   0.0000347
 Gradient of SCF Energy
            1           2           3           4           5           6
    1   0.0093044   0.0091058   0.0118921   0.0020674   0.0077936   0.0004337
    2   0.0095633  -0.0275519  -0.0185949  -0.0058963  -0.0119080   0.0086153
    3  -0.0006181   0.0261609  -0.0199665  -0.0102952   0.0026385   0.0027072
            7           8           9
    1  -0.0133431  -0.0073880  -0.0198658
    2  -0.0091687   0.0485124   0.0064288
    3  -0.0131629   0.0221129  -0.0095767
 Max gradient component =       4.851E-02
 RMS gradient           =       1.597E-02
 Computing fast CPCM-SWIG gradient
 Updating gradient with PCM contributions...
 -- total gradient after adding PCM contribution --
---------------------------------------------------
  Atom         X              Y              Z     
---------------------------------------------------
   1       0.010947       0.006252      -0.018461
   2      -0.005588      -0.034103       0.009885
   3       0.010839      -0.012341      -0.000777
   4       0.008263      -0.012942      -0.004407
   5       0.001033       0.000829       0.000428
[...]
 ---------------------------------------
 SCF time:   CPU 487.75s  wall 62.00s 
<S^2> =          1.332890345
(3)  G-ENP(liq) elect-nuc-pol free energy of system     -378.763228550 a.u.
(4)  G-CDS(liq) cavity-dispersion-solvent structure 
     free energy                                                3.6274 kcal/mol
(6)  G-S(liq) free energy of system                     -378.757447984 a.u.
 SCF   energy in the final basis set =     -378.7574479836
 Total energy in the final basis set =     -378.7574479836
 
 --------------------------------------------------------------
 
                    Orbital Energies (a.u.)
 --------------------------------------------------------------
 
 Alpha MOs
 -- Occupied --
-19.4751 -19.4553 -19.4007 -19.3358 -10.4351 -10.4348  -1.4026  -1.2311
 -1.1743  -0.9487  -0.8592  -0.7082  -0.6888  -0.6568  -0.6500  -0.6402
 -0.6035  -0.5568  -0.5228  -0.4979  -0.4785  -0.3960  -0.3911  -0.3782
 -- Virtual --
 -0.0145   0.0331   0.0449   0.0527   0.0874   0.0919   0.1009   0.1140
  0.1342   0.1368   0.1502   0.1591   0.1741   0.1821   0.2000   0.2299
  0.2389   0.2472   0.2620   0.2761   0.2832   0.2882   0.3108   0.3198
  0.3267   0.3334   0.3419   0.3518   0.3576   0.3927   0.4057   0.4106
  0.4312   0.4429   0.4793   0.4995   0.5698   0.5804   0.6186   0.6202
  0.6561   0.6765   0.6823   0.7189   0.7371   0.7624   0.8144   0.8310
  0.8483   0.8846   0.9185   0.9499   0.9971   1.0234   1.0511   1.0654
  1.0897   1.1016   1.1223   1.1313   1.1331   1.1559   1.1714   1.1811
  1.1980   1.2083   1.2416   1.2665   1.2746   1.2903   1.3390   1.3765
  1.4139   1.4406   1.4637   1.4917   1.4971   1.5389   1.5710   1.5804
  1.6030   1.6469   1.6679   1.7156   1.7855   1.7903   1.8167   1.8471
  1.9314   1.9556   2.0131   2.0618   2.1465   2.2568   2.3123   2.3294
  2.3426   2.3799   2.4180   2.5154   2.5459   2.6157   2.6477   2.7349
  2.7606   2.7958   2.8465   2.9477   2.9766   3.0477   3.0590   3.1171
  3.1297   3.1877   3.2456   3.3109   3.3531   3.3712   3.3864   3.4276
  3.4881   3.5381   3.5672   3.5945   3.6351   3.6872   3.7459   3.7603
  3.8048   3.9057   3.9421   4.0055   4.0913   4.2182   4.2469   4.3124
  4.3344   4.3499   4.4523   4.5175   4.5666   4.6112   4.6276   4.6468
  4.8148   4.8278   4.9539   4.9611   4.9655   5.0147   5.0719   5.1208
  5.1436   5.1643   5.1755   5.1817   5.1890   5.2192   5.2301   5.2486
  5.2610   5.2789   5.3110   5.3285   5.3674   5.5152   5.5561   5.5609
  5.6490   5.6969   5.7311   5.7359   5.7969   5.8435   6.0060   6.3067
  6.3601   6.6904   6.7361   6.7704   6.7822   6.7873   6.8555   6.8945
  6.9515   6.9623   6.9822   6.9942   7.0299   7.0456   7.1043   7.1557
  7.2742   7.3048   7.3266   7.3572   7.3742   7.4669   7.5412   7.7113
  7.7649   7.7955   8.0902   8.1311  24.7465  25.0874  50.4554  50.5050
 50.6015  50.6997
 
 Beta MOs
 -- Occupied --
-19.4488 -19.4296 -19.4040 -19.3410 -10.4414 -10.4347  -1.3541  -1.2386
 -1.1829  -0.8914  -0.8583  -0.7125  -0.6932  -0.6195  -0.6089  -0.5921
 -0.5625  -0.5511  -0.5231  -0.5056  -0.4987  -0.3873  -0.3009
 -- Virtual --
 -0.0206  -0.0086   0.0331   0.0448   0.0527   0.0861   0.0910   0.0943
  0.1144   0.1276   0.1365   0.1502   0.1601   0.1712   0.1819   0.2013
  0.2329   0.2381   0.2491   0.2616   0.2764   0.2832   0.2892   0.3122
  0.3215   0.3302   0.3347   0.3413   0.3522   0.3681   0.3999   0.4083
  0.4163   0.4270   0.4445   0.4788   0.4970   0.5669   0.5770   0.6130
  0.6176   0.6564   0.6726   0.6760   0.7133   0.7301   0.7549   0.8149
  0.8306   0.8443   0.8826   0.9121   0.9495   0.9995   1.0319   1.0569
  1.0754   1.0895   1.1120   1.1318   1.1382   1.1415   1.1645   1.1720
  1.1794   1.2062   1.2234   1.2436   1.2735   1.2830   1.2946   1.3385
  1.3785   1.4125   1.4522   1.4830   1.4985   1.5165   1.5546   1.5792
  1.5963   1.6028   1.6464   1.6811   1.7330   1.7841   1.7957   1.8168
  1.8786   1.9276   1.9523   2.0176   2.0561   2.1395   2.2548   2.3209
  2.3455   2.3718   2.3934   2.4152   2.5145   2.5406   2.6299   2.6393
  2.7107   2.7514   2.7837   2.8347   2.9236   2.9659   3.0280   3.0420
  3.0953   3.1182   3.1735   3.2268   3.2989   3.3384   3.3551   3.3656
  3.4105   3.4748   3.5230   3.5506   3.5733   3.6130   3.6677   3.7315
  3.7543   3.7956   3.8920   3.9369   3.9932   4.0843   4.2151   4.2415
  4.2961   4.3215   4.3228   4.4428   4.5137   4.6138   4.6477   4.6705
  4.6870   4.7978   4.8163   4.9884   5.0223   5.0276   5.1047   5.1247
  5.1540   5.1612   5.1691   5.1936   5.2090   5.2228   5.2444   5.2500
  5.2643   5.2772   5.2913   5.3313   5.3554   5.3636   5.5021   5.5456
  5.5472   5.6404   5.6841   5.7745   5.7849   5.7880   5.8386   5.9934
  6.2940   6.3532   6.7063   6.8191   6.8371   6.8422   6.8697   6.8943
  6.9377   6.9836   6.9955   7.0245   7.0383   7.0573   7.0710   7.1497
  7.1851   7.2724   7.3012   7.3173   7.3437   7.4194   7.5008   7.5360
  7.7040   7.7550   7.7911   8.1179   8.1722  24.7428  25.0842  50.4752
 50.5240  50.6006  50.6962
 --------------------------------------------------------------
 
          Ground-State Mulliken Net Atomic Charges

     Atom                 Charge (a.u.)    Spin (a.u.)
  --------------------------------------------------------
      1 C                    -0.146766      -0.426799
      2 O                    -0.232551      -0.096792
      3 H                     0.285764       0.012488
      4 C                     0.052647      -0.025888
      5 H                     0.208546       0.002614
      6 O                    -0.449879      -0.179789
      7 H                     0.370533       0.000911
      8 O                    -0.010004       0.853164
      9 O                    -0.078290       0.860091
  --------------------------------------------------------
  Sum of atomic charges =     0.000000
  Sum of spin   charges =     1.000000

 -----------------------------------------------------------------
                    Cartesian Multipole Moments
 -----------------------------------------------------------------
    Charge (ESU x 10^10)
                 0.0000
    Dipole Moment (Debye)
         X      -3.6796      Y      -4.2008      Z      -1.5764
       Tot       5.8027
    Quadrupole Moments (Debye-Ang)
        XX     -43.0909     XY      -0.0340     YY     -34.4847
        XZ       5.3892     YZ       2.7587     ZZ     -30.9766
    Octopole Moments (Debye-Ang^2)
       XXX     -32.3863    XXY     -23.1049    XYY      -8.1405
       YYY     -20.9518    XXZ      -2.5293    XYZ      -2.1212
       YYZ      -5.8025    XZZ      -1.4962    YZZ      -7.0229
       ZZZ      -7.7105
    Hexadecapole Moments (Debye-Ang^3)
      XXXX    -490.7456   XXXY       7.1806   XXYY    -104.2465
      XYYY      22.7499   YYYY    -210.6770   XXXZ      30.8128
      XXYZ      -0.1295   XYYZ      11.9528   YYYZ      -2.5785
      XXZZ     -81.6611   XYZZ       4.4261   YYZZ     -46.0911
      XZZZ      21.4404   YZZZ      -7.2843   ZZZZ     -60.6301
 -----------------------------------------------------------------
 Calculating analytic gradient of the SCF energy
 Gradient of CDS energy
            1           2           3           4           5           6
    1  -0.0020344   0.0017216  -0.0000852   0.0024367  -0.0001554  -0.0013648
    2  -0.0021527   0.0017873   0.0001913   0.0013642  -0.0001194  -0.0009588
    3   0.0006720  -0.0010470  -0.0000741  -0.0001683   0.0000667   0.0006431
            7           8           9
    1  -0.0003156  -0.0002121   0.0000092
    2  -0.0002804   0.0000345   0.0001339
    3  -0.0000904  -0.0000346   0.0000326
 Gradient of SCF Energy
            1           2           3           4           5           6
    1   0.0034740   0.0151873  -0.0044360   0.0018617  -0.0012737   0.0028574
    2  -0.0028874   0.0069786   0.0009839   0.0024872  -0.0026549   0.0026821
    3   0.0147787   0.0183343  -0.0162146  -0.0056079   0.0051961  -0.0001089
            7           8           9
    1  -0.0180260   0.0020502  -0.0016949
    2  -0.0078334   0.0009335  -0.0006896
    3  -0.0168290  -0.0007690   0.0012204
 Max gradient component =       1.833E-02
 RMS gradient           =       8.411E-03
 Computing fast CPCM-SWIG gradient
 Updating gradient with PCM contributions...
 -- total gradient after adding PCM contribution --
---------------------------------------------------
  Atom         X              Y              Z     
---------------------------------------------------
   1      -0.000019      -0.000037       0.000007
   2       0.000021       0.000008      -0.000017
   3      -0.000003       0.000011      -0.000004
   4       0.000022       0.000040       0.000005
   5      -0.000004       0.000008       0.000000
   6      -0.000019       0.000006       0.000012
   7       0.000010      -0.000012      -0.000006
   8       0.000010      -0.000001      -0.000001
   9      -0.000017      -0.000023       0.000003
---------------------------------------------------
 Number of fixed atoms: 0
 Gradient time:  CPU 58.51 s  wall 8.71 s
 Geometry Optimization Parameters
   NAtoms,    NIC,     NZ,  NCons,   NDum,   NFix, NCnnct, MaxDiis
        9      49       0       0       0       0       0       0

 Cartesian Hessian Update
 Hessian updated using Powell/Murtagh-Sargent update
  Mixing factors:     0.999881 Powell                      0.000119 Murtagh-Sargent


** GEOMETRY OPTIMIZATION IN DELOCALIZED INTERNAL COORDINATES **
   Searching for a Transition State

   Optimization Cycle:  66

                       Coordinates (Angstroms)
     ATOM                X               Y               Z
      1  C         0.1530048957   -0.5140473525   -0.4508835185
      2  O        -0.7103897910   -1.3168677804    0.1401348939
      3  H         0.0816042768   -0.3331649070   -1.5144648807
      4  C         1.2924018927   -0.0917889656    0.3112877040
      5  H         1.3092800803   -0.4020378528    1.3647405136
      6  O         2.1850572505    0.6036112494   -0.1718117140
      7  H        -1.4123188410   -1.5819600205   -0.4703542325
      8  O        -0.8572008767    1.3834619275    0.0559111468
      9  O        -1.9218483872    1.0352738021    0.5387925874
   Point Group: c1    Number of degrees of freedom:    21


   Energy is   -378.757447984

 Hessian updated using Powell/Murtagh-Sargent update
  Mixing factors:     0.998618 Powell                      0.001382 Murtagh-Sargent

 21 Hessian modes will be used to form the next step
  Hessian Eigenvalues:
    -0.021454    0.006498    0.008001    0.012322    0.045417    0.054761
     0.066562    0.084060    0.124397    0.142864    0.161000    0.179956
     0.197360    0.234297    0.269978    0.325623    0.343359    0.378971
     0.456273    0.524149    0.870257

 Transition state search - taking P-RFO step
 Searching for Lamda that Maximizes Along the Lowest mode
 Value Taken    Lamda =   0.00000000
 Searching for Lamda that Minimizes Along All other modes
 Value Taken    Lamda =  -0.00000002
 Step Taken.  Stepsize is  0.000568

                             Maximum     Tolerance    Cnvgd?
         Gradient           0.000024      0.000300     YES
         Displacement       0.000280      0.001200     YES
         Energy change     -0.000001      0.000001     YES


                       Distance Matrix (Angstroms)
             C (  1)   O (  2)   H (  3)   C (  4)   H (  5)   O (  6)
   O (  2)  1.318815
   H (  3)  1.081213  2.081496
   C (  4)  1.434375  2.353994  2.204011
   H (  5)  2.155460  2.532911  3.130775  1.098318
   O (  6)  2.335868  3.488433  2.665480  1.230366  2.034529
   H (  7)  1.895008  0.967303  2.209403  3.185449  3.488107  4.219830
   O (  8)  2.208596  2.705629  2.508833  2.619613  3.097529  3.148866
   O (  9)  2.772160  2.675655  3.178414  3.413713  3.631562  4.190223
             H (  7)   O (  8)
   O (  8)  3.062489
   O (  9)  2.850949  1.219788
 
 Final energy is   -378.757447983632     


 ******************************
 **  OPTIMIZATION CONVERGED  **
 ******************************

                       Coordinates (Angstroms)
     ATOM                X               Y               Z
      1  C         0.1530048957   -0.5140473525   -0.4508835185
      2  O        -0.7103897910   -1.3168677804    0.1401348939
      3  H         0.0816042768   -0.3331649070   -1.5144648807
      4  C         1.2924018927   -0.0917889656    0.3112877040
      5  H         1.3092800803   -0.4020378528    1.3647405136
      6  O         2.1850572505    0.6036112494   -0.1718117140
      7  H        -1.4123188410   -1.5819600205   -0.4703542325
      8  O        -0.8572008767    1.3834619275    0.0559111468
      9  O        -1.9218483872    1.0352738021    0.5387925874

Z-matrix Print:
$molecule
0 2
O 
O  1 1.219788
C  1 2.208596 2 104.171077
H  3 1.081213 1 92.968419 2 112.264205 0
O  3 1.318815 1 96.933719 2 -8.406572 0
H  5 0.967303 3 111.042586 1 90.310040 0
C  3 1.434375 1 89.340241 2 -125.996981 0
H  7 1.098318 3 116.021337 1 92.211737 0
O  7 1.230366 3 122.280585 1 -86.100691 0
$end

 
 --------------------------------------------------------------
 
                    Orbital Energies (a.u.)
 --------------------------------------------------------------
 
 Alpha MOs
 -- Occupied --
-19.4751 -19.4553 -19.4007 -19.3358 -10.4351 -10.4348  -1.4026  -1.2311
 -1.1743  -0.9487  -0.8592  -0.7082  -0.6888  -0.6568  -0.6500  -0.6402
 -0.6035  -0.5568  -0.5228  -0.4979  -0.4785  -0.3960  -0.3911  -0.3782
 -- Virtual --
 -0.0145   0.0331   0.0449   0.0527   0.0874   0.0919   0.1009   0.1140
  0.1342   0.1368   0.1502   0.1591   0.1741   0.1821   0.2000   0.2299
  0.2389   0.2472   0.2620   0.2761   0.2832   0.2882   0.3108   0.3198
  0.3267   0.3334   0.3419   0.3518   0.3576   0.3927   0.4057   0.4106
  0.4312   0.4429   0.4793   0.4995   0.5698   0.5804   0.6186   0.6202
  0.6561   0.6765   0.6823   0.7189   0.7371   0.7624   0.8144   0.8310
  0.8483   0.8846   0.9185   0.9499   0.9971   1.0234   1.0511   1.0654
  1.0897   1.1016   1.1223   1.1313   1.1331   1.1559   1.1714   1.1811
  1.1980   1.2083   1.2416   1.2665   1.2746   1.2903   1.3390   1.3765
  1.4139   1.4406   1.4637   1.4917   1.4971   1.5389   1.5710   1.5804
  1.6030   1.6469   1.6679   1.7156   1.7855   1.7903   1.8167   1.8471
  1.9314   1.9556   2.0131   2.0618   2.1465   2.2568   2.3123   2.3294
  2.3426   2.3799   2.4180   2.5154   2.5459   2.6157   2.6477   2.7349
  2.7606   2.7958   2.8465   2.9477   2.9766   3.0477   3.0590   3.1171
  3.1297   3.1877   3.2456   3.3109   3.3531   3.3712   3.3864   3.4276
  3.4881   3.5381   3.5672   3.5945   3.6351   3.6872   3.7459   3.7603
  3.8048   3.9057   3.9421   4.0055   4.0913   4.2182   4.2469   4.3124
  4.3344   4.3499   4.4523   4.5175   4.5666   4.6112   4.6276   4.6468
  4.8148   4.8278   4.9539   4.9611   4.9655   5.0147   5.0719   5.1208
  5.1436   5.1643   5.1755   5.1817   5.1890   5.2192   5.2301   5.2486
  5.2610   5.2789   5.3110   5.3285   5.3674   5.5152   5.5561   5.5609
  5.6490   5.6969   5.7311   5.7359   5.7969   5.8435   6.0060   6.3067
  6.3601   6.6904   6.7361   6.7704   6.7822   6.7873   6.8555   6.8945
  6.9515   6.9623   6.9822   6.9942   7.0299   7.0456   7.1043   7.1557
  7.2742   7.3048   7.3266   7.3572   7.3742   7.4669   7.5412   7.7113
  7.7649   7.7955   8.0902   8.1311  24.7465  25.0874  50.4554  50.5050
 50.6015  50.6997
 
 Beta MOs
 -- Occupied --
-19.4488 -19.4296 -19.4040 -19.3410 -10.4414 -10.4347  -1.3541  -1.2386
 -1.1829  -0.8914  -0.8583  -0.7125  -0.6932  -0.6195  -0.6089  -0.5921
 -0.5625  -0.5511  -0.5231  -0.5056  -0.4987  -0.3873  -0.3009
 -- Virtual --
 -0.0206  -0.0086   0.0331   0.0448   0.0527   0.0861   0.0910   0.0943
  0.1144   0.1276   0.1365   0.1502   0.1601   0.1712   0.1819   0.2013
  0.2329   0.2381   0.2491   0.2616   0.2764   0.2832   0.2892   0.3122
  0.3215   0.3302   0.3347   0.3413   0.3522   0.3681   0.3999   0.4083
  0.4163   0.4270   0.4445   0.4788   0.4970   0.5669   0.5770   0.6130
  0.6176   0.6564   0.6726   0.6760   0.7133   0.7301   0.7549   0.8149
  0.8306   0.8443   0.8826   0.9121   0.9495   0.9995   1.0319   1.0569
  1.0754   1.0895   1.1120   1.1318   1.1382   1.1415   1.1645   1.1720
  1.1794   1.2062   1.2234   1.2436   1.2735   1.2830   1.2946   1.3385
  1.3785   1.4125   1.4522   1.4830   1.4985   1.5165   1.5546   1.5792
  1.5963   1.6028   1.6464   1.6811   1.7330   1.7841   1.7957   1.8168
  1.8786   1.9276   1.9523   2.0176   2.0561   2.1395   2.2548   2.3209
  2.3455   2.3718   2.3934   2.4152   2.5145   2.5406   2.6299   2.6393
  2.7107   2.7514   2.7837   2.8347   2.9236   2.9659   3.0280   3.0420
  3.0953   3.1182   3.1735   3.2268   3.2989   3.3384   3.3551   3.3656
  3.4105   3.4748   3.5230   3.5506   3.5733   3.6130   3.6677   3.7315
  3.7543   3.7956   3.8920   3.9369   3.9932   4.0843   4.2151   4.2415
  4.2961   4.3215   4.3228   4.4428   4.5137   4.6138   4.6477   4.6705
  4.6870   4.7978   4.8163   4.9884   5.0223   5.0276   5.1047   5.1247
  5.1540   5.1612   5.1691   5.1936   5.2090   5.2228   5.2444   5.2500
  5.2643   5.2772   5.2913   5.3313   5.3554   5.3636   5.5021   5.5456
  5.5472   5.6404   5.6841   5.7745   5.7849   5.7880   5.8386   5.9934
  6.2940   6.3532   6.7063   6.8191   6.8371   6.8422   6.8697   6.8943
  6.9377   6.9836   6.9955   7.0245   7.0383   7.0573   7.0710   7.1497
  7.1851   7.2724   7.3012   7.3173   7.3437   7.4194   7.5008   7.5360
  7.7040   7.7550   7.7911   8.1179   8.1722  24.7428  25.0842  50.4752
 50.5240  50.6006  50.6962
 --------------------------------------------------------------
 
          Ground-State Mulliken Net Atomic Charges

     Atom                 Charge (a.u.)    Spin (a.u.)
  --------------------------------------------------------
      1 C                    -0.146766      -0.426799
      2 O                    -0.232551      -0.096792
      3 H                     0.285764       0.012488
      4 C                     0.052647      -0.025888
      5 H                     0.208546       0.002614
      6 O                    -0.449879      -0.179789
      7 H                     0.370533       0.000911
      8 O                    -0.010004       0.853164
      9 O                    -0.078290       0.860091
  --------------------------------------------------------
  Sum of atomic charges =     0.000000
  Sum of spin   charges =     1.000000

 -----------------------------------------------------------------
                    Cartesian Multipole Moments
 -----------------------------------------------------------------
    Charge (ESU x 10^10)
                 0.0000
    Dipole Moment (Debye)
         X      -3.6796      Y      -4.2008      Z      -1.5764
       Tot       5.8027
    Quadrupole Moments (Debye-Ang)
        XX     -43.0909     XY      -0.0340     YY     -34.4847
        XZ       5.3892     YZ       2.7587     ZZ     -30.9766
    Octopole Moments (Debye-Ang^2)
       XXX     -32.3863    XXY     -23.1049    XYY      -8.1405
       YYY     -20.9518    XXZ      -2.5293    XYZ      -2.1212
       YYZ      -5.8025    XZZ      -1.4962    YZZ      -7.0229
       ZZZ      -7.7105
    Hexadecapole Moments (Debye-Ang^3)
      XXXX    -490.7456   XXXY       7.1806   XXYY    -104.2465
      XYYY      22.7499   YYYY    -210.6770   XXXZ      30.8128
      XXYZ      -0.1295   XYYZ      11.9528   YYYZ      -2.5785
      XXZZ     -81.6611   XYZZ       4.4261   YYZZ     -46.0911
      XZZZ      21.4404   YZZZ      -7.2843   ZZZZ     -60.6301
 -----------------------------------------------------------------
 Total job time:  4947.33s(wall), 38442.52s(cpu) 
 Thu May  9 17:09:01 2024

        *************************************************************
        *                                                           *
        *  Thank you very much for using Q-Chem.  Have a nice day.  *
        *                                                           *
        *************************************************************


