
Running Job 1 of 1 Q_in.in
qchem Q_in.in_44964.0 /scratch/ari.fischer/qChem1420603.hpc-mn1/qchem44964/ 0
/usr/local/qchem-5.4.1/exe/qcprog.exe_s Q_in.in_44964.0 /scratch/ari.fischer/qChem1420603.hpc-mn1/qchem44964/
                  Welcome to Q-Chem
     A Quantum Leap Into The Future Of Chemistry


 Q-Chem 5.4, Q-Chem, Inc., Pleasanton, CA (2021)

 License issued to: Nanyang Technological University (site)

 E. Epifanovsky,  A. T. B. Gilbert,  Xintian Feng,  Joonho Lee,  Yuezhi Mao,  
 N. Mardirossian,  P. Pokhilko,  A. White,  M. Wormit,  M. P. Coons,  
 A. L. Dempwolff,  Zhengting Gan,  D. Hait,  P. R. Horn,  L. D. Jacobson,  
 I. Kaliman,  J. Kussmann,  A. W. Lange,  Ka Un Lao,  D. S. Levine,  Jie Liu,  
 S. C. McKenzie,  A. F. Morrison,  K. Nanda,  F. Plasser,  D. R. Rehn,  
 M. L. Vidal,  Zhi-Qiang You,  Ying Zhu,  B. Alam,  B. Albrecht,  
 A. Aldossary,  E. Alguire,  J. H. Andersen,  D. Barton,  K. Begam,  A. Behn,  
 Y. A. Bernard,  E. J. Berquist,  H. Burton,  A. Carreras,  K. Carter-Fenk,  
 R. Chakraborty,  A. D. Chien,  K. D. Closser,  V. Cofer-Shabica,  
 S. Dasgupta,  Jia Deng,  M. de Wergifosse,  M. Diedenhofen,  Hainam Do,  
 S. Ehlert,  Po-Tung Fang,  S. Fatehi,  Qingguo Feng,  T. Friedhoff,  
 J. Gayvert,  Qinghui Ge,  G. Gidofalvi,  M. Goldey,  J. Gomes,  
 C. Gonzalez-Espinoza,  S. Gulania,  A. Gunina,  M. W. D. Hanson-Heine,  
 P. H. P. Harbach,  A. W. Hauser,  M. F. Herbst,  M. Hernandez Vera,  
 M. Hodecker,  Z. C. Holden,  S. Houck,  Xunkun Huang,  Kerwin Hui,  
 B. C. Huynh,  M. Ivanov,  Hyunjun Ji,  Hanjie Jiang,  B. Kaduk,  S. Kaehler,  
 K. Khistyaev,  Jaehoon Kim,  P. Klunzinger,  Z. Koczor-Benda,  
 Joong Hoon Koh,  D. Kosenkov,  L. Koulias,  T. Kowalczyk,  C. M. Krauter,  
 K. Kue,  A. Kunitsa,  T. Kus,  A. Landau,  K. V. Lawler,  D. Lefrancois,  
 S. Lehtola,  Rain Li,  Yi-Pei Li,  Jiashu Liang,  M. Liebenthal,  
 Hung-Hsuan Lin,  You-Sheng Lin,  Fenglai Liu,  Kuan-Yu Liu,  
 M. Loipersberger,  A. Luenser,  A. Manjanath,  P. Manohar,  E. Mansoor,  
 S. F. Manzer,  Shan-Ping Mao,  A. V. Marenich,  T. Markovich,  S. Mason,  
 S. A. Maurer,  P. F. McLaughlin,  M. F. S. J. Menger,  J.-M. Mewes,  
 S. A. Mewes,  P. Morgante,  J. W. Mullinax,  K. J. Oosterbaan,  G. Paran,  
 Alexander C. Paul,  Suranjan K. Paul,  F. Pavosevic,  Zheng Pei,  S. Prager,  
 E. I. Proynov,  E. Ramos,  B. Rana,  A. E. Rask,  A. Rettig,  R. M. Richard,  
 F. Rob,  E. Rossomme,  T. Scheele,  M. Scheurer,  M. Schneider,  
 N. Sergueev,  S. M. Sharada,  W. Skomorowski,  D. W. Small,  C. J. Stein,  
 Yu-Chuan Su,  E. J. Sundstrom,  Zhen Tao,  J. Thirman,  T. Tsuchimochi,  
 N. M. Tubman,  S. P. Veccham,  O. Vydrov,  J. Wenzel,  J. Witte,  A. Yamada,  
 Kun Yao,  S. Yeganeh,  S. R. Yost,  A. Zech,  Igor Ying Zhang,  Xing Zhang,  
 Yu Zhang,  D. Zuev,  A. Aspuru-Guzik,  A. T. Bell,  N. A. Besley,  
 K. B. Bravaya,  B. R. Brooks,  D. Casanova,  Jeng-Da Chai,  S. Coriani,  
 C. J. Cramer,  A. E. DePrince, III,  R. A. DiStasio Jr.,  A. Dreuw,  
 B. D. Dunietz,  T. R. Furlani,  W. A. Goddard III,  S. Grimme,  
 S. Hammes-Schiffer,  T. Head-Gordon,  W. J. Hehre,  Chao-Ping Hsu,  
 T.-C. Jagau,  Yousung Jung,  A. Klamt,  Jing Kong,  D. S. Lambrecht,  
 WanZhen Liang,  N. J. Mayhall,  C. W. McCurdy,  J. B. Neaton,  
 C. Ochsenfeld,  J. A. Parkhill,  R. Peverati,  V. A. Rassolov,  Yihan Shao,  
 L. V. Slipchenko,  T. Stauch,  R. P. Steele,  J. E. Subotnik,  
 A. J. W. Thom,  A. Tkatchenko,  D. G. Truhlar,  T. Van Voorhis,  
 T. A. Wesolowski,  K. B. Whaley,  H. L. Woodcock III,  P. M. Zimmerman,  
 S. Faraji,  P. M. W. Gill,  M. Head-Gordon,  J. M. Herbert,  A. I. Krylov

 Additional authors for Version 5.4.1: 
 S. Kotaru,  Shaozhi Li,  Xiangyuan Li,  F. Matz,  A. Molle,  Haisheng Ren,  
 Yingli Su,  Hung-Yi Tsai,  C. Utku,  Fang Wang

 Contributors to earlier versions of Q-Chem not listed above: 
 R. D. Adamson,  B. Austin,  R. Baer,  J. Baker,  G. J. O. Beran,  
 K. Brandhorst,  S. T. Brown,  E. F. C. Byrd,  A. K. Chakraborty,  
 G. K. L. Chan,  Chun-Min Chang,  Yunqing Chen,  C.-L. Cheng,  
 Siu Hung Chien,  D. M. Chipman,  D. L. Crittenden,  H. Dachsel,  
 R. J. Doerksen,  A. D. Dutoi,  R. G. Edgar,  J. Fosso-Tande,  
 L. Fusti-Molnar,  D. Ghosh,  A. Ghysels,  A. Golubeva-Zadorozhnaya,  
 J. Gonthier,  M. S. Gordon,  S. R. Gwaltney,  G. Hawkins,  J. E. Herr,  
 A. Heyden,  S. Hirata,  E. G. Hohenstein,  G. Kedziora,  F. J. Keil,  
 C. Kelley,  Jihan Kim,  R. A. King,  R. Z. Khaliullin,  P. P. Korambath,  
 W. Kurlancheek,  A. Laurent,  A. M. Lee,  M. S. Lee,  S. V. Levchenko,  
 Ching Yeh Lin,  D. Liotard,  E. Livshits,  R. C. Lochan,  I. Lotan,  
 L. A. Martinez-Martinez,  P. E. Maslen,  N. Nair,  D. P. O'Neill,  
 D. Neuhauser,  E. Neuscamman,  C. M. Oana,  R. Olivares-Amaya,  R. Olson,  
 T. M. Perrine,  B. Peters,  P. A. Pieniazek,  A. Prociuk,  Y. M. Rhee,  
 J. Ritchie,  M. A. Rohrdanz,  E. Rosta,  N. J. Russ,  H. F. Schaefer III,  
 M. W. Schmidt,  N. E. Schultz,  S. Sharma,  N. Shenvi,  C. D. Sherrill,  
 A. C. Simmonett,  A. Sodt,  T. Stein,  D. Stuck,  K. S. Thanthiriwatte,  
 V. Vanovschi,  L. Vogt,  Tao Wang,  A. Warshel,  M. A. Watson,  
 C. F. Williams,  Q. Wu,  X. Xu,  Jun Yang,  W. Zhang,  Yan Zhao

 Please cite Q-Chem as follows:
 Y. Shao et al., Mol. Phys. 113, 184-215 (2015)
 DOI: 10.1080/00268976.2014.952696

 Q-Chem 5.4.1 for Intel X86 EM64T Linux

 Parts of Q-Chem use Armadillo 9.800.1 (Horizon Scraper).
 http://arma.sourceforge.net/

 Q-Chem begins on Thu Jan 26 02:45:01 2023  

 Host: 
0

     Scratch files written to /scratch/ari.fischer/qChem1420603.hpc-mn1/qchem44964//
 Aug1521 |scratch|qcdevops|jenkins|workspace|build_RNUM 8249   
 Processing $rem in /usr/local/qchem-5.4.1/config/preferences:
 Processing $rem in /home/ari.fischer/.qchemrc:
 Symmetry turned off for PCM/SM12/SMD calculation


!!********************************************.
!!******************Warning*******************.
!!Desired Analytical derivatives not available.
!!Finite difference job might take a long time.
!!********************************************.
!!********************************************.


 2-order derivative to be evaluated numerically with 1-order analytical derivatives

 Checking the input file for inconsistencies... 	...done.

--------------------------------------------------------------
User input:
--------------------------------------------------------------
$molecule
0 1
C        -0.0270514469   -0.9795995562    0.0547995429
C        -0.4367339004   -2.0698142073    0.8085553590
C        -1.7512713365   -2.1547858010    1.2523236112
C        -2.6477454249   -1.1443924481    0.9337321869
C        -2.2373519681   -0.0560062523    0.1725875943
C        -0.9235485484    0.0345127281   -0.2732645737
C        -0.4526056524    1.1888949991   -1.1245696326
H         1.0012350658   -0.9095398510   -0.2800353330
H         0.2715451361   -2.8488622124    1.0574115294
H        -2.0717185319   -2.9999029342    1.8465516996
H        -3.6721949764   -1.2019396686    1.2776197602
H        -2.9430750084    0.7263847010   -0.0716503339
H         0.5928751457    1.4055855179   -0.8942691968
O        -1.2456580274    2.3628375436   -0.9921630272
H        -0.5040465940    0.9137838820   -2.1784314727
H        -1.1948545320    2.6579219591   -0.0762993136
$end

$rem
BASIS = 6-311++G(2df,2p)
GUI = 2
JOB_TYPE = Frequency
METHOD = wB97M-V
SOLVENT_METHOD = SMD
SCF_ALGORITHM = DIIS_GDM
MAX_SCF_CYCLES = 400
SCF_CONVERGENCE = 7
THRESH = 12
SYMMETRY_IGNORE = 1
$end
--------------------------------------------------------------
 ----------------------------------------------------------------
             Standard Nuclear Orientation (Angstroms)
    I     Atom           X                Y                Z
 ----------------------------------------------------------------
    1      C      -0.0270514469    -0.9795995562     0.0547995429
    2      C      -0.4367339004    -2.0698142073     0.8085553590
    3      C      -1.7512713365    -2.1547858010     1.2523236112
    4      C      -2.6477454249    -1.1443924481     0.9337321869
    5      C      -2.2373519681    -0.0560062523     0.1725875943
    6      C      -0.9235485484     0.0345127281    -0.2732645737
    7      C      -0.4526056524     1.1888949991    -1.1245696326
    8      H       1.0012350658    -0.9095398510    -0.2800353330
    9      H       0.2715451361    -2.8488622124     1.0574115294
   10      H      -2.0717185319    -2.9999029342     1.8465516996
   11      H      -3.6721949764    -1.2019396686     1.2776197602
   12      H      -2.9430750084     0.7263847010    -0.0716503339
   13      H       0.5928751457     1.4055855179    -0.8942691968
   14      O      -1.2456580274     2.3628375436    -0.9921630272
   15      H      -0.5040465940     0.9137838820    -2.1784314727
   16      H      -1.1948545320     2.6579219591    -0.0762993136
 ----------------------------------------------------------------
 Nuclear Repulsion Energy =         341.78977623 hartrees
 There are       29 alpha and       29 beta electrons
 Requested basis set is 6-311++G(2df,2p)
 There are 112 shells and 352 basis functions

 Total QAlloc Memory Limit 288000 MB
 Mega-Array Size       188 MB
 MEM_STATIC part       192 MB
 
 Citation of the SMD model:
 Marenich, A.V.; Cramer, C.J.; Truhlar, D.G.
 J. Phys. Chem. B 2009, 113, 6378-6396.
 iSolventCode=           1
 Solvent: water                                                           
 
 vradii
            1           2           3           4           5           6
    1   1.8500000   1.8500000   1.8500000   1.8500000   1.8500000   1.8500000
            7           8           9          10          11          12
    1   1.8500000   1.2000000   1.2000000   1.2000000   1.2000000   1.2000000
           13          14          15          16
    1   1.2000000   1.5200000   1.2000000   1.2000000
 Changing PCM_VDW_RADII to SMD_RADIUS
 Discretize the solute cavity surface with Lebedev spheres
	Using 110 Lebedev grid points for each H atom
	Using 194 Lebedev grid points for other atoms
	Atomic van der Waals radii will be scaled by 1.20
 Remove points where switching function is < 1.0e-08
 Keep 1160 surface tesserae and discard 1272 interior tesserae
 Molecular Surface Area = 141.423 Angst**2
 A cutoff of  1.0D-12 yielded   5819 shell pairs
 There are     58120 function pairs (     72092 Cartesian)
 Smallest overlap matrix eigenvalue = 8.25E-07
 Linear dependence detected in AO basis
 Tighter screening thresholds may be required for diffuse basis sets
 Use S2THRESH > 14 and THRESH = 14 in case of SCF convergence issues
 Number of orthogonalized atomic orbitals = 351
 Maximum deviation from orthogonality = 6.576E-11
 Guess from superposition of atomic densities
 Warning:  Energy on first SCF cycle will be non-variational
 SAD guess density has 58.000000 electrons

 -----------------------------------------------------------------------
  General SCF calculation program by
  Eric Jon Sundstrom, Paul Horn, Yuezhi Mao, Dmitri Zuev, Alec White,
  David Stuck, Shaama M.S., Shane Yost, Joonho Lee, David Small,
  Daniel Levine, Susi Lehtola, Hugh Burton, Evgeny Epifanovsky,
  Bang C. Huynh
 -----------------------------------------------------------------------
 Exchange:     0.1500 Hartree-Fock + 1.0000 wB97M-V + LR-HF
 Correlation:  1.0000 wB97M-V
 Using SG-2 standard quadrature grid
 Nonlocal Correlation:  VV10 with C = 0.0100 and b = 6.00 and scale = 1.00000
 Grid used for NLC:  SG-1 standard quadrature
 using 8 threads for integral computing
 -------------------------------------------------------
 OpenMP Integral computing Module                
 Release: version 1.0, May 2013, Q-Chem Inc. Pittsburgh 
 -------------------------------------------------------
 
 Citation of the SMD model:
 Marenich, A.V.; Cramer, C.J.; Truhlar, D.G.
 J. Phys. Chem. B 2009, 113, 6378-6396.
 iSolventCode=           1
 Solvent: water                                                           
 
 vradii
            1           2           3           4           5           6
    1   1.8500000   1.8500000   1.8500000   1.8500000   1.8500000   1.8500000
            7           8           9          10          11          12
    1   1.8500000   1.2000000   1.2000000   1.2000000   1.2000000   1.2000000
           13          14          15          16
    1   1.2000000   1.5200000   1.2000000   1.2000000
 -------------------------------------------------------
 OpenMP BLAS3 based DFT computing Module                
 Release: version 1.0, May 2013, Q-Chem Inc. Pittsburgh 
 -------------------------------------------------------
 A restricted SCF calculation will be
 performed using DIIS, GDM
 SCF converges when RMS gradient is below 1.0e-07
 ---------------------------------------
  Cycle       Energy         DIIS error
 ---------------------------------------
    1    -349.2552672485      2.77e-02  
    2    -346.6852107636      2.22e-03  Done DIIS. Switching to GDM
 ---------------------------------------
  Cycle       Energy        RMS Gradient
 ---------------------------------------
    1    -346.6852107636      4.24e-02   Normal BFGS step
    2    -346.7186025074      2.76e-02   Normal BFGS step
    3    -346.7566650185      4.31e-03   Normal BFGS step
    4    -346.7572990056      4.55e-03   Normal BFGS step
    5    -346.7577424479      3.40e-04   Normal BFGS step
    6    -346.7577479437      1.08e-04   Normal BFGS step
    7    -346.7577488760      4.53e-05   Normal BFGS step
    8    -346.7577489396      2.98e-05   Normal BFGS step
    9    -346.7577489483      9.41e-06   Normal BFGS step
   10    -346.7577489490      3.98e-06   Normal BFGS step
   11    -346.7577489492      1.18e-06   Normal BFGS step
   12    -346.7577489492      4.59e-07   Normal BFGS step
   13    -346.7577489492      1.25e-07   Normal BFGS step
   14    -346.7577489493      4.81e-08  Convergence criterion met
 ---------------------------------------
 SCF time:   CPU 737.48s  wall 94.00s 
(3)  G-ENP(liq) elect-nuc-pol free energy of system     -346.757748949 a.u.
(4)  G-CDS(liq) cavity-dispersion-solvent structure 
     free energy                                                3.2778 kcal/mol
(6)  G-S(liq) free energy of system                     -346.752525521 a.u.
 SCF   energy in the final basis set =     -346.7525255213
 Total energy in the final basis set =     -346.7525255213
 
 --------------------------------------------------------------
 
                    Orbital Energies (a.u.)
 --------------------------------------------------------------
 
 Alpha MOs
 -- Occupied --
-19.3372 -10.3858 -10.3509 -10.3423 -10.3421 -10.3407 -10.3398 -10.3398
 -1.1558  -0.9856  -0.8886  -0.8679  -0.7957  -0.7197  -0.7009  -0.6364
 -0.6054  -0.5674  -0.5542  -0.5420  -0.5259  -0.5165  -0.4821  -0.4638
 -0.4386  -0.4288  -0.3936  -0.3460  -0.3354
 -- Virtual --
  0.0240   0.0362   0.0369   0.0472   0.0548   0.0555   0.0593   0.0677
  0.0862   0.0878   0.1007   0.1031   0.1089   0.1269   0.1410   0.1475
  0.1524   0.1577   0.1596   0.1620   0.1647   0.1734   0.1778   0.1811
  0.1858   0.1879   0.1979   0.2018   0.2090   0.2182   0.2214   0.2310
  0.2365   0.2538   0.2582   0.2682   0.2774   0.2805   0.2862   0.2964
  0.2982   0.3196   0.3300   0.3459   0.3499   0.3530   0.3609   0.3627
  0.3734   0.3913   0.4032   0.4160   0.4295   0.4418   0.4631   0.4848
  0.5343   0.5380   0.5519   0.5766   0.5869   0.5970   0.6056   0.6085
  0.6148   0.6167   0.6225   0.6252   0.6438   0.6541   0.6644   0.6775
  0.6884   0.6953   0.7069   0.7234   0.7298   0.7316   0.7365   0.7429
  0.7504   0.7545   0.7651   0.7695   0.7770   0.7848   0.8259   0.8321
  0.8391   0.8497   0.8591   0.8616   0.8827   0.8910   0.8962   0.9122
  0.9294   0.9494   0.9922   1.0045   1.0394   1.0523   1.0661   1.0776
  1.0960   1.1080   1.1270   1.1366   1.1476   1.1656   1.1831   1.1891
  1.1993   1.2324   1.2479   1.2587   1.2706   1.2886   1.3033   1.3231
  1.3345   1.3542   1.3821   1.3888   1.3961   1.4009   1.4111   1.4292
  1.4394   1.4490   1.4552   1.4756   1.4836   1.5089   1.5299   1.5419
  1.5643   1.5672   1.5797   1.5884   1.6067   1.6221   1.6553   1.7041
  1.7287   1.7573   1.7810   1.7993   1.8200   1.8220   1.8857   1.9075
  1.9898   2.0428   2.0794   2.0890   2.1067   2.1529   2.1917   2.2321
  2.3789   2.4174   2.5496   2.5819   2.6047   2.6381   2.6740   2.6848
  2.7229   2.7293   2.8012   2.8142   2.8196   2.8320   2.8348   2.8467
  2.8637   2.8729   2.8839   2.8924   2.9141   2.9179   2.9276   2.9312
  2.9364   2.9479   2.9669   2.9759   3.0008   3.0349   3.0446   3.0607
  3.0828   3.1498   3.1802   3.1837   3.2038   3.2093   3.2148   3.2385
  3.2494   3.2558   3.2685   3.2765   3.2789   3.3136   3.3329   3.3569
  3.3669   3.3755   3.3967   3.4226   3.4344   3.4504   3.4666   3.4834
  3.4990   3.5076   3.5131   3.5186   3.5371   3.5798   3.5956   3.6083
  3.6359   3.6399   3.6666   3.6829   3.7132   3.7224   3.7809   3.7905
  3.8049   3.8240   3.8356   3.8546   3.8554   3.8882   3.9023   3.9110
  3.9249   3.9413   3.9645   3.9692   3.9923   4.0137   4.0734   4.1014
  4.1301   4.1376   4.1520   4.1666   4.1753   4.1932   4.2099   4.2392
  4.2717   4.3068   4.3471   4.3538   4.4015   4.4208   4.4237   4.4465
  4.4528   4.4699   4.5240   4.5389   4.5564   4.5745   4.5797   4.5906
  4.6018   4.6257   4.6359   4.7298   4.7426   4.7825   4.8239   4.8524
  4.8763   4.9603   5.0700   5.1349   5.1784   5.1856   5.2167   5.2662
  5.2810   5.3160   5.3464   5.4150   5.4825   5.5252   5.5445   5.5941
  5.6818   5.7045   5.7538   5.8227   5.8722   5.8916   5.9226   5.9897
  6.0719   6.2777   6.6280   6.6579   7.1014   7.3153   7.3329   7.3498
  7.6592   7.7843  24.1789  24.7942  24.8063  24.8173  25.0473  25.0661
 25.5279  50.5890
 --------------------------------------------------------------
 
          Ground-State Mulliken Net Atomic Charges

     Atom                 Charge (a.u.)
  ----------------------------------------
      1 C                    -0.503559
      2 C                    -0.351173
      3 C                    -0.374671
      4 C                    -0.377209
      5 C                    -0.168886
      6 C                     0.499415
      7 C                    -0.390589
      8 H                     0.271298
      9 H                     0.282468
     10 H                     0.276379
     11 H                     0.282624
     12 H                     0.268977
     13 H                     0.216464
     14 O                    -0.435811
     15 H                     0.175095
     16 H                     0.329178
  ----------------------------------------
  Sum of atomic charges =     0.000000

 -----------------------------------------------------------------
                    Cartesian Multipole Moments
 -----------------------------------------------------------------
    Charge (ESU x 10^10)
                -0.0000
    Dipole Moment (Debye)
         X       1.2742      Y      -0.8244      Z       1.4833
       Tot       2.1221
    Quadrupole Moments (Debye-Ang)
        XX     -46.2715     XY       1.6981     YY     -48.6999
        XZ      -4.9730     YZ       2.3518     ZZ     -50.5076
    Octopole Moments (Debye-Ang^2)
       XXX     161.7705    XXY       9.6771    XYY      63.8579
       YYY      32.8111    XXZ       7.7607    XYZ      -2.6269
       YYZ      23.0815    XZZ      60.7012    YZZ       8.1881
       ZZZ     -18.4633
    Hexadecapole Moments (Debye-Ang^3)
      XXXX    -687.3181   XXXY     -59.5938   XXYY    -255.5494
      XYYY     -61.5944   YYYY    -757.2577   XXXZ      29.9636
      XXYZ      53.6106   XYYZ     -15.6271   YYYZ     193.9979
      XXZZ    -173.9084   XYZZ      -7.6029   YYZZ    -181.9794
      XZZZ      69.0162   YZZZ     180.7152   ZZZZ    -285.2189
 -----------------------------------------------------------------
 Calculating analytic gradient of the SCF energy
 Gradient of CDS energy
            1           2           3           4           5           6
    1   0.0002949   0.0003451  -0.0001592  -0.0004812  -0.0001576  -0.0000193
    2   0.0001322  -0.0003638  -0.0004120  -0.0000096   0.0002288   0.0000224
    3  -0.0001339   0.0001049   0.0002861   0.0001519  -0.0001693  -0.0000521
            7           8           9          10          11          12
    1   0.0004964   0.0001692   0.0001361  -0.0000615  -0.0001970  -0.0000570
    2   0.0006001   0.0000514  -0.0001496  -0.0001621  -0.0000111   0.0001529
    3  -0.0006296  -0.0000452   0.0000478   0.0001140   0.0000661  -0.0000779
           13          14          15          16
    1   0.0000991  -0.0001179  -0.0002009  -0.0000893
    2  -0.0001679  -0.0002745  -0.0001119   0.0004748
    3   0.0001507   0.0000723  -0.0001053   0.0002194
 Gradient of SCF Energy
            1           2           3           4           5           6
    1  -0.0075891  -0.0042926   0.0006613   0.0052714   0.0027176   0.0013091
    2  -0.0020538   0.0026799   0.0043683   0.0012355  -0.0022086  -0.0008209
    3   0.0016426  -0.0004083  -0.0029451  -0.0026173   0.0004953   0.0011513
            7           8           9          10          11          12
    1  -0.0081537   0.0063797   0.0034337  -0.0012216  -0.0036983  -0.0014543
    2   0.0016777   0.0009317  -0.0036033  -0.0033938  -0.0002528   0.0006221
    3   0.0022075  -0.0021476   0.0011331   0.0024042   0.0013565   0.0008070
           13          14          15          16
    1   0.0058621  -0.0028154   0.0013131   0.0022771
    2   0.0006328   0.0002477  -0.0017195   0.0016569
    3   0.0018139  -0.0143226  -0.0022741   0.0117034
 Max gradient component =       1.432E-02
 RMS gradient           =       3.981E-03
 Computing fast CPCM-SWIG gradient
 Updating gradient with PCM contributions...
 -- total gradient after adding PCM contribution --
---------------------------------------------------
  Atom         X              Y              Z     
---------------------------------------------------
   1       0.000056      -0.000034      -0.000034
   2       0.000050      -0.000017      -0.000014
   3      -0.000028      -0.000033      -0.000005
   4      -0.000004      -0.000042       0.000011
   5       0.000098       0.000044      -0.000016
   6      -0.000165       0.000102      -0.000010
   7       0.000043      -0.000007      -0.000053
   8       0.000032       0.000012      -0.000014
   9       0.000030      -0.000029      -0.000022
  10      -0.000009      -0.000041      -0.000008
  11      -0.000030      -0.000017       0.000001
  12      -0.000049       0.000011       0.000016
  13      -0.000004       0.000027       0.000061
  14       0.000008       0.000026       0.000046
  15       0.000018      -0.000034      -0.000019
  16      -0.000047       0.000032       0.000059
---------------------------------------------------
 Number of fixed atoms: 0
 Gradient time:  CPU 161.62 s  wall 23.29 s
 ######################################################
 ######################################################
 # Starting finite difference calculation for IDERIV  #
 Finite diff step size:  1.88973e-03 a.u.
 ----------------------------------------------------------------
             Standard Nuclear Orientation (Angstroms)
    I     Atom           X                Y                Z
 ----------------------------------------------------------------
    1      C      -0.0260514469    -0.9795995562     0.0547995429
    2      C      -0.4367339004    -2.0698142073     0.8085553590
    3      C      -1.7512713365    -2.1547858010     1.2523236112
    4      C      -2.6477454249    -1.1443924481     0.9337321869
    5      C      -2.2373519681    -0.0560062523     0.1725875943
    6      C      -0.9235485484     0.0345127281    -0.2732645737
    7      C      -0.4526056524     1.1888949991    -1.1245696326
    8      H       1.0012350658    -0.9095398510    -0.2800353330
    9      H       0.2715451361    -2.8488622124     1.0574115294
   10      H      -2.0717185319    -2.9999029342     1.8465516996
   11      H      -3.6721949764    -1.2019396686     1.2776197602
   12      H      -2.9430750084     0.7263847010    -0.0716503339
   13      H       0.5928751457     1.4055855179    -0.8942691968
   14      O      -1.2456580274     2.3628375436    -0.9921630272
   15      H      -0.5040465940     0.9137838820    -2.1784314727
   16      H      -1.1948545320     2.6579219591    -0.0762993136
 ----------------------------------------------------------------
 Nuclear Repulsion Energy =         341.77368304 hartrees
 There are       29 alpha and       29 beta electrons
 Discretize the solute cavity surface with Lebedev spheres
	Using 110 Lebedev grid points for each H atom
	Using 194 Lebedev grid points for other atoms
	Atomic van der Waals radii will be scaled by 1.20
 Remove points where switching function is < 1.0e-08
 Keep 1162 surface tesserae and discard 1270 interior tesserae
 Molecular Surface Area = 141.425 Angst**2
 Requested basis set is 6-311++G(2df,2p)
 There are 112 shells and 352 basis functions
 A cutoff of  1.0D-12 yielded   5819 shell pairs
 There are     58120 function pairs (     72092 Cartesian)
 Smallest overlap matrix eigenvalue = 8.27E-07
 Linear dependence detected in AO basis
 Tighter screening thresholds may be required for diffuse basis sets
 Use S2THRESH > 14 and THRESH = 14 in case of SCF convergence issues
 Number of orthogonalized atomic orbitals = 351
 Maximum deviation from orthogonality = 3.586E-11
 Guess MOs from SCF MO coefficient file

 -----------------------------------------------------------------------
  General SCF calculation program by
  Eric Jon Sundstrom, Paul Horn, Yuezhi Mao, Dmitri Zuev, Alec White,
  David Stuck, Shaama M.S., Shane Yost, Joonho Lee, David Small,
  Daniel Levine, Susi Lehtola, Hugh Burton, Evgeny Epifanovsky,
  Bang C. Huynh
 -----------------------------------------------------------------------
 Exchange:     0.1500 Hartree-Fock + 1.0000 wB97M-V + LR-HF
 Correlation:  1.0000 wB97M-V
 Using SG-2 standard quadrature grid
 Nonlocal Correlation:  VV10 with C = 0.0100 and b = 6.00 and scale = 1.00000
 Grid used for NLC:  SG-1 standard quadrature
 
 Citation of the SMD model:
 Marenich, A.V.; Cramer, C.J.; Truhlar, D.G.
 J. Phys. Chem. B 2009, 113, 6378-6396.
 iSolventCode=           1
 Solvent: water                                                           
 
 vradii
            1           2           3           4           5           6
    1   1.8500000   1.8500000   1.8500000   1.8500000   1.8500000   1.8500000
            7           8           9          10          11          12
    1   1.8500000   1.2000000   1.2000000   1.2000000   1.2000000   1.2000000
           13          14          15          16
    1   1.2000000   1.5200000   1.2000000   1.2000000
 -------------------------------------------------------
 OpenMP BLAS3 based DFT computing Module                
 Release: version 1.0, May 2013, Q-Chem Inc. Pittsburgh 
 -------------------------------------------------------
 A restricted SCF calculation will be
 performed using Roothaan-Hall, DIIS, GDM
 SCF converges when RMS gradient is below 1.0e-07
 ---------------------------------------
  Cycle       Energy         DIIS error
 ---------------------------------------
    1    -346.7404444430      3.13e-04  Roothaan Step
 ---------------------------------------
  Cycle       Energy         DIIS error
 ---------------------------------------
    1    -346.7548925492      3.53e-04  
    2    -346.7568803632      2.71e-04  Done DIIS. Switching to GDM
 ---------------------------------------
  Cycle       Energy        RMS Gradient
 ---------------------------------------
    1    -346.7568803632      4.14e-03   Normal BFGS step
    2    -346.7569934646      4.11e-03   Normal BFGS step
    3    -346.7577372096      4.25e-04   Normal BFGS step
    4    -346.7577447060      3.99e-04   Normal BFGS step
    5    -346.7577480510      4.83e-05   Normal BFGS step
    6    -346.7577481489      1.85e-05   Normal BFGS step
    7    -346.7577481621      1.09e-05   Normal BFGS step
    8    -346.7577481640      1.46e-06   Normal BFGS step
    9    -346.7577481641      1.04e-06   Normal BFGS step
   10    -346.7577481642      2.80e-07   Normal BFGS step
   11    -346.7577481642      1.53e-07   Normal BFGS step
   12    -346.7577481641      7.45e-08  Convergence criterion met
 ---------------------------------------
 SCF time:   CPU 710.23s  wall 90.00s 
(3)  G-ENP(liq) elect-nuc-pol free energy of system     -346.757748164 a.u.
(4)  G-CDS(liq) cavity-dispersion-solvent structure 
     free energy                                                3.2781 kcal/mol
(6)  G-S(liq) free energy of system                     -346.752524177 a.u.
 SCF   energy in the final basis set =     -346.7525241766
 Total energy in the final basis set =     -346.7525241766
 
 --------------------------------------------------------------
 
                    Orbital Energies (a.u.)
 --------------------------------------------------------------
 
 Alpha MOs
 -- Occupied --
-19.3372 -10.3858 -10.3510 -10.3423 -10.3421 -10.3407 -10.3398 -10.3398
 -1.1558  -0.9856  -0.8886  -0.8679  -0.7957  -0.7197  -0.7009  -0.6364
 -0.6054  -0.5674  -0.5543  -0.5419  -0.5259  -0.5165  -0.4820  -0.4638
 -0.4388  -0.4287  -0.3935  -0.3460  -0.3353
 -- Virtual --
  0.0240   0.0362   0.0369   0.0471   0.0548   0.0555   0.0593   0.0677
  0.0861   0.0878   0.1007   0.1031   0.1090   0.1269   0.1410   0.1475
  0.1524   0.1577   0.1596   0.1620   0.1647   0.1734   0.1778   0.1811
  0.1858   0.1879   0.1979   0.2018   0.2090   0.2182   0.2214   0.2310
  0.2365   0.2538   0.2582   0.2682   0.2774   0.2805   0.2862   0.2965
  0.2982   0.3196   0.3300   0.3459   0.3499   0.3531   0.3608   0.3626
  0.3734   0.3913   0.4031   0.4160   0.4294   0.4418   0.4631   0.4848
  0.5343   0.5380   0.5519   0.5766   0.5869   0.5969   0.6056   0.6085
  0.6148   0.6167   0.6225   0.6252   0.6438   0.6541   0.6644   0.6775
  0.6884   0.6954   0.7069   0.7234   0.7298   0.7316   0.7365   0.7428
  0.7503   0.7545   0.7651   0.7694   0.7770   0.7847   0.8259   0.8321
  0.8391   0.8497   0.8590   0.8616   0.8826   0.8909   0.8962   0.9122
  0.9292   0.9494   0.9922   1.0045   1.0394   1.0523   1.0661   1.0776
  1.0960   1.1080   1.1270   1.1366   1.1475   1.1655   1.1830   1.1892
  1.1993   1.2324   1.2479   1.2587   1.2706   1.2886   1.3033   1.3230
  1.3344   1.3542   1.3821   1.3887   1.3961   1.4008   1.4111   1.4292
  1.4393   1.4489   1.4552   1.4755   1.4836   1.5089   1.5299   1.5419
  1.5644   1.5673   1.5799   1.5884   1.6068   1.6221   1.6552   1.7040
  1.7286   1.7572   1.7810   1.7992   1.8200   1.8218   1.8856   1.9075
  1.9896   2.0427   2.0793   2.0890   2.1066   2.1528   2.1916   2.2319
  2.3788   2.4173   2.5496   2.5819   2.6047   2.6380   2.6739   2.6847
  2.7229   2.7294   2.8012   2.8142   2.8198   2.8319   2.8348   2.8466
  2.8638   2.8729   2.8840   2.8926   2.9140   2.9179   2.9276   2.9313
  2.9364   2.9480   2.9669   2.9759   3.0008   3.0348   3.0445   3.0606
  3.0827   3.1497   3.1800   3.1836   3.2039   3.2092   3.2148   3.2385
  3.2492   3.2559   3.2685   3.2763   3.2789   3.3137   3.3328   3.3569
  3.3669   3.3756   3.3967   3.4224   3.4344   3.4503   3.4665   3.4833
  3.4989   3.5076   3.5132   3.5187   3.5370   3.5798   3.5957   3.6083
  3.6359   3.6399   3.6667   3.6829   3.7132   3.7224   3.7809   3.7904
  3.8048   3.8239   3.8355   3.8547   3.8553   3.8879   3.9025   3.9110
  3.9247   3.9412   3.9641   3.9692   3.9921   4.0136   4.0734   4.1013
  4.1299   4.1376   4.1520   4.1667   4.1753   4.1933   4.2098   4.2393
  4.2717   4.3067   4.3471   4.3538   4.4016   4.4208   4.4237   4.4465
  4.4530   4.4699   4.5236   4.5388   4.5561   4.5745   4.5792   4.5903
  4.6016   4.6255   4.6361   4.7296   4.7424   4.7823   4.8240   4.8519
  4.8763   4.9602   5.0696   5.1351   5.1783   5.1854   5.2165   5.2663
  5.2809   5.3161   5.3464   5.4149   5.4825   5.5249   5.5446   5.5941
  5.6818   5.7046   5.7534   5.8228   5.8723   5.8920   5.9227   5.9895
  6.0717   6.2779   6.6279   6.6572   7.1014   7.3153   7.3329   7.3498
  7.6592   7.7843  24.1794  24.7941  24.8060  24.8172  25.0466  25.0656
 25.5273  50.5890
 --------------------------------------------------------------
 
          Ground-State Mulliken Net Atomic Charges

     Atom                 Charge (a.u.)
  ----------------------------------------
      1 C                    -0.504646
      2 C                    -0.350195
      3 C                    -0.375155
      4 C                    -0.376977
      5 C                    -0.169061
      6 C                     0.499646
      7 C                    -0.390588
      8 H                     0.271629
      9 H                     0.282481
     10 H                     0.276378
     11 H                     0.282582
     12 H                     0.268996
     13 H                     0.216486
     14 O                    -0.435818
     15 H                     0.175083
     16 H                     0.329160
  ----------------------------------------
  Sum of atomic charges =     0.000000

 -----------------------------------------------------------------
                    Cartesian Multipole Moments
 -----------------------------------------------------------------
    Charge (ESU x 10^10)
                 0.0000
    Dipole Moment (Debye)
         X       1.2746      Y      -0.8243      Z       1.4828
       Tot       2.1220
    Quadrupole Moments (Debye-Ang)
        XX     -46.2666     XY       1.6988     YY     -48.7040
        XZ      -4.9756     YZ       2.3532     ZZ     -50.5090
    Octopole Moments (Debye-Ang^2)
       XXX     161.7464    XXY       9.6727    XYY      63.8521
       YYY      32.8184    XXZ       7.7638    XYZ      -2.6239
       YYZ      23.0797    XZZ      60.6957    YZZ       8.1884
       ZZZ     -18.4641
    Hexadecapole Moments (Debye-Ang^3)
      XXXX    -687.2610   XXXY     -59.5720   XXYY    -255.5421
      XYYY     -61.5679   YYYY    -757.3084   XXXZ      29.9478
      XXYZ      53.6073   XYYZ     -15.6372   YYYZ     194.0108
      XXZZ    -173.9018   XYZZ      -7.5936   YYZZ    -181.9860
      XZZZ      69.0067   YZZZ     180.7196   ZZZZ    -285.2251
 -----------------------------------------------------------------
 Calculating analytic gradient of the SCF energy
 Gradient of CDS energy
            1           2           3           4           5           6
    1   0.0002973   0.0003444  -0.0001591  -0.0004812  -0.0001576  -0.0000199
    2   0.0001318  -0.0003643  -0.0004120  -0.0000096   0.0002287   0.0000230
    3  -0.0001340   0.0001052   0.0002860   0.0001519  -0.0001693  -0.0000523
            7           8           9          10          11          12
    1   0.0004965   0.0001680   0.0001360  -0.0000615  -0.0001970  -0.0000570
    2   0.0006001   0.0000516  -0.0001496  -0.0001621  -0.0000111   0.0001529
    3  -0.0006296  -0.0000450   0.0000478   0.0001140   0.0000661  -0.0000779
           13          14          15          16
    1   0.0000991  -0.0001179  -0.0002009  -0.0000893
    2  -0.0001679  -0.0002745  -0.0001119   0.0004748
    3   0.0001506   0.0000723  -0.0001053   0.0002194
 Gradient of SCF Energy
            1           2           3           4           5           6
    1  -0.0062831  -0.0045680   0.0006665   0.0052673   0.0026411   0.0009051
    2  -0.0021503   0.0025350   0.0043115   0.0012589  -0.0021777  -0.0005732
    3   0.0014008  -0.0002776  -0.0029087  -0.0026332   0.0005031   0.0010882
            7           8           9          10          11          12
    1  -0.0081373   0.0058089   0.0034502  -0.0012310  -0.0036993  -0.0014630
    2   0.0016742   0.0009075  -0.0035661  -0.0033916  -0.0002526   0.0006214
    3   0.0022046  -0.0019944   0.0011084   0.0024099   0.0013559   0.0008137
           13          14          15          16
    1   0.0058655  -0.0028135   0.0013134   0.0022772
    2   0.0006297   0.0002365  -0.0017209   0.0016575
    3   0.0018155  -0.0143166  -0.0022712   0.0117017
 Max gradient component =       1.432E-02
 RMS gradient           =       3.908E-03
 Computing fast CPCM-SWIG gradient
 Updating gradient with PCM contributions...
 -- total gradient after adding PCM contribution --
---------------------------------------------------
  Atom         X              Y              Z     
---------------------------------------------------
   1       0.001371      -0.000124      -0.000285
   2      -0.000226      -0.000156       0.000111
   3      -0.000024      -0.000092       0.000034
   4      -0.000012      -0.000016      -0.000006
   5       0.000017       0.000074      -0.000006
   6      -0.000561       0.000345      -0.000073
   7       0.000063      -0.000011      -0.000054
   8      -0.000549      -0.000014       0.000146
   9       0.000048       0.000004      -0.000044
  10      -0.000018      -0.000040      -0.000002
  11      -0.000029      -0.000017      -0.000000
  12      -0.000057       0.000011       0.000022
  13      -0.000002       0.000025       0.000063
  14       0.000010       0.000014       0.000051
  15       0.000018      -0.000035      -0.000017
  16      -0.000047       0.000033       0.000059
---------------------------------------------------
 Number of fixed atoms: 0
 Gradient time:  CPU 163.48 s  wall 23.62 s
 ----------------------------------------------------------------
             Standard Nuclear Orientation (Angstroms)
    I     Atom           X                Y                Z
 ----------------------------------------------------------------
    1      C      -0.0280514469    -0.9795995562     0.0547995429
    2      C      -0.4367339004    -2.0698142073     0.8085553590
    3      C      -1.7512713365    -2.1547858010     1.2523236112
    4      C      -2.6477454249    -1.1443924481     0.9337321869
    5      C      -2.2373519681    -0.0560062523     0.1725875943
    6      C      -0.9235485484     0.0345127281    -0.2732645737
    7      C      -0.4526056524     1.1888949991    -1.1245696326
    8      H       1.0012350658    -0.9095398510    -0.2800353330
    9      H       0.2715451361    -2.8488622124     1.0574115294
   10      H      -2.0717185319    -2.9999029342     1.8465516996
   11      H      -3.6721949764    -1.2019396686     1.2776197602
   12      H      -2.9430750084     0.7263847010    -0.0716503339
   13      H       0.5928751457     1.4055855179    -0.8942691968
   14      O      -1.2456580274     2.3628375436    -0.9921630272
   15      H      -0.5040465940     0.9137838820    -2.1784314727
   16      H      -1.1948545320     2.6579219591    -0.0762993136
 ----------------------------------------------------------------
 Nuclear Repulsion Energy =         341.80587266 hartrees
 There are       29 alpha and       29 beta electrons
 Discretize the solute cavity surface with Lebedev spheres
	Using 110 Lebedev grid points for each H atom
	Using 194 Lebedev grid points for other atoms
	Atomic van der Waals radii will be scaled by 1.20
 Remove points where switching function is < 1.0e-08
 Keep 1160 surface tesserae and discard 1272 interior tesserae
 Molecular Surface Area = 141.421 Angst**2
 Requested basis set is 6-311++G(2df,2p)
 There are 112 shells and 352 basis functions
 A cutoff of  1.0D-12 yielded   5819 shell pairs
 There are     58120 function pairs (     72092 Cartesian)
 Smallest overlap matrix eigenvalue = 8.23E-07
 Linear dependence detected in AO basis
 Tighter screening thresholds may be required for diffuse basis sets
 Use S2THRESH > 14 and THRESH = 14 in case of SCF convergence issues
 Number of orthogonalized atomic orbitals = 351
 Maximum deviation from orthogonality = 3.454E-11
 Guess MOs from SCF MO coefficient file

 -----------------------------------------------------------------------
  General SCF calculation program by
  Eric Jon Sundstrom, Paul Horn, Yuezhi Mao, Dmitri Zuev, Alec White,
  David Stuck, Shaama M.S., Shane Yost, Joonho Lee, David Small,
  Daniel Levine, Susi Lehtola, Hugh Burton, Evgeny Epifanovsky,
  Bang C. Huynh
 -----------------------------------------------------------------------
 Exchange:     0.1500 Hartree-Fock + 1.0000 wB97M-V + LR-HF
 Correlation:  1.0000 wB97M-V
 Using SG-2 standard quadrature grid
 Nonlocal Correlation:  VV10 with C = 0.0100 and b = 6.00 and scale = 1.00000
 Grid used for NLC:  SG-1 standard quadrature
 
 Citation of the SMD model:
 Marenich, A.V.; Cramer, C.J.; Truhlar, D.G.
 J. Phys. Chem. B 2009, 113, 6378-6396.
 iSolventCode=           1
 Solvent: water                                                           
 
 vradii
            1           2           3           4           5           6
    1   1.8500000   1.8500000   1.8500000   1.8500000   1.8500000   1.8500000
            7           8           9          10          11          12
    1   1.8500000   1.2000000   1.2000000   1.2000000   1.2000000   1.2000000
           13          14          15          16
    1   1.2000000   1.5200000   1.2000000   1.2000000
 -------------------------------------------------------
 OpenMP BLAS3 based DFT computing Module                
 Release: version 1.0, May 2013, Q-Chem Inc. Pittsburgh 
 -------------------------------------------------------
 A restricted SCF calculation will be
 performed using Roothaan-Hall, DIIS, GDM
 SCF converges when RMS gradient is below 1.0e-07
 ---------------------------------------
  Cycle       Energy         DIIS error
 ---------------------------------------
    1    -346.7404316999      3.13e-04  Roothaan Step
 ---------------------------------------
  Cycle       Energy         DIIS error
 ---------------------------------------
    1    -346.7548976442      3.53e-04  
    2    -346.7568798144      2.71e-04  Done DIIS. Switching to GDM
 ---------------------------------------
  Cycle       Energy        RMS Gradient
 ---------------------------------------
    1    -346.7568798144      4.11e-03   Normal BFGS step
    2    -346.7569914829      4.12e-03   Normal BFGS step
    3    -346.7577363610      4.17e-04   Normal BFGS step
    4    -346.7577438204      3.96e-04   Normal BFGS step
    5    -346.7577471440      4.73e-05   Normal BFGS step
    6    -346.7577472414      1.85e-05   Normal BFGS step
    7    -346.7577472548      1.07e-05   Normal BFGS step
    8    -346.7577472568      1.27e-06   Normal BFGS step
    9    -346.7577472569      8.62e-07   Normal BFGS step
   10    -346.7577472569      2.53e-07   Normal BFGS step
   11    -346.7577472569      1.16e-07   Normal BFGS step
   12    -346.7577472569      6.09e-08  Convergence criterion met
 ---------------------------------------
 SCF time:   CPU 708.64s  wall 90.00s 
(3)  G-ENP(liq) elect-nuc-pol free energy of system     -346.757747257 a.u.
(4)  G-CDS(liq) cavity-dispersion-solvent structure 
     free energy                                                3.2774 kcal/mol
(6)  G-S(liq) free energy of system                     -346.752524384 a.u.
 SCF   energy in the final basis set =     -346.7525243840
 Total energy in the final basis set =     -346.7525243840
 
 --------------------------------------------------------------
 
                    Orbital Energies (a.u.)
 --------------------------------------------------------------
 
 Alpha MOs
 -- Occupied --
-19.3372 -10.3858 -10.3508 -10.3423 -10.3420 -10.3406 -10.3398 -10.3398
 -1.1559  -0.9857  -0.8887  -0.8679  -0.7957  -0.7196  -0.7009  -0.6365
 -0.6053  -0.5674  -0.5542  -0.5420  -0.5259  -0.5164  -0.4821  -0.4638
 -0.4385  -0.4289  -0.3936  -0.3460  -0.3354
 -- Virtual --
  0.0240   0.0362   0.0369   0.0472   0.0548   0.0555   0.0594   0.0677
  0.0862   0.0878   0.1007   0.1031   0.1089   0.1269   0.1410   0.1475
  0.1524   0.1577   0.1596   0.1620   0.1647   0.1734   0.1779   0.1811
  0.1858   0.1879   0.1979   0.2018   0.2090   0.2182   0.2214   0.2310
  0.2365   0.2538   0.2582   0.2682   0.2774   0.2806   0.2862   0.2964
  0.2982   0.3196   0.3301   0.3458   0.3499   0.3530   0.3609   0.3627
  0.3734   0.3913   0.4032   0.4161   0.4295   0.4419   0.4632   0.4848
  0.5343   0.5380   0.5519   0.5766   0.5869   0.5971   0.6056   0.6085
  0.6148   0.6167   0.6225   0.6252   0.6439   0.6541   0.6645   0.6775
  0.6885   0.6953   0.7070   0.7234   0.7298   0.7316   0.7365   0.7429
  0.7504   0.7545   0.7651   0.7695   0.7770   0.7848   0.8259   0.8321
  0.8391   0.8498   0.8591   0.8616   0.8829   0.8910   0.8963   0.9123
  0.9295   0.9495   0.9922   1.0045   1.0394   1.0523   1.0661   1.0776
  1.0960   1.1080   1.1271   1.1366   1.1477   1.1656   1.1831   1.1891
  1.1993   1.2324   1.2478   1.2587   1.2706   1.2887   1.3033   1.3231
  1.3345   1.3542   1.3821   1.3888   1.3961   1.4009   1.4112   1.4292
  1.4394   1.4491   1.4551   1.4757   1.4836   1.5090   1.5300   1.5419
  1.5643   1.5672   1.5796   1.5885   1.6066   1.6221   1.6554   1.7042
  1.7287   1.7575   1.7810   1.7994   1.8199   1.8222   1.8858   1.9075
  1.9899   2.0429   2.0794   2.0889   2.1068   2.1530   2.1918   2.2324
  2.3789   2.4176   2.5495   2.5819   2.6047   2.6383   2.6742   2.6849
  2.7230   2.7293   2.8012   2.8142   2.8195   2.8321   2.8349   2.8468
  2.8636   2.8729   2.8838   2.8922   2.9141   2.9179   2.9276   2.9311
  2.9364   2.9478   2.9669   2.9758   3.0008   3.0350   3.0448   3.0609
  3.0829   3.1498   3.1803   3.1838   3.2037   3.2093   3.2148   3.2385
  3.2496   3.2557   3.2684   3.2766   3.2790   3.3136   3.3331   3.3568
  3.3669   3.3754   3.3966   3.4228   3.4344   3.4505   3.4667   3.4834
  3.4991   3.5075   3.5131   3.5185   3.5372   3.5799   3.5956   3.6083
  3.6358   3.6400   3.6664   3.6829   3.7132   3.7224   3.7809   3.7907
  3.8049   3.8242   3.8357   3.8546   3.8555   3.8885   3.9022   3.9111
  3.9251   3.9415   3.9648   3.9692   3.9924   4.0138   4.0734   4.1016
  4.1302   4.1375   4.1520   4.1665   4.1754   4.1930   4.2099   4.2390
  4.2716   4.3069   4.3471   4.3539   4.4015   4.4208   4.4237   4.4465
  4.4527   4.4698   4.5244   4.5391   4.5568   4.5746   4.5802   4.5910
  4.6020   4.6259   4.6357   4.7299   4.7428   4.7827   4.8237   4.8530
  4.8764   4.9604   5.0704   5.1347   5.1785   5.1857   5.2168   5.2661
  5.2811   5.3159   5.3463   5.4150   5.4826   5.5254   5.5444   5.5940
  5.6818   5.7045   5.7542   5.8226   5.8721   5.8913   5.9226   5.9899
  6.0720   6.2774   6.6281   6.6587   7.1015   7.3153   7.3329   7.3498
  7.6592   7.7843  24.1785  24.7942  24.8065  24.8174  25.0480  25.0666
 25.5286  50.5890
 --------------------------------------------------------------
 
          Ground-State Mulliken Net Atomic Charges

     Atom                 Charge (a.u.)
  ----------------------------------------
      1 C                    -0.502467
      2 C                    -0.352152
      3 C                    -0.374185
      4 C                    -0.377444
      5 C                    -0.168710
      6 C                     0.499180
      7 C                    -0.390591
      8 H                     0.270965
      9 H                     0.282456
     10 H                     0.276381
     11 H                     0.282665
     12 H                     0.268959
     13 H                     0.216443
     14 O                    -0.435804
     15 H                     0.175107
     16 H                     0.329196
  ----------------------------------------
  Sum of atomic charges =     0.000000

 -----------------------------------------------------------------
                    Cartesian Multipole Moments
 -----------------------------------------------------------------
    Charge (ESU x 10^10)
                 0.0000
    Dipole Moment (Debye)
         X       1.2739      Y      -0.8244      Z       1.4837
       Tot       2.1222
    Quadrupole Moments (Debye-Ang)
        XX     -46.2763     XY       1.6974     YY     -48.6957
        XZ      -4.9703     YZ       2.3505     ZZ     -50.5062
    Octopole Moments (Debye-Ang^2)
       XXX     161.7945    XXY       9.6815    XYY      63.8636
       YYY      32.8039    XXZ       7.7575    XYZ      -2.6298
       YYZ      23.0833    XZZ      60.7067    YZZ       8.1879
       ZZZ     -18.4626
    Hexadecapole Moments (Debye-Ang^3)
      XXXX    -687.3752   XXXY     -59.6155   XXYY    -255.5568
      XYYY     -61.6209   YYYY    -757.2069   XXXZ      29.9794
      XXYZ      53.6138   XYYZ     -15.6169   YYYZ     193.9849
      XXZZ    -173.9149   XYZZ      -7.6123   YYZZ    -181.9729
      XZZZ      69.0258   YZZZ     180.7109   ZZZZ    -285.2126
 -----------------------------------------------------------------
 Calculating analytic gradient of the SCF energy
 Gradient of CDS energy
            1           2           3           4           5           6
    1   0.0002925   0.0003457  -0.0001592  -0.0004812  -0.0001576  -0.0000187
    2   0.0001326  -0.0003634  -0.0004121  -0.0000096   0.0002289   0.0000218
    3  -0.0001337   0.0001046   0.0002861   0.0001519  -0.0001693  -0.0000519
            7           8           9          10          11          12
    1   0.0004964   0.0001703   0.0001361  -0.0000615  -0.0001970  -0.0000570
    2   0.0006000   0.0000513  -0.0001497  -0.0001621  -0.0000111   0.0001529
    3  -0.0006296  -0.0000454   0.0000478   0.0001140   0.0000661  -0.0000779
           13          14          15          16
    1   0.0000991  -0.0001179  -0.0002009  -0.0000893
    2  -0.0001679  -0.0002745  -0.0001119   0.0004748
    3   0.0001508   0.0000723  -0.0001053   0.0002195
 Gradient of SCF Energy
            1           2           3           4           5           6
    1  -0.0088923  -0.0040175   0.0006560   0.0052755   0.0027941   0.0017139
    2  -0.0019557   0.0028249   0.0044251   0.0012121  -0.0022395  -0.0010699
    3   0.0018827  -0.0005389  -0.0029816  -0.0026014   0.0004876   0.0012148
            7           8           9          10          11          12
    1  -0.0081700   0.0069470   0.0034172  -0.0012122  -0.0036974  -0.0014456
    2   0.0016811   0.0009556  -0.0036405  -0.0033959  -0.0002531   0.0006228
    3   0.0022105  -0.0022993   0.0011578   0.0023986   0.0013571   0.0008004
           13          14          15          16
    1   0.0058587  -0.0028173   0.0013128   0.0022771
    2   0.0006358   0.0002589  -0.0017180   0.0016563
    3   0.0018122  -0.0143286  -0.0022769   0.0117051
 Max gradient component =       1.433E-02
 RMS gradient           =       4.065E-03
 Computing fast CPCM-SWIG gradient
 Updating gradient with PCM contributions...
 -- total gradient after adding PCM contribution --
---------------------------------------------------
  Atom         X              Y              Z     
---------------------------------------------------
   1      -0.001256       0.000058       0.000215
   2       0.000327       0.000122      -0.000140
   3      -0.000032       0.000027      -0.000043
   4       0.000005      -0.000067       0.000027
   5       0.000180       0.000013      -0.000027
   6       0.000231      -0.000143       0.000054
   7       0.000024      -0.000003      -0.000051
   8       0.000610       0.000038      -0.000172
   9       0.000011      -0.000062       0.000001
  10      -0.000001      -0.000042      -0.000014
  11      -0.000031      -0.000018       0.000002
  12      -0.000041       0.000012       0.000010
  13      -0.000005       0.000029       0.000060
  14       0.000007       0.000038       0.000042
  15       0.000018      -0.000032      -0.000021
  16      -0.000047       0.000031       0.000059
---------------------------------------------------
 Number of fixed atoms: 0
 Gradient time:  CPU 163.77 s  wall 23.59 s
 ----------------------------------------------------------------
             Standard Nuclear Orientation (Angstroms)
    I     Atom           X                Y                Z
 ----------------------------------------------------------------
    1      C      -0.0270514469    -0.9785995562     0.0547995429
    2      C      -0.4367339004    -2.0698142073     0.8085553590
    3      C      -1.7512713365    -2.1547858010     1.2523236112
    4      C      -2.6477454249    -1.1443924481     0.9337321869
    5      C      -2.2373519681    -0.0560062523     0.1725875943
    6      C      -0.9235485484     0.0345127281    -0.2732645737
    7      C      -0.4526056524     1.1888949991    -1.1245696326
    8      H       1.0012350658    -0.9095398510    -0.2800353330
    9      H       0.2715451361    -2.8488622124     1.0574115294
   10      H      -2.0717185319    -2.9999029342     1.8465516996
   11      H      -3.6721949764    -1.2019396686     1.2776197602
   12      H      -2.9430750084     0.7263847010    -0.0716503339
   13      H       0.5928751457     1.4055855179    -0.8942691968
   14      O      -1.2456580274     2.3628375436    -0.9921630272
   15      H      -0.5040465940     0.9137838820    -2.1784314727
   16      H      -1.1948545320     2.6579219591    -0.0762993136
 ----------------------------------------------------------------
 Nuclear Repulsion Energy =         341.79334745 hartrees
 There are       29 alpha and       29 beta electrons
 Discretize the solute cavity surface with Lebedev spheres
	Using 110 Lebedev grid points for each H atom
	Using 194 Lebedev grid points for other atoms
	Atomic van der Waals radii will be scaled by 1.20
 Remove points where switching function is < 1.0e-08
 Keep 1162 surface tesserae and discard 1270 interior tesserae
 Molecular Surface Area = 141.422 Angst**2
 Requested basis set is 6-311++G(2df,2p)
 There are 112 shells and 352 basis functions
 A cutoff of  1.0D-12 yielded   5819 shell pairs
 There are     58120 function pairs (     72092 Cartesian)
 Smallest overlap matrix eigenvalue = 8.25E-07
 Linear dependence detected in AO basis
 Tighter screening thresholds may be required for diffuse basis sets
 Use S2THRESH > 14 and THRESH = 14 in case of SCF convergence issues
 Number of orthogonalized atomic orbitals = 351
 Maximum deviation from orthogonality = 3.247E-11
 Guess MOs from SCF MO coefficient file

 -----------------------------------------------------------------------
  General SCF calculation program by
  Eric Jon Sundstrom, Paul Horn, Yuezhi Mao, Dmitri Zuev, Alec White,
  David Stuck, Shaama M.S., Shane Yost, Joonho Lee, David Small,
  Daniel Levine, Susi Lehtola, Hugh Burton, Evgeny Epifanovsky,
  Bang C. Huynh
 -----------------------------------------------------------------------
 Exchange:     0.1500 Hartree-Fock + 1.0000 wB97M-V + LR-HF
 Correlation:  1.0000 wB97M-V
 Using SG-2 standard quadrature grid
 Nonlocal Correlation:  VV10 with C = 0.0100 and b = 6.00 and scale = 1.00000
 Grid used for NLC:  SG-1 standard quadrature
 
 Citation of the SMD model:
 Marenich, A.V.; Cramer, C.J.; Truhlar, D.G.
 J. Phys. Chem. B 2009, 113, 6378-6396.
 iSolventCode=           1
 Solvent: water                                                           
 
 vradii
            1           2           3           4           5           6
    1   1.8500000   1.8500000   1.8500000   1.8500000   1.8500000   1.8500000
            7           8           9          10          11          12
    1   1.8500000   1.2000000   1.2000000   1.2000000   1.2000000   1.2000000
           13          14          15          16
    1   1.2000000   1.5200000   1.2000000   1.2000000
 -------------------------------------------------------
 OpenMP BLAS3 based DFT computing Module                
 Release: version 1.0, May 2013, Q-Chem Inc. Pittsburgh 
 -------------------------------------------------------
 A restricted SCF calculation will be
 performed using Roothaan-Hall, DIIS, GDM
 SCF converges when RMS gradient is below 1.0e-07
 ---------------------------------------
  Cycle       Energy         DIIS error
 ---------------------------------------
    1    -346.7404485441      3.13e-04  Roothaan Step
 ---------------------------------------
  Cycle       Energy         DIIS error
 ---------------------------------------
    1    -346.7548920824      3.53e-04  
    2    -346.7568794721      2.71e-04  Done DIIS. Switching to GDM
 ---------------------------------------
  Cycle       Energy        RMS Gradient
 ---------------------------------------
    1    -346.7568794721      4.12e-03   Normal BFGS step
    2    -346.7569925186      4.12e-03   Normal BFGS step
    3    -346.7577373297      4.24e-04   Normal BFGS step
    4    -346.7577448256      4.00e-04   Normal BFGS step
    5    -346.7577481736      4.72e-05   Normal BFGS step
    6    -346.7577482716      1.84e-05   Normal BFGS step
    7    -346.7577482849      1.07e-05   Normal BFGS step
    8    -346.7577482869      1.34e-06   Normal BFGS step
    9    -346.7577482870      9.09e-07   Normal BFGS step
   10    -346.7577482870      3.44e-07   Normal BFGS step
   11    -346.7577482870      1.49e-07   Normal BFGS step
   12    -346.7577482870      7.01e-08  Convergence criterion met
 ---------------------------------------
 SCF time:   CPU 713.69s  wall 91.00s 
(3)  G-ENP(liq) elect-nuc-pol free energy of system     -346.757748287 a.u.
(4)  G-CDS(liq) cavity-dispersion-solvent structure 
     free energy                                                3.2779 kcal/mol
(6)  G-S(liq) free energy of system                     -346.752524608 a.u.
 SCF   energy in the final basis set =     -346.7525246076
 Total energy in the final basis set =     -346.7525246076
 
 --------------------------------------------------------------
 
                    Orbital Energies (a.u.)
 --------------------------------------------------------------
 
 Alpha MOs
 -- Occupied --
-19.3372 -10.3858 -10.3508 -10.3424 -10.3421 -10.3407 -10.3398 -10.3398
 -1.1558  -0.9856  -0.8887  -0.8678  -0.7957  -0.7197  -0.7009  -0.6364
 -0.6053  -0.5674  -0.5543  -0.5420  -0.5259  -0.5164  -0.4821  -0.4638
 -0.4386  -0.4288  -0.3935  -0.3459  -0.3354
 -- Virtual --
  0.0240   0.0362   0.0369   0.0472   0.0548   0.0555   0.0593   0.0677
  0.0861   0.0878   0.1007   0.1031   0.1089   0.1269   0.1410   0.1475
  0.1524   0.1577   0.1597   0.1620   0.1647   0.1734   0.1778   0.1811
  0.1858   0.1879   0.1979   0.2018   0.2090   0.2182   0.2214   0.2310
  0.2365   0.2538   0.2582   0.2682   0.2774   0.2805   0.2862   0.2964
  0.2982   0.3196   0.3301   0.3459   0.3499   0.3531   0.3608   0.3627
  0.3734   0.3912   0.4031   0.4160   0.4294   0.4418   0.4632   0.4847
  0.5343   0.5380   0.5519   0.5766   0.5869   0.5970   0.6057   0.6085
  0.6148   0.6167   0.6224   0.6252   0.6438   0.6541   0.6645   0.6775
  0.6885   0.6953   0.7070   0.7234   0.7298   0.7316   0.7365   0.7429
  0.7504   0.7545   0.7651   0.7695   0.7770   0.7847   0.8259   0.8321
  0.8391   0.8497   0.8591   0.8616   0.8827   0.8910   0.8962   0.9122
  0.9294   0.9494   0.9922   1.0045   1.0394   1.0523   1.0661   1.0776
  1.0960   1.1080   1.1270   1.1366   1.1477   1.1656   1.1830   1.1892
  1.1994   1.2324   1.2478   1.2587   1.2706   1.2886   1.3033   1.3230
  1.3345   1.3542   1.3821   1.3887   1.3961   1.4009   1.4111   1.4292
  1.4394   1.4490   1.4551   1.4756   1.4836   1.5090   1.5299   1.5419
  1.5644   1.5672   1.5797   1.5885   1.6067   1.6220   1.6552   1.7041
  1.7287   1.7573   1.7811   1.7993   1.8200   1.8220   1.8856   1.9075
  1.9898   2.0430   2.0793   2.0888   2.1067   2.1529   2.1917   2.2320
  2.3789   2.4174   2.5496   2.5818   2.6047   2.6381   2.6739   2.6848
  2.7231   2.7294   2.8011   2.8143   2.8198   2.8319   2.8349   2.8467
  2.8636   2.8730   2.8840   2.8922   2.9141   2.9179   2.9275   2.9314
  2.9364   2.9478   2.9669   2.9759   3.0009   3.0348   3.0448   3.0607
  3.0828   3.1497   3.1801   3.1837   3.2039   3.2093   3.2148   3.2385
  3.2493   3.2559   3.2683   3.2765   3.2790   3.3138   3.3330   3.3570
  3.3669   3.3754   3.3968   3.4226   3.4345   3.4505   3.4665   3.4833
  3.4991   3.5076   3.5131   3.5185   3.5368   3.5799   3.5957   3.6082
  3.6360   3.6399   3.6666   3.6828   3.7134   3.7224   3.7809   3.7905
  3.8049   3.8240   3.8356   3.8547   3.8554   3.8881   3.9023   3.9110
  3.9249   3.9413   3.9646   3.9693   3.9924   4.0137   4.0734   4.1015
  4.1300   4.1375   4.1520   4.1666   4.1754   4.1933   4.2098   4.2391
  4.2717   4.3069   4.3472   4.3538   4.4013   4.4210   4.4238   4.4465
  4.4527   4.4697   4.5237   4.5391   4.5568   4.5746   4.5797   4.5904
  4.6018   4.6256   4.6359   4.7298   4.7428   4.7824   4.8239   4.8526
  4.8762   4.9600   5.0699   5.1348   5.1785   5.1855   5.2166   5.2664
  5.2811   5.3160   5.3464   5.4148   5.4826   5.5256   5.5442   5.5941
  5.6818   5.7046   5.7540   5.8230   5.8721   5.8912   5.9228   5.9898
  6.0719   6.2775   6.6280   6.6579   7.1015   7.3153   7.3329   7.3498
  7.6592   7.7843  24.1790  24.7935  24.8068  24.8173  25.0481  25.0653
 25.5279  50.5890
 --------------------------------------------------------------
 
          Ground-State Mulliken Net Atomic Charges

     Atom                 Charge (a.u.)
  ----------------------------------------
      1 C                    -0.504173
      2 C                    -0.351056
      3 C                    -0.374333
      4 C                    -0.377261
      5 C                    -0.169017
      6 C                     0.499853
      7 C                    -0.390760
      8 H                     0.271321
      9 H                     0.282508
     10 H                     0.276399
     11 H                     0.282625
     12 H                     0.268980
     13 H                     0.216523
     14 O                    -0.435828
     15 H                     0.175080
     16 H                     0.329141
  ----------------------------------------
  Sum of atomic charges =     0.000000

 -----------------------------------------------------------------
                    Cartesian Multipole Moments
 -----------------------------------------------------------------
    Charge (ESU x 10^10)
                 0.0000
    Dipole Moment (Debye)
         X       1.2738      Y      -0.8253      Z       1.4835
       Tot       2.1224
    Quadrupole Moments (Debye-Ang)
        XX     -46.2702     XY       1.6984     YY     -48.6992
        XZ      -4.9740     YZ       2.3522     ZZ     -50.5079
    Octopole Moments (Debye-Ang^2)
       XXX     161.7689    XXY       9.6670    XYY      63.8581
       YYY      32.7914    XXZ       7.7630    XYZ      -2.6250
       YYZ      23.0836    XZZ      60.6986    YZZ       8.1816
       ZZZ     -18.4637
    Hexadecapole Moments (Debye-Ang^3)
      XXXX    -687.3170   XXXY     -59.5823   XXYY    -255.5283
      XYYY     -61.5914   YYYY    -757.2045   XXXZ      29.9551
      XXYZ      53.6040   XYYZ     -15.6329   YYYZ     193.9970
      XXZZ    -173.9021   XYZZ      -7.5976   YYZZ    -181.9698
      XZZZ      69.0096   YZZZ     180.7180   ZZZZ    -285.2222
 -----------------------------------------------------------------
 Calculating analytic gradient of the SCF energy
 Gradient of CDS energy
            1           2           3           4           5           6
    1   0.0002945   0.0003453  -0.0001594  -0.0004812  -0.0001575  -0.0000189
    2   0.0001338  -0.0003649  -0.0004120  -0.0000096   0.0002287   0.0000219
    3  -0.0001341   0.0001051   0.0002861   0.0001519  -0.0001694  -0.0000520
            7           8           9          10          11          12
    1   0.0004964   0.0001692   0.0001360  -0.0000615  -0.0001970  -0.0000570
    2   0.0006000   0.0000513  -0.0001496  -0.0001621  -0.0000111   0.0001529
    3  -0.0006295  -0.0000453   0.0000478   0.0001140   0.0000661  -0.0000779
           13          14          15          16
    1   0.0000990  -0.0001179  -0.0002009  -0.0000893
    2  -0.0001679  -0.0002745  -0.0001119   0.0004748
    3   0.0001506   0.0000723  -0.0001053   0.0002195
 Gradient of SCF Energy
            1           2           3           4           5           6
    1  -0.0076925  -0.0043073   0.0005128   0.0052981   0.0028421   0.0014336
    2  -0.0010149   0.0022194   0.0044189   0.0011122  -0.0021364  -0.0012198
    3   0.0012227  -0.0002062  -0.0029203  -0.0025615   0.0004280   0.0012712
            7           8           9          10          11          12
    1  -0.0081248   0.0063540   0.0034192  -0.0012202  -0.0036994  -0.0014556
    2   0.0016422   0.0008163  -0.0036285  -0.0033891  -0.0002558   0.0006273
    3   0.0022281  -0.0021218   0.0011567   0.0024092   0.0013573   0.0008122
           13          14          15          16
    1   0.0058640  -0.0028150   0.0013148   0.0022763
    2   0.0006340   0.0002391  -0.0017209   0.0016559
    3   0.0018123  -0.0143201  -0.0022721   0.0117044
 Max gradient component =       1.432E-02
 RMS gradient           =       3.969E-03
 Computing fast CPCM-SWIG gradient
 Updating gradient with PCM contributions...
 -- total gradient after adding PCM contribution --
---------------------------------------------------
  Atom         X              Y              Z     
---------------------------------------------------
   1      -0.000036       0.000999      -0.000454
   2       0.000034      -0.000482       0.000189
   3      -0.000182       0.000020       0.000020
   4       0.000025      -0.000167       0.000068
   5       0.000218       0.000122      -0.000085
   6      -0.000043      -0.000306       0.000111
   7       0.000069      -0.000041      -0.000032
   8       0.000005      -0.000093       0.000011
   9       0.000014      -0.000053       0.000001
  10      -0.000007      -0.000035      -0.000004
  11      -0.000030      -0.000020       0.000001
  12      -0.000050       0.000016       0.000021
  13       0.000001       0.000028       0.000060
  14       0.000009       0.000016       0.000049
  15       0.000020      -0.000035      -0.000019
  16      -0.000047       0.000032       0.000060
---------------------------------------------------
 Number of fixed atoms: 0
 Gradient time:  CPU 162.93 s  wall 23.51 s
 ----------------------------------------------------------------
             Standard Nuclear Orientation (Angstroms)
    I     Atom           X                Y                Z
 ----------------------------------------------------------------
    1      C      -0.0270514469    -0.9805995562     0.0547995429
    2      C      -0.4367339004    -2.0698142073     0.8085553590
    3      C      -1.7512713365    -2.1547858010     1.2523236112
    4      C      -2.6477454249    -1.1443924481     0.9337321869
    5      C      -2.2373519681    -0.0560062523     0.1725875943
    6      C      -0.9235485484     0.0345127281    -0.2732645737
    7      C      -0.4526056524     1.1888949991    -1.1245696326
    8      H       1.0012350658    -0.9095398510    -0.2800353330
    9      H       0.2715451361    -2.8488622124     1.0574115294
   10      H      -2.0717185319    -2.9999029342     1.8465516996
   11      H      -3.6721949764    -1.2019396686     1.2776197602
   12      H      -2.9430750084     0.7263847010    -0.0716503339
   13      H       0.5928751457     1.4055855179    -0.8942691968
   14      O      -1.2456580274     2.3628375436    -0.9921630272
   15      H      -0.5040465940     0.9137838820    -2.1784314727
   16      H      -1.1948545320     2.6579219591    -0.0762993136
 ----------------------------------------------------------------
 Nuclear Repulsion Energy =         341.78621371 hartrees
 There are       29 alpha and       29 beta electrons
 Discretize the solute cavity surface with Lebedev spheres
	Using 110 Lebedev grid points for each H atom
	Using 194 Lebedev grid points for other atoms
	Atomic van der Waals radii will be scaled by 1.20
 Remove points where switching function is < 1.0e-08
 Keep 1160 surface tesserae and discard 1272 interior tesserae
 Molecular Surface Area = 141.424 Angst**2
 Requested basis set is 6-311++G(2df,2p)
 There are 112 shells and 352 basis functions
 A cutoff of  1.0D-12 yielded   5819 shell pairs
 There are     58120 function pairs (     72092 Cartesian)
 Smallest overlap matrix eigenvalue = 8.25E-07
 Linear dependence detected in AO basis
 Tighter screening thresholds may be required for diffuse basis sets
 Use S2THRESH > 14 and THRESH = 14 in case of SCF convergence issues
 Number of orthogonalized atomic orbitals = 351
 Maximum deviation from orthogonality = 8.872E-11
 Guess MOs from SCF MO coefficient file

 -----------------------------------------------------------------------
  General SCF calculation program by
  Eric Jon Sundstrom, Paul Horn, Yuezhi Mao, Dmitri Zuev, Alec White,
  David Stuck, Shaama M.S., Shane Yost, Joonho Lee, David Small,
  Daniel Levine, Susi Lehtola, Hugh Burton, Evgeny Epifanovsky,
  Bang C. Huynh
 -----------------------------------------------------------------------
 Exchange:     0.1500 Hartree-Fock + 1.0000 wB97M-V + LR-HF
 Correlation:  1.0000 wB97M-V
 Using SG-2 standard quadrature grid
 Nonlocal Correlation:  VV10 with C = 0.0100 and b = 6.00 and scale = 1.00000
 Grid used for NLC:  SG-1 standard quadrature
 
 Citation of the SMD model:
 Marenich, A.V.; Cramer, C.J.; Truhlar, D.G.
 J. Phys. Chem. B 2009, 113, 6378-6396.
 iSolventCode=           1
 Solvent: water                                                           
 
 vradii
            1           2           3           4           5           6
    1   1.8500000   1.8500000   1.8500000   1.8500000   1.8500000   1.8500000
            7           8           9          10          11          12
    1   1.8500000   1.2000000   1.2000000   1.2000000   1.2000000   1.2000000
           13          14          15          16
    1   1.2000000   1.5200000   1.2000000   1.2000000
 -------------------------------------------------------
 OpenMP BLAS3 based DFT computing Module                
 Release: version 1.0, May 2013, Q-Chem Inc. Pittsburgh 
 -------------------------------------------------------
 A restricted SCF calculation will be
 performed using Roothaan-Hall, DIIS, GDM
 SCF converges when RMS gradient is below 1.0e-07
 ---------------------------------------
  Cycle       Energy         DIIS error
 ---------------------------------------
    1    -346.7404392237      3.13e-04  Roothaan Step
 ---------------------------------------
  Cycle       Energy         DIIS error
 ---------------------------------------
    1    -346.7548976206      3.52e-04  
    2    -346.7568830135      2.71e-04  Done DIIS. Switching to GDM
 ---------------------------------------
  Cycle       Energy        RMS Gradient
 ---------------------------------------
    1    -346.7568830135      4.14e-03   Normal BFGS step
    2    -346.7569958278      4.11e-03   Normal BFGS step
    3    -346.7577367276      4.18e-04   Normal BFGS step
    4    -346.7577442154      3.95e-04   Normal BFGS step
    5    -346.7577475487      5.19e-05   Normal BFGS step
    6    -346.7577476469      1.82e-05   Normal BFGS step
    7    -346.7577476600      1.31e-05   Normal BFGS step
    8    -346.7577476620      1.96e-06   Normal BFGS step
    9    -346.7577476621      1.73e-06   Normal BFGS step
   10    -346.7577476622      7.08e-07   Normal BFGS step
   11    -346.7577476622      2.63e-07   Normal BFGS step
   12    -346.7577476622      8.90e-08  Convergence criterion met
 ---------------------------------------
 SCF time:   CPU 709.32s  wall 90.00s 
(3)  G-ENP(liq) elect-nuc-pol free energy of system     -346.757747662 a.u.
(4)  G-CDS(liq) cavity-dispersion-solvent structure 
     free energy                                                3.2776 kcal/mol
(6)  G-S(liq) free energy of system                     -346.752524482 a.u.
 SCF   energy in the final basis set =     -346.7525244824
 Total energy in the final basis set =     -346.7525244824
 
 --------------------------------------------------------------
 
                    Orbital Energies (a.u.)
 --------------------------------------------------------------
 
 Alpha MOs
 -- Occupied --
-19.3372 -10.3858 -10.3510 -10.3422 -10.3421 -10.3407 -10.3398 -10.3398
 -1.1559  -0.9856  -0.8886  -0.8680  -0.7957  -0.7196  -0.7009  -0.6364
 -0.6054  -0.5674  -0.5542  -0.5419  -0.5259  -0.5165  -0.4821  -0.4638
 -0.4386  -0.4288  -0.3936  -0.3461  -0.3353
 -- Virtual --
  0.0240   0.0362   0.0369   0.0471   0.0548   0.0555   0.0594   0.0676
  0.0862   0.0878   0.1007   0.1031   0.1090   0.1269   0.1410   0.1475
  0.1524   0.1577   0.1596   0.1620   0.1647   0.1734   0.1779   0.1811
  0.1858   0.1879   0.1979   0.2018   0.2090   0.2182   0.2214   0.2310
  0.2365   0.2538   0.2582   0.2682   0.2774   0.2806   0.2862   0.2965
  0.2981   0.3196   0.3300   0.3458   0.3499   0.3530   0.3609   0.3627
  0.3734   0.3913   0.4032   0.4160   0.4295   0.4418   0.4631   0.4848
  0.5343   0.5380   0.5518   0.5766   0.5869   0.5970   0.6056   0.6086
  0.6148   0.6167   0.6225   0.6252   0.6438   0.6540   0.6644   0.6775
  0.6884   0.6954   0.7069   0.7233   0.7298   0.7316   0.7364   0.7429
  0.7504   0.7545   0.7651   0.7695   0.7770   0.7848   0.8259   0.8321
  0.8391   0.8498   0.8591   0.8616   0.8828   0.8909   0.8962   0.9122
  0.9293   0.9495   0.9922   1.0046   1.0394   1.0523   1.0661   1.0776
  1.0960   1.1081   1.1270   1.1366   1.1476   1.1655   1.1831   1.1891
  1.1992   1.2324   1.2479   1.2587   1.2707   1.2886   1.3032   1.3231
  1.3345   1.3542   1.3821   1.3889   1.3960   1.4009   1.4111   1.4292
  1.4393   1.4491   1.4553   1.4756   1.4836   1.5089   1.5300   1.5419
  1.5643   1.5673   1.5797   1.5884   1.6066   1.6221   1.6553   1.7041
  1.7286   1.7573   1.7809   1.7993   1.8200   1.8220   1.8858   1.9075
  1.9897   2.0425   2.0795   2.0891   2.1067   2.1529   2.1917   2.2323
  2.3789   2.4175   2.5495   2.5820   2.6047   2.6381   2.6742   2.6848
  2.7228   2.7293   2.8013   2.8141   2.8195   2.8321   2.8348   2.8467
  2.8638   2.8729   2.8838   2.8926   2.9140   2.9179   2.9277   2.9311
  2.9363   2.9480   2.9670   2.9759   3.0007   3.0350   3.0445   3.0607
  3.0828   3.1498   3.1803   3.1837   3.2037   3.2092   3.2147   3.2385
  3.2495   3.2556   3.2686   3.2764   3.2789   3.3135   3.3329   3.3568
  3.3669   3.3756   3.3965   3.4226   3.4343   3.4502   3.4667   3.4834
  3.4989   3.5075   3.5132   3.5186   3.5374   3.5798   3.5956   3.6083
  3.6358   3.6400   3.6666   3.6830   3.7130   3.7224   3.7810   3.7905
  3.8049   3.8240   3.8355   3.8546   3.8554   3.8882   3.9024   3.9110
  3.9249   3.9414   3.9644   3.9691   3.9921   4.0137   4.0734   4.1014
  4.1302   4.1376   4.1520   4.1666   4.1753   4.1930   4.2099   4.2393
  4.2716   4.3068   4.3469   4.3539   4.4018   4.4206   4.4236   4.4464
  4.4529   4.4700   4.5243   4.5388   4.5561   4.5745   4.5797   4.5909
  4.6018   4.6258   4.6358   4.7297   4.7425   4.7827   4.8238   4.8523
  4.8765   4.9606   5.0701   5.1350   5.1783   5.1856   5.2167   5.2660
  5.2809   5.3161   5.3463   5.4152   5.4825   5.5248   5.5448   5.5940
  5.6818   5.7045   5.7536   5.8224   5.8724   5.8920   5.9225   5.9896
  6.0718   6.2778   6.6280   6.6580   7.1014   7.3153   7.3328   7.3498
  7.6592   7.7842  24.1789  24.7948  24.8057  24.8173  25.0464  25.0669
 25.5280  50.5890
 --------------------------------------------------------------
 
          Ground-State Mulliken Net Atomic Charges

     Atom                 Charge (a.u.)
  ----------------------------------------
      1 C                    -0.502943
      2 C                    -0.351290
      3 C                    -0.375009
      4 C                    -0.377155
      5 C                    -0.168754
      6 C                     0.498974
      7 C                    -0.390417
      8 H                     0.271273
      9 H                     0.282429
     10 H                     0.276359
     11 H                     0.282622
     12 H                     0.268974
     13 H                     0.216406
     14 O                    -0.435793
     15 H                     0.175111
     16 H                     0.329214
  ----------------------------------------
  Sum of atomic charges =     0.000000

 -----------------------------------------------------------------
                    Cartesian Multipole Moments
 -----------------------------------------------------------------
    Charge (ESU x 10^10)
                -0.0000
    Dipole Moment (Debye)
         X       1.2746      Y      -0.8234      Z       1.4831
       Tot       2.1218
    Quadrupole Moments (Debye-Ang)
        XX     -46.2727     XY       1.6978     YY     -48.7006
        XZ      -4.9719     YZ       2.3515     ZZ     -50.5073
    Octopole Moments (Debye-Ang^2)
       XXX     161.7721    XXY       9.6871    XYY      63.8577
       YYY      32.8309    XXZ       7.7583    XYZ      -2.6288
       YYZ      23.0794    XZZ      60.7038    YZZ       8.1947
       ZZZ     -18.4630
    Hexadecapole Moments (Debye-Ang^3)
      XXXX    -687.3193   XXXY     -59.6052   XXYY    -255.5706
      XYYY     -61.5974   YYYY    -757.3110   XXXZ      29.9722
      XXYZ      53.6171   XYYZ     -15.6212   YYYZ     193.9988
      XXZZ    -173.9147   XYZZ      -7.6083   YYZZ    -181.9891
      XZZZ      69.0228   YZZZ     180.7125   ZZZZ    -285.2155
 -----------------------------------------------------------------
 Calculating analytic gradient of the SCF energy
 Gradient of CDS energy
            1           2           3           4           5           6
    1   0.0002953   0.0003449  -0.0001590  -0.0004812  -0.0001576  -0.0000197
    2   0.0001306  -0.0003628  -0.0004121  -0.0000096   0.0002288   0.0000229
    3  -0.0001336   0.0001046   0.0002860   0.0001519  -0.0001692  -0.0000523
            7           8           9          10          11          12
    1   0.0004965   0.0001691   0.0001361  -0.0000615  -0.0001970  -0.0000570
    2   0.0006001   0.0000516  -0.0001497  -0.0001621  -0.0000111   0.0001529
    3  -0.0006297  -0.0000451   0.0000478   0.0001140   0.0000661  -0.0000779
           13          14          15          16
    1   0.0000991  -0.0001179  -0.0002009  -0.0000893
    2  -0.0001679  -0.0002745  -0.0001119   0.0004748
    3   0.0001508   0.0000723  -0.0001053   0.0002194
 Gradient of SCF Energy
            1           2           3           4           5           6
    1  -0.0074886  -0.0042771   0.0008098   0.0052446   0.0025930   0.0011863
    2  -0.0030932   0.0031423   0.0043176   0.0013588  -0.0022808  -0.0004233
    3   0.0020638  -0.0006120  -0.0029699  -0.0026730   0.0005626   0.0010319
            7           8           9          10          11          12
    1  -0.0081824   0.0064057   0.0034482  -0.0012230  -0.0036973  -0.0014530
    2   0.0017131   0.0010471  -0.0035780  -0.0033984  -0.0002498   0.0006169
    3   0.0021870  -0.0021735   0.0011093   0.0023993   0.0013556   0.0008018
           13          14          15          16
    1   0.0058602  -0.0028158   0.0013114   0.0022779
    2   0.0006316   0.0002563  -0.0017180   0.0016579
    3   0.0018154  -0.0143251  -0.0022760   0.0117024
 Max gradient component =       1.433E-02
 RMS gradient           =       4.002E-03
 Computing fast CPCM-SWIG gradient
 Updating gradient with PCM contributions...
 -- total gradient after adding PCM contribution --
---------------------------------------------------
  Atom         X              Y              Z     
---------------------------------------------------
   1       0.000145      -0.001067       0.000387
   2       0.000068       0.000449      -0.000219
   3       0.000126      -0.000085      -0.000029
   4      -0.000032       0.000084      -0.000046
   5      -0.000021      -0.000035       0.000052
   6      -0.000286       0.000509      -0.000130
   7       0.000017       0.000027      -0.000073
   8       0.000059       0.000118      -0.000039
   9       0.000045      -0.000006      -0.000045
  10      -0.000012      -0.000047      -0.000012
  11      -0.000030      -0.000015       0.000001
  12      -0.000048       0.000007       0.000010
  13      -0.000008       0.000025       0.000062
[...]
 H         -0.001 -0.007 -0.013    0.114  0.260  0.437   -0.126 -0.122 -0.246
 H         -0.126 -0.237 -0.395    0.040  0.082  0.072    0.034  0.077  0.053
 H         -0.129 -0.241 -0.412   -0.091 -0.236 -0.415    0.100  0.131  0.241
 H          0.011  0.000 -0.014   -0.136 -0.019  0.297   -0.217  0.046  0.436
 O         -0.001 -0.001 -0.000    0.000  0.024  0.007   -0.007  0.042  0.010
 H         -0.004  0.004 -0.001    0.282  0.066 -0.092    0.468 -0.024 -0.134
 H          0.000  0.001 -0.001    0.113 -0.121  0.049    0.263 -0.321  0.115
 TransDip  -0.005  0.004  0.002    0.033 -0.104 -0.012    0.096 -0.149  0.075

 Mode:                16                     17                     18
 Frequency:      1015.30                1017.36                1035.42
 Force Cnst:      0.8899                 2.8893                 0.8383
 Red. Mass:       1.4653                 4.7380                 1.3271
 IR Active:          YES                    YES                    YES
 IR Intens:        0.140                  1.928                  0.381
 Raman Active:       YES                    YES                    YES
               X      Y      Z        X      Y      Z        X      Y      Z
 C          0.031 -0.042 -0.086    0.335  0.019 -0.056   -0.009 -0.018 -0.034
 C          0.014  0.054  0.076   -0.072  0.026 -0.053    0.026  0.039  0.074
 C         -0.014 -0.037  0.026   -0.087 -0.229  0.160   -0.027 -0.053 -0.085
 C         -0.013 -0.049 -0.080    0.085  0.013  0.026    0.018  0.044  0.070
 C         -0.016  0.083  0.064   -0.251  0.212 -0.107   -0.007 -0.020 -0.033
 C         -0.002 -0.005  0.000   -0.008 -0.024  0.019    0.002  0.007  0.009
 C          0.003  0.000  0.001    0.014 -0.020 -0.008   -0.009 -0.003 -0.010
 H          0.166  0.199  0.372    0.298 -0.198 -0.251    0.059  0.126  0.203
 H         -0.140 -0.247 -0.423   -0.047  0.130  0.249   -0.117 -0.252 -0.425
 H         -0.014 -0.040  0.026   -0.080 -0.239  0.168    0.152  0.284  0.491
 H          0.141  0.223  0.430    0.011 -0.211 -0.197   -0.132 -0.220 -0.419
 H         -0.171 -0.201 -0.407   -0.261  0.314  0.201    0.068  0.122  0.205
 H          0.007 -0.001 -0.011   -0.002  0.037  0.001   -0.020  0.005  0.035
 O         -0.001  0.000 -0.000   -0.012  0.016  0.003    0.000  0.002  0.000
 H         -0.006  0.005  0.000    0.038 -0.028 -0.008    0.039 -0.005 -0.010
 H         -0.001  0.005 -0.002    0.034 -0.036  0.018    0.027 -0.035  0.011
 TransDip  -0.001 -0.012 -0.003    0.016 -0.041  0.006    0.013  0.002  0.015

 Mode:                19                     20                     21
 Frequency:      1051.93                1070.37                1106.17
 Force Cnst:      1.6887                 2.3302                 1.1476
 Red. Mass:       2.5901                 3.4520                 1.5918
 IR Active:          YES                    YES                    YES
 IR Intens:       57.718                127.629                  7.256
 Raman Active:       YES                    YES                    YES
               X      Y      Z        X      Y      Z        X      Y      Z
 C          0.008  0.065 -0.039    0.085 -0.011 -0.020    0.054  0.066 -0.053
 C          0.173 -0.118  0.012   -0.038 -0.040  0.035    0.030 -0.057  0.025
 C         -0.065 -0.122  0.095   -0.020  0.080 -0.041   -0.062  0.020  0.006
 C         -0.171  0.045  0.021    0.093 -0.018 -0.016    0.056  0.031 -0.036
 C          0.058  0.025 -0.033   -0.028 -0.055  0.034    0.003 -0.090  0.057
 C         -0.001  0.049 -0.020   -0.013  0.085 -0.024   -0.035 -0.004 -0.000
 C         -0.089  0.074  0.018   -0.204  0.231  0.017    0.082 -0.056 -0.001
 H         -0.062  0.384 -0.216    0.109 -0.082  0.012   -0.032  0.448 -0.257
 H          0.426  0.047 -0.124   -0.340 -0.247  0.252   -0.114 -0.166  0.123
 H         -0.154 -0.121  0.083   -0.266  0.189 -0.031   -0.444  0.186  0.036
 H         -0.256  0.413 -0.130    0.130 -0.143  0.048    0.004  0.291 -0.169
 H          0.276  0.179 -0.191   -0.333 -0.259  0.258   -0.299 -0.312  0.252
 H         -0.082  0.017  0.067   -0.185  0.128  0.103    0.097 -0.071 -0.070
 O          0.058 -0.076 -0.007    0.153 -0.196 -0.023   -0.045  0.048  0.007
 H         -0.018  0.076  0.011   -0.039  0.282 -0.012   -0.021 -0.089  0.014
 H         -0.014  0.003 -0.032   -0.023 -0.001 -0.086   -0.005  0.018  0.016
 TransDip  -0.062  0.229 -0.055   -0.221  0.285  0.030   -0.030 -0.081  0.002

 Mode:                22                     23                     24
 Frequency:      1158.93                1185.34                1212.84
 Force Cnst:      0.9008                 0.9219                 0.9749
 Red. Mass:       1.1383                 1.1136                 1.1249
 IR Active:          YES                    YES                    YES
 IR Intens:        0.346                  0.426                 22.892
 Raman Active:       YES                    YES                    YES
               X      Y      Z        X      Y      Z        X      Y      Z
 C         -0.014  0.009 -0.003   -0.012  0.044 -0.024    0.005 -0.006 -0.011
 C         -0.038 -0.021  0.024   -0.041 -0.015  0.021    0.001 -0.000 -0.001
 C          0.068 -0.029 -0.002   -0.002 -0.009  0.006   -0.001 -0.001  0.002
 C         -0.014  0.045 -0.024    0.023 -0.035  0.015    0.000 -0.001 -0.001
 C         -0.017  0.002  0.004    0.033  0.018 -0.021   -0.001 -0.005 -0.010
 C          0.013 -0.008  0.004   -0.007 -0.019  0.015    0.010  0.037  0.047
 C         -0.011  0.003 -0.001    0.007  0.007 -0.007    0.009 -0.056 -0.048
 H         -0.041  0.130 -0.061   -0.109  0.474 -0.238    0.022 -0.017  0.038
 H         -0.323 -0.215  0.224   -0.351 -0.228  0.234   -0.002  0.001  0.013
 H          0.651 -0.282 -0.046   -0.008 -0.006  0.007   -0.009 -0.003 -0.003
 H         -0.098  0.427 -0.208    0.103 -0.394  0.193    0.002  0.003  0.007
 H         -0.116 -0.065  0.072    0.371  0.251 -0.253    0.025  0.030  0.028
 H         -0.019  0.018  0.019    0.006  0.014 -0.009    0.061 -0.451  0.120
 O          0.006 -0.004 -0.001   -0.000 -0.001  0.000   -0.002 -0.015  0.025
 H          0.011  0.028 -0.009   -0.005  0.014 -0.008    0.026  0.565 -0.211
 H         -0.005  0.004 -0.004   -0.007  0.002 -0.000   -0.370  0.496 -0.128
 TransDip  -0.013  0.011  0.007   -0.017  0.011  0.005   -0.101  0.108  0.040

 Mode:                25                     26                     27
 Frequency:      1232.06                1302.24                1340.79
 Force Cnst:      2.4853                 3.9612                 1.5920
 Red. Mass:       2.7788                 3.9646                 1.5031
 IR Active:          YES                    YES                    YES
 IR Intens:       16.481                  3.264                  0.922
 Raman Active:       YES                    YES                    YES
               X      Y      Z        X      Y      Z        X      Y      Z
 C          0.030  0.022 -0.018   -0.058  0.160 -0.079   -0.003 -0.096  0.056
 C          0.065 -0.082  0.030   -0.131 -0.105  0.100    0.012  0.025 -0.019
 C         -0.019  0.020 -0.006    0.148 -0.066 -0.007   -0.097  0.041  0.006
 C         -0.083 -0.063  0.062   -0.094  0.156 -0.063   -0.013 -0.029  0.021
 C          0.062  0.056 -0.048   -0.112 -0.038  0.059    0.071  0.074 -0.066
 C          0.030  0.261 -0.182    0.304 -0.039 -0.068    0.047 -0.013 -0.003
 C         -0.015 -0.112  0.069   -0.065 -0.098  0.025   -0.024 -0.029 -0.001
 H          0.110 -0.302  0.119   -0.035  0.068 -0.029   -0.139  0.489 -0.233
 H         -0.266 -0.322  0.260    0.252  0.159 -0.162    0.174  0.139 -0.134
 H          0.094 -0.033 -0.010   -0.169  0.065  0.015    0.292 -0.123 -0.017
 H         -0.049 -0.254  0.156    0.048 -0.492  0.270    0.036 -0.256  0.137
 H         -0.167 -0.096  0.091   -0.235 -0.118  0.139   -0.422 -0.260  0.285
 H          0.015 -0.375  0.145   -0.162  0.304  0.050   -0.063  0.192 -0.034
 O         -0.037  0.034  0.011    0.025  0.013  0.009    0.014  0.000  0.007
 H         -0.006 -0.388  0.143    0.119  0.028 -0.016    0.049  0.049 -0.027
 H          0.012  0.009  0.021   -0.111  0.144 -0.028   -0.067  0.094 -0.021
 TransDip   0.043 -0.123  0.001   -0.041 -0.031  0.027   -0.019 -0.018  0.015

 Mode:                28                     29                     30
 Frequency:      1382.50                1413.85                1477.12
 Force Cnst:      1.3516                 1.5852                 1.3954
 Red. Mass:       1.2003                 1.3460                 1.0855
 IR Active:          YES                    YES                    YES
 IR Intens:       22.174                 72.198                 11.943
 Raman Active:       YES                    YES                    YES
               X      Y      Z        X      Y      Z        X      Y      Z
 C         -0.007  0.003  0.001   -0.021  0.011 -0.002    0.009 -0.004  0.000
 C          0.027  0.016 -0.018    0.035  0.017 -0.021   -0.009 -0.009  0.009
 C          0.002  0.001 -0.001    0.006 -0.005  0.001   -0.007  0.007 -0.002
 C          0.007 -0.034  0.018   -0.008 -0.041  0.026    0.009  0.005 -0.006
 C         -0.006  0.004  0.000    0.004  0.019 -0.014   -0.008 -0.011  0.008
 C         -0.030  0.010 -0.007    0.004  0.030 -0.009   -0.007  0.008 -0.003
 C         -0.011 -0.058 -0.056   -0.004 -0.118  0.090   -0.060  0.015  0.046
 H          0.015 -0.090  0.058   -0.001 -0.085  0.054    0.003  0.016 -0.015
 H         -0.109 -0.079  0.074   -0.138 -0.100  0.101    0.039  0.023 -0.025
 H         -0.098  0.045  0.007   -0.128  0.051  0.010    0.045 -0.015 -0.007
 H         -0.031  0.133 -0.069   -0.041  0.095 -0.042    0.013 -0.003 -0.001
 H          0.064  0.050 -0.053   -0.005  0.016 -0.002    0.039  0.020 -0.024
 H         -0.153  0.597 -0.092   -0.050  0.473 -0.277    0.166 -0.224 -0.642
 O          0.041 -0.006  0.057    0.003  0.009 -0.039   -0.008  0.005  0.005
 H          0.217 -0.335 -0.003   -0.067  0.691 -0.118    0.704 -0.013 -0.001
 H         -0.362  0.468 -0.084    0.180 -0.236  0.034    0.003 -0.005  0.009
 TransDip  -0.085  0.114 -0.050    0.030 -0.253  0.095    0.068  0.048 -0.073

 Mode:                31                     32                     33
 Frequency:      1488.16                1534.71                1654.79
 Force Cnst:      2.9114                 3.3327                 9.9136
 Red. Mass:       2.2313                 2.4015                 6.1446
 IR Active:          YES                    YES                    YES
 IR Intens:       15.353                 13.944                  0.414
 Raman Active:       YES                    YES                    YES
               X      Y      Z        X      Y      Z        X      Y      Z
 C          0.074  0.054 -0.053   -0.077  0.095 -0.032    0.153 -0.157  0.046
 C         -0.019 -0.113  0.071    0.144  0.052 -0.074   -0.216  0.022  0.051
 C         -0.135  0.056  0.008   -0.042 -0.087  0.063    0.345 -0.150 -0.017
 C          0.059  0.098 -0.075   -0.062  0.139 -0.062   -0.176  0.153 -0.036
 C          0.018 -0.095  0.051    0.113  0.010 -0.040    0.221  0.002 -0.068
 C         -0.146  0.066  0.003   -0.049 -0.123  0.088   -0.315  0.123  0.022
 C          0.036 -0.051  0.006    0.006  0.038 -0.020    0.031 -0.020  0.000
 H          0.143 -0.173  0.059    0.023 -0.392  0.221    0.076  0.221 -0.149
 H          0.318  0.097 -0.150   -0.310 -0.271  0.250    0.015  0.207 -0.125
 H          0.562 -0.239 -0.034   -0.025 -0.116  0.076   -0.405  0.165  0.029
 H          0.168 -0.307  0.126    0.055 -0.413  0.224   -0.120 -0.182  0.144
 H          0.214  0.018 -0.078   -0.250 -0.254  0.226   -0.095 -0.232  0.163
 H         -0.040  0.323 -0.050    0.037 -0.032 -0.081    0.007  0.177 -0.112
 O          0.006 -0.002  0.001   -0.001  0.000  0.002    0.001 -0.006  0.005
 H         -0.099  0.130 -0.035    0.089 -0.013 -0.013    0.002  0.047 -0.019
 H         -0.015  0.015 -0.005   -0.009  0.006 -0.001   -0.014  0.015 -0.003
 TransDip   0.091 -0.086  0.004   -0.040 -0.081  0.078   -0.020 -0.004 -0.001

 Mode:                34                     35                     36
 Frequency:      1674.68                3051.28                3098.79
 Force Cnst:     10.1401                 5.8272                 6.2361
 Red. Mass:       6.1366                 1.0623                 1.1022
 IR Active:          YES                    YES                    YES
 IR Intens:        7.549                 62.159                 26.606
 Raman Active:       YES                    YES                    YES
               X      Y      Z        X      Y      Z        X      Y      Z
 C          0.008  0.284 -0.167    0.001  0.000 -0.000    0.001  0.000 -0.000
 C         -0.155 -0.198  0.162   -0.000 -0.000  0.000   -0.000  0.000 -0.000
 C          0.039  0.112 -0.077    0.000 -0.000  0.000    0.000  0.000 -0.000
 C         -0.012 -0.249  0.149   -0.000  0.000  0.000    0.000  0.000 -0.000
 C          0.182  0.204 -0.175    0.000  0.000 -0.000   -0.000 -0.000  0.000
 C         -0.079 -0.183  0.133   -0.000  0.000 -0.001   -0.001  0.000 -0.001
 C          0.010  0.033 -0.020   -0.067 -0.008  0.020   -0.039 -0.027 -0.079
 H          0.160 -0.336  0.147   -0.009 -0.003  0.002   -0.006 -0.001  0.001
 H          0.280  0.086 -0.132   -0.000 -0.000  0.000    0.001 -0.001  0.000
 H          0.058  0.124 -0.087    0.000  0.001 -0.001   -0.000 -0.001  0.000
 H         -0.135  0.249 -0.102    0.001 -0.000 -0.000   -0.000  0.000  0.000
 H         -0.316 -0.128  0.174    0.003 -0.003  0.001    0.000  0.000 -0.000
 H          0.030 -0.024 -0.051    0.841  0.190  0.203    0.425  0.096  0.086
 O         -0.001 -0.001  0.001   -0.001  0.002 -0.000    0.000  0.000  0.001
 H          0.050  0.009 -0.014   -0.038 -0.120 -0.441    0.044  0.220  0.862
 H         -0.004  0.001 -0.001    0.002  0.003  0.007   -0.004  0.002 -0.015
 TransDip  -0.032 -0.058  0.058   -0.237  0.018  0.085   -0.079 -0.049 -0.137

 Mode:                37                     38                     39
 Frequency:      3175.19                3185.82                3195.27
 Force Cnst:      6.4653                 6.5001                 6.5647
 Red. Mass:       1.0884                 1.0870                 1.0913
 IR Active:          YES                    YES                    YES
 IR Intens:       11.995                  0.070                 19.349
 Raman Active:       YES                    YES                    YES
               X      Y      Z        X      Y      Z        X      Y      Z
 C         -0.075 -0.004  0.024    0.020  0.002 -0.007    0.023  0.003 -0.008
 C          0.021 -0.020  0.006    0.009 -0.012  0.005    0.035 -0.041  0.014
 C          0.003  0.009 -0.006    0.014  0.034 -0.024    0.009  0.032 -0.022
 C         -0.008 -0.000  0.003   -0.058 -0.004  0.020    0.034 -0.000 -0.010
 C          0.002 -0.002  0.000    0.019 -0.019  0.005   -0.023  0.023 -0.007
 C          0.001 -0.002  0.001   -0.001  0.000  0.000    0.000  0.001 -0.001
 C         -0.001 -0.000 -0.000    0.000 -0.000  0.000    0.000  0.000  0.000
 H          0.866  0.055 -0.280   -0.226 -0.015  0.073   -0.248 -0.017  0.081
 H         -0.240  0.261 -0.083   -0.121  0.135 -0.044   -0.414  0.459 -0.148
 H         -0.040 -0.104  0.073   -0.155 -0.405  0.285   -0.132 -0.358  0.251
 H          0.091  0.005 -0.031    0.684  0.039 -0.230   -0.380 -0.020  0.127
 H         -0.023  0.024 -0.007   -0.218  0.239 -0.074    0.254 -0.279  0.086
 H          0.010  0.004  0.001   -0.002 -0.001 -0.000   -0.003 -0.002  0.000
 O          0.000  0.000 -0.000   -0.000 -0.000  0.000    0.000 -0.000 -0.000
 H          0.000  0.001  0.001   -0.000 -0.001 -0.001   -0.000 -0.001  0.001
 H         -0.000 -0.000  0.000    0.000  0.000 -0.000   -0.000 -0.000 -0.000
 TransDip  -0.092 -0.037  0.049   -0.005  0.007 -0.001    0.131  0.014 -0.049

 Mode:                40                     41                     42
 Frequency:      3204.01                3211.20                3822.01
 Force Cnst:      6.6158                 6.6733                 9.1787
 Red. Mass:       1.0938                 1.0984                 1.0665
 IR Active:          YES                    YES                    YES
 IR Intens:       32.920                 15.884                 98.926
 Raman Active:       YES                    YES                    YES
               X      Y      Z        X      Y      Z        X      Y      Z
 C          0.012  0.003 -0.005    0.010  0.002 -0.004    0.000  0.000 -0.000
 C          0.029 -0.031  0.010    0.027 -0.028  0.008   -0.000  0.000 -0.000
 C         -0.012 -0.024  0.018   -0.016 -0.043  0.030    0.000 -0.000 -0.000
 C          0.021  0.004 -0.009   -0.042 -0.002  0.014   -0.000 -0.000 -0.000
 C          0.042 -0.047  0.015   -0.024  0.029 -0.010   -0.000 -0.000 -0.000
 C         -0.003  0.000  0.001    0.001  0.001 -0.001   -0.000  0.000  0.000
 C          0.000 -0.000  0.000    0.000  0.000 -0.000   -0.001  0.000 -0.002
 H         -0.133 -0.011  0.044   -0.111 -0.009  0.037   -0.000 -0.000  0.000
 H         -0.317  0.349 -0.111   -0.284  0.310 -0.098   -0.000  0.000 -0.000
 H          0.108  0.277 -0.196    0.180  0.475 -0.334    0.000  0.000 -0.000
 H         -0.240 -0.017  0.083    0.458  0.025 -0.153    0.000  0.000 -0.000
 H         -0.483  0.534 -0.166    0.282 -0.314  0.098   -0.000 -0.000  0.000
 H          0.002  0.001 -0.000   -0.004 -0.002  0.000   -0.001  0.003  0.000
 O         -0.000 -0.000  0.000    0.000 -0.000 -0.000   -0.002 -0.021 -0.059
 H          0.000  0.000 -0.001   -0.000 -0.000  0.003    0.001  0.005  0.014
 H          0.000  0.000 -0.000   -0.000 -0.000 -0.000    0.047  0.316  0.945
 TransDip   0.130 -0.125  0.035   -0.065 -0.087  0.067   -0.017  0.171  0.268

 STANDARD THERMODYNAMIC QUANTITIES AT   298.15 K  AND     1.00 ATM

   This Molecule has  1 Imaginary Frequencies
   Zero point vibrational energy:       83.742 kcal/mol

   Atom    1 Element C  Has Mass   12.00000
   Atom    2 Element C  Has Mass   12.00000
   Atom    3 Element C  Has Mass   12.00000
   Atom    4 Element C  Has Mass   12.00000
   Atom    5 Element C  Has Mass   12.00000
   Atom    6 Element C  Has Mass   12.00000
   Atom    7 Element C  Has Mass   12.00000
   Atom    8 Element H  Has Mass    1.00783
   Atom    9 Element H  Has Mass    1.00783
   Atom   10 Element H  Has Mass    1.00783
   Atom   11 Element H  Has Mass    1.00783
   Atom   12 Element H  Has Mass    1.00783
   Atom   13 Element H  Has Mass    1.00783
   Atom   14 Element O  Has Mass   15.99491
   Atom   15 Element H  Has Mass    1.00783
   Atom   16 Element H  Has Mass    1.00783
   Molecular Mass:   108.057550 amu
   Principal axes and moments of inertia in amu*Bohr^2:
                             1           2           3
    Eigenvalues --      366.77599  1215.42514  1550.13720
          X               0.11326     0.95176     0.28518
          Y               0.87660    -0.23083     0.42225
          Z              -0.46771    -0.20216     0.86045
   Rotational Symmetry Number is   1
   The Molecule is an Asymmetric Top
   Translational Enthalpy:        0.889 kcal/mol
   Rotational Enthalpy:           0.889 kcal/mol
   Vibrational Enthalpy:         85.911 kcal/mol
   gas constant (RT):             0.592 kcal/mol
   Translational Entropy:        39.949  cal/mol.K
   Rotational Entropy:           28.026  cal/mol.K
   Vibrational Entropy:          11.216  cal/mol.K

   Total Enthalpy:               88.281 kcal/mol
   Total Entropy:                79.191  cal/mol.K
 Total job time:  14717.24s(wall), 112553.77s(cpu) 
 Thu Jan 26 06:50:18 2023

        *************************************************************
        *                                                           *
        *  Thank you very much for using Q-Chem.  Have a nice day.  *
        *                                                           *
        *************************************************************


