
Running Job 1 of 1 Q_in.in
qchem Q_in.in_340222.0 /scratch/ari.fischer/qChem1353047.hpc-mn1/qchem340222/ 0
/usr/local/qchem-5.4.1/exe/qcprog.exe_s Q_in.in_340222.0 /scratch/ari.fischer/qChem1353047.hpc-mn1/qchem340222/
                  Welcome to Q-Chem
     A Quantum Leap Into The Future Of Chemistry


 Q-Chem 5.4, Q-Chem, Inc., Pleasanton, CA (2021)

 License issued to: Nanyang Technological University (site)

 E. Epifanovsky,  A. T. B. Gilbert,  Xintian Feng,  Joonho Lee,  Yuezhi Mao,  
 N. Mardirossian,  P. Pokhilko,  A. White,  M. Wormit,  M. P. Coons,  
 A. L. Dempwolff,  Zhengting Gan,  D. Hait,  P. R. Horn,  L. D. Jacobson,  
 I. Kaliman,  J. Kussmann,  A. W. Lange,  Ka Un Lao,  D. S. Levine,  Jie Liu,  
 S. C. McKenzie,  A. F. Morrison,  K. Nanda,  F. Plasser,  D. R. Rehn,  
 M. L. Vidal,  Zhi-Qiang You,  Ying Zhu,  B. Alam,  B. Albrecht,  
 A. Aldossary,  E. Alguire,  J. H. Andersen,  D. Barton,  K. Begam,  A. Behn,  
 Y. A. Bernard,  E. J. Berquist,  H. Burton,  A. Carreras,  K. Carter-Fenk,  
 R. Chakraborty,  A. D. Chien,  K. D. Closser,  V. Cofer-Shabica,  
 S. Dasgupta,  Jia Deng,  M. de Wergifosse,  M. Diedenhofen,  Hainam Do,  
 S. Ehlert,  Po-Tung Fang,  S. Fatehi,  Qingguo Feng,  T. Friedhoff,  
 J. Gayvert,  Qinghui Ge,  G. Gidofalvi,  M. Goldey,  J. Gomes,  
 C. Gonzalez-Espinoza,  S. Gulania,  A. Gunina,  M. W. D. Hanson-Heine,  
 P. H. P. Harbach,  A. W. Hauser,  M. F. Herbst,  M. Hernandez Vera,  
 M. Hodecker,  Z. C. Holden,  S. Houck,  Xunkun Huang,  Kerwin Hui,  
 B. C. Huynh,  M. Ivanov,  Hyunjun Ji,  Hanjie Jiang,  B. Kaduk,  S. Kaehler,  
 K. Khistyaev,  Jaehoon Kim,  P. Klunzinger,  Z. Koczor-Benda,  
 Joong Hoon Koh,  D. Kosenkov,  L. Koulias,  T. Kowalczyk,  C. M. Krauter,  
 K. Kue,  A. Kunitsa,  T. Kus,  A. Landau,  K. V. Lawler,  D. Lefrancois,  
 S. Lehtola,  Rain Li,  Yi-Pei Li,  Jiashu Liang,  M. Liebenthal,  
 Hung-Hsuan Lin,  You-Sheng Lin,  Fenglai Liu,  Kuan-Yu Liu,  
 M. Loipersberger,  A. Luenser,  A. Manjanath,  P. Manohar,  E. Mansoor,  
 S. F. Manzer,  Shan-Ping Mao,  A. V. Marenich,  T. Markovich,  S. Mason,  
 S. A. Maurer,  P. F. McLaughlin,  M. F. S. J. Menger,  J.-M. Mewes,  
 S. A. Mewes,  P. Morgante,  J. W. Mullinax,  K. J. Oosterbaan,  G. Paran,  
 Alexander C. Paul,  Suranjan K. Paul,  F. Pavosevic,  Zheng Pei,  S. Prager,  
 E. I. Proynov,  E. Ramos,  B. Rana,  A. E. Rask,  A. Rettig,  R. M. Richard,  
 F. Rob,  E. Rossomme,  T. Scheele,  M. Scheurer,  M. Schneider,  
 N. Sergueev,  S. M. Sharada,  W. Skomorowski,  D. W. Small,  C. J. Stein,  
 Yu-Chuan Su,  E. J. Sundstrom,  Zhen Tao,  J. Thirman,  T. Tsuchimochi,  
 N. M. Tubman,  S. P. Veccham,  O. Vydrov,  J. Wenzel,  J. Witte,  A. Yamada,  
 Kun Yao,  S. Yeganeh,  S. R. Yost,  A. Zech,  Igor Ying Zhang,  Xing Zhang,  
 Yu Zhang,  D. Zuev,  A. Aspuru-Guzik,  A. T. Bell,  N. A. Besley,  
 K. B. Bravaya,  B. R. Brooks,  D. Casanova,  Jeng-Da Chai,  S. Coriani,  
 C. J. Cramer,  A. E. DePrince, III,  R. A. DiStasio Jr.,  A. Dreuw,  
 B. D. Dunietz,  T. R. Furlani,  W. A. Goddard III,  S. Grimme,  
 S. Hammes-Schiffer,  T. Head-Gordon,  W. J. Hehre,  Chao-Ping Hsu,  
 T.-C. Jagau,  Yousung Jung,  A. Klamt,  Jing Kong,  D. S. Lambrecht,  
 WanZhen Liang,  N. J. Mayhall,  C. W. McCurdy,  J. B. Neaton,  
 C. Ochsenfeld,  J. A. Parkhill,  R. Peverati,  V. A. Rassolov,  Yihan Shao,  
 L. V. Slipchenko,  T. Stauch,  R. P. Steele,  J. E. Subotnik,  
 A. J. W. Thom,  A. Tkatchenko,  D. G. Truhlar,  T. Van Voorhis,  
 T. A. Wesolowski,  K. B. Whaley,  H. L. Woodcock III,  P. M. Zimmerman,  
 S. Faraji,  P. M. W. Gill,  M. Head-Gordon,  J. M. Herbert,  A. I. Krylov

 Additional authors for Version 5.4.1: 
 S. Kotaru,  Shaozhi Li,  Xiangyuan Li,  F. Matz,  A. Molle,  Haisheng Ren,  
 Yingli Su,  Hung-Yi Tsai,  C. Utku,  Fang Wang

 Contributors to earlier versions of Q-Chem not listed above: 
 R. D. Adamson,  B. Austin,  R. Baer,  J. Baker,  G. J. O. Beran,  
 K. Brandhorst,  S. T. Brown,  E. F. C. Byrd,  A. K. Chakraborty,  
 G. K. L. Chan,  Chun-Min Chang,  Yunqing Chen,  C.-L. Cheng,  
 Siu Hung Chien,  D. M. Chipman,  D. L. Crittenden,  H. Dachsel,  
 R. J. Doerksen,  A. D. Dutoi,  R. G. Edgar,  J. Fosso-Tande,  
 L. Fusti-Molnar,  D. Ghosh,  A. Ghysels,  A. Golubeva-Zadorozhnaya,  
 J. Gonthier,  M. S. Gordon,  S. R. Gwaltney,  G. Hawkins,  J. E. Herr,  
 A. Heyden,  S. Hirata,  E. G. Hohenstein,  G. Kedziora,  F. J. Keil,  
 C. Kelley,  Jihan Kim,  R. A. King,  R. Z. Khaliullin,  P. P. Korambath,  
 W. Kurlancheek,  A. Laurent,  A. M. Lee,  M. S. Lee,  S. V. Levchenko,  
 Ching Yeh Lin,  D. Liotard,  E. Livshits,  R. C. Lochan,  I. Lotan,  
 L. A. Martinez-Martinez,  P. E. Maslen,  N. Nair,  D. P. O'Neill,  
 D. Neuhauser,  E. Neuscamman,  C. M. Oana,  R. Olivares-Amaya,  R. Olson,  
 T. M. Perrine,  B. Peters,  P. A. Pieniazek,  A. Prociuk,  Y. M. Rhee,  
 J. Ritchie,  M. A. Rohrdanz,  E. Rosta,  N. J. Russ,  H. F. Schaefer III,  
 M. W. Schmidt,  N. E. Schultz,  S. Sharma,  N. Shenvi,  C. D. Sherrill,  
 A. C. Simmonett,  A. Sodt,  T. Stein,  D. Stuck,  K. S. Thanthiriwatte,  
 V. Vanovschi,  L. Vogt,  Tao Wang,  A. Warshel,  M. A. Watson,  
 C. F. Williams,  Q. Wu,  X. Xu,  Jun Yang,  W. Zhang,  Yan Zhao

 Please cite Q-Chem as follows:
 Y. Shao et al., Mol. Phys. 113, 184-215 (2015)
 DOI: 10.1080/00268976.2014.952696

 Q-Chem 5.4.1 for Intel X86 EM64T Linux

 Parts of Q-Chem use Armadillo 9.800.1 (Horizon Scraper).
 http://arma.sourceforge.net/

 Q-Chem begins on Wed Dec 14 17:36:46 2022  

 Host: 
0

     Scratch files written to /scratch/ari.fischer/qChem1353047.hpc-mn1/qchem340222//
 Aug1521 |scratch|qcdevops|jenkins|workspace|build_RNUM 8249   
 Processing $rem in /usr/local/qchem-5.4.1/config/preferences:
 Processing $rem in /home/ari.fischer/.qchemrc:
 Symmetry turned off for PCM/SM12/SMD calculation

 Checking the input file for inconsistencies... 	...done.

--------------------------------------------------------------
User input:
--------------------------------------------------------------
$molecule
0 1
C        -0.0180167640   -0.9875079826    0.0524241794
C        -0.4354251643   -2.0794081371    0.8090140951
C        -1.7545972095   -2.1570768781    1.2559909891
C        -2.6496251859   -1.1379760987    0.9380957587
C        -2.2316330824   -0.0488612768    0.1741919574
C        -0.9128555319    0.0349100494   -0.2747511903
C        -0.4505031789    1.1984609892   -1.1260846200
H         1.0145649830   -0.9238249574   -0.2855119189
H         0.2713993434   -2.8663639594    1.0577210789
H        -2.0802979695   -3.0051042798    1.8518544007
H        -3.6783374475   -1.1895937653    1.2850141927
H        -2.9305264487    0.7454618890   -0.0714635845
H         0.5968121090    1.4326165843   -0.8914555225
O        -1.2696971129    2.3546462666   -1.0030831408
H        -0.4884696873    0.9216167883   -2.1854444700
H        -1.2249922526    2.6330831682   -0.0736138050
$end

$rem
BASIS = 6-311++G(2df,2p)
GUI = 2
JOB_TYPE = Optimization
METHOD = wB97M-V
SCF_ALGORITHM = DIIS_GDM
MAX_SCF_CYCLES = 400
GEOM_OPT_MAX_CYCLES = 150
SCF_CONVERGENCE = 7
THRESH = 12
Solvent_method = SMD
$end
--------------------------------------------------------------
 ----------------------------------------------------------------
             Standard Nuclear Orientation (Angstroms)
    I     Atom           X                Y                Z
 ----------------------------------------------------------------
    1      C      -0.0180167640    -0.9875079826     0.0524241794
    2      C      -0.4354251643    -2.0794081371     0.8090140951
    3      C      -1.7545972095    -2.1570768781     1.2559909891
    4      C      -2.6496251859    -1.1379760987     0.9380957587
    5      C      -2.2316330824    -0.0488612768     0.1741919574
    6      C      -0.9128555319     0.0349100494    -0.2747511903
    7      C      -0.4505031789     1.1984609892    -1.1260846200
    8      H       1.0145649830    -0.9238249574    -0.2855119189
    9      H       0.2713993434    -2.8663639594     1.0577210789
   10      H      -2.0802979695    -3.0051042798     1.8518544007
   11      H      -3.6783374475    -1.1895937653     1.2850141927
   12      H      -2.9305264487     0.7454618890    -0.0714635845
   13      H       0.5968121090     1.4326165843    -0.8914555225
   14      O      -1.2696971129     2.3546462666    -1.0030831408
   15      H      -0.4884696873     0.9216167883    -2.1854444700
   16      H      -1.2249922526     2.6330831682    -0.0736138050
 ----------------------------------------------------------------
 Nuclear Repulsion Energy =         340.90838700 hartrees
 There are       29 alpha and       29 beta electrons
 Requested basis set is 6-311++G(2df,2p)
 There are 112 shells and 352 basis functions

 Total QAlloc Memory Limit 288000 MB
 Mega-Array Size       188 MB
 MEM_STATIC part       192 MB
 
 Citation of the SMD model:
 Marenich, A.V.; Cramer, C.J.; Truhlar, D.G.
 J. Phys. Chem. B 2009, 113, 6378-6396.
 iSolventCode=           1
 Solvent: water                                                           
 
 vradii
            1           2           3           4           5           6
    1   1.8500000   1.8500000   1.8500000   1.8500000   1.8500000   1.8500000
            7           8           9          10          11          12
    1   1.8500000   1.2000000   1.2000000   1.2000000   1.2000000   1.2000000
           13          14          15          16
    1   1.2000000   1.5200000   1.2000000   1.2000000
 Changing PCM_VDW_RADII to SMD_RADIUS
 Discretize the solute cavity surface with Lebedev spheres
	Using 110 Lebedev grid points for each H atom
	Using 194 Lebedev grid points for other atoms
	Atomic van der Waals radii will be scaled by 1.20
 Remove points where switching function is < 1.0e-08
 Keep 1171 surface tesserae and discard 1261 interior tesserae
 Molecular Surface Area = 141.781 Angst**2
 A cutoff of  1.0D-12 yielded   5813 shell pairs
 There are     58083 function pairs (     72048 Cartesian)
 Smallest overlap matrix eigenvalue = 8.45E-07
 Linear dependence detected in AO basis
 Tighter screening thresholds may be required for diffuse basis sets
 Use S2THRESH > 14 and THRESH = 14 in case of SCF convergence issues
 Number of orthogonalized atomic orbitals = 351
 Maximum deviation from orthogonality = 6.523E-11

 Scale SEOQF with 1.000000e-01/1.000000e-01/1.000000e-01

 Standard Electronic Orientation quadrupole field applied
 Nucleus-field energy     =     0.0000000107 hartrees
 Guess from superposition of atomic densities
 Warning:  Energy on first SCF cycle will be non-variational
 SAD guess density has 58.000000 electrons

 -----------------------------------------------------------------------
  General SCF calculation program by
  Eric Jon Sundstrom, Paul Horn, Yuezhi Mao, Dmitri Zuev, Alec White,
  David Stuck, Shaama M.S., Shane Yost, Joonho Lee, David Small,
  Daniel Levine, Susi Lehtola, Hugh Burton, Evgeny Epifanovsky,
  Bang C. Huynh
 -----------------------------------------------------------------------
 Exchange:     0.1500 Hartree-Fock + 1.0000 wB97M-V + LR-HF
 Correlation:  1.0000 wB97M-V
 Using SG-2 standard quadrature grid
 Nonlocal Correlation:  VV10 with C = 0.0100 and b = 6.00 and scale = 1.00000
 Grid used for NLC:  SG-1 standard quadrature
 
 Citation of the SMD model:
 Marenich, A.V.; Cramer, C.J.; Truhlar, D.G.
 J. Phys. Chem. B 2009, 113, 6378-6396.
 iSolventCode=           1
 Solvent: water                                                           
 
 vradii
            1           2           3           4           5           6
    1   1.8500000   1.8500000   1.8500000   1.8500000   1.8500000   1.8500000
            7           8           9          10          11          12
    1   1.8500000   1.2000000   1.2000000   1.2000000   1.2000000   1.2000000
           13          14          15          16
    1   1.2000000   1.5200000   1.2000000   1.2000000
 using 8 threads for integral computing
 -------------------------------------------------------
 OpenMP Integral computing Module                
 Release: version 1.0, May 2013, Q-Chem Inc. Pittsburgh 
 -------------------------------------------------------
 -------------------------------------------------------
 OpenMP BLAS3 based DFT computing Module                
 Release: version 1.0, May 2013, Q-Chem Inc. Pittsburgh 
 -------------------------------------------------------
 A restricted SCF calculation will be
 performed using DIIS, GDM
 SCF converges when RMS gradient is below 1.0e-07
 ---------------------------------------
  Cycle       Energy         DIIS error
 ---------------------------------------
    1    -349.1764592192      2.74e-02  
    2    -346.6863168919      2.19e-03  Done DIIS. Switching to GDM
 ---------------------------------------
  Cycle       Energy        RMS Gradient
 ---------------------------------------
    1    -346.6863168919      4.33e-02   Normal BFGS step
    2    -346.7188484666      2.86e-02   Normal BFGS step
    3    -346.7563021731      4.19e-03   Normal BFGS step
    4    -346.7569292204      4.48e-03   Normal BFGS step
    5    -346.7573623179      3.41e-04   Normal BFGS step
    6    -346.7573677069      1.14e-04   Normal BFGS step
    7    -346.7573686331      4.50e-05   Normal BFGS step
    8    -346.7573686964      3.05e-05   Normal BFGS step
    9    -346.7573687051      9.53e-06   Normal BFGS step
   10    -346.7573687058      4.14e-06   Normal BFGS step
   11    -346.7573687060      1.14e-06   Normal BFGS step
   12    -346.7573687060      4.18e-07   Normal BFGS step
   13    -346.7573687060      1.27e-07   Normal BFGS step
   14    -346.7573687061      5.23e-08  Convergence criterion met
 ---------------------------------------
 SCF time:   CPU 936.49s  wall 120.00s 
(3)  G-ENP(liq) elect-nuc-pol free energy of system     -346.757368706 a.u.
(4)  G-CDS(liq) cavity-dispersion-solvent structure 
     free energy                                                3.2986 kcal/mol
(6)  G-S(liq) free energy of system                     -346.752112040 a.u.
 SCF   energy in the final basis set =     -346.7521120404
 Total energy in the final basis set =     -346.7521120404
 
 --------------------------------------------------------------
 
                    Orbital Energies (a.u.)
 --------------------------------------------------------------
 
 Alpha MOs
 -- Occupied --
-19.3386 -10.3874 -10.3529 -10.3445 -10.3442 -10.3430 -10.3420 -10.3416
 -1.1558  -0.9832  -0.8867  -0.8666  -0.7938  -0.7186  -0.6995  -0.6348
 -0.6044  -0.5670  -0.5534  -0.5405  -0.5248  -0.5158  -0.4817  -0.4631
 -0.4383  -0.4293  -0.3935  -0.3455  -0.3348
 -- Virtual --
  0.0240   0.0362   0.0369   0.0470   0.0546   0.0554   0.0583   0.0670
  0.0861   0.0878   0.1006   0.1032   0.1088   0.1268   0.1409   0.1472
  0.1523   0.1572   0.1594   0.1618   0.1644   0.1732   0.1775   0.1810
  0.1857   0.1880   0.1979   0.2017   0.2088   0.2179   0.2211   0.2305
  0.2361   0.2530   0.2578   0.2668   0.2773   0.2802   0.2858   0.2957
  0.2976   0.3186   0.3281   0.3442   0.3482   0.3510   0.3599   0.3613
  0.3709   0.3906   0.4018   0.4154   0.4278   0.4400   0.4622   0.4849
  0.5346   0.5369   0.5505   0.5754   0.5846   0.5941   0.6046   0.6081
  0.6124   0.6147   0.6217   0.6245   0.6419   0.6505   0.6620   0.6770
  0.6877   0.6934   0.7043   0.7205   0.7280   0.7306   0.7345   0.7417
  0.7478   0.7521   0.7635   0.7673   0.7757   0.7836   0.8256   0.8330
  0.8395   0.8483   0.8564   0.8613   0.8788   0.8897   0.8935   0.9105
  0.9252   0.9503   0.9923   1.0042   1.0369   1.0501   1.0632   1.0773
  1.0963   1.1060   1.1248   1.1349   1.1436   1.1624   1.1805   1.1888
  1.1962   1.2274   1.2431   1.2585   1.2687   1.2858   1.3030   1.3220
  1.3337   1.3495   1.3775   1.3864   1.3925   1.3981   1.4074   1.4257
  1.4341   1.4456   1.4527   1.4715   1.4785   1.5051   1.5280   1.5357
  1.5605   1.5650   1.5749   1.5854   1.6023   1.6181   1.6513   1.7019
  1.7232   1.7543   1.7770   1.7960   1.8148   1.8245   1.8860   1.9014
  1.9851   2.0342   2.0736   2.0843   2.1073   2.1482   2.1959   2.2355
  2.3787   2.4152   2.5497   2.5811   2.6063   2.6426   2.6726   2.6841
  2.7200   2.7311   2.7982   2.8112   2.8182   2.8268   2.8326   2.8426
  2.8653   2.8742   2.8815   2.8927   2.9132   2.9179   2.9277   2.9284
  2.9352   2.9466   2.9667   2.9752   3.0017   3.0310   3.0391   3.0568
  3.0772   3.1473   3.1774   3.1833   3.2017   3.2061   3.2131   3.2416
  3.2474   3.2565   3.2670   3.2725   3.2764   3.3093   3.3287   3.3529
  3.3660   3.3731   3.3896   3.4150   3.4296   3.4489   3.4640   3.4760
  3.4947   3.5066   3.5081   3.5202   3.5353   3.5759   3.5949   3.6064
  3.6268   3.6353   3.6571   3.6764   3.7104   3.7244   3.7776   3.7837
  3.7997   3.8175   3.8280   3.8453   3.8510   3.8826   3.8965   3.9051
  3.9143   3.9341   3.9570   3.9612   3.9872   4.0046   4.0689   4.0945
  4.1207   4.1268   4.1442   4.1526   4.1671   4.1848   4.2016   4.2327
  4.2642   4.2938   4.3378   4.3443   4.3905   4.4098   4.4130   4.4316
  4.4419   4.4589   4.5095   4.5240   4.5408   4.5613   4.5657   4.5745
  4.5854   4.6098   4.6214   4.7156   4.7235   4.7679   4.8085   4.8352
  4.8593   4.9504   5.0493   5.1244   5.1610   5.1681   5.2010   5.2576
  5.2782   5.3165   5.3406   5.4061   5.4720   5.5137   5.5260   5.5968
  5.6616   5.6895   5.7309   5.7992   5.8460   5.8659   5.9053   5.9768
  6.0483   6.2405   6.6141   6.6337   7.0994   7.2755   7.3398   7.3510
  7.6447   7.7879  24.1733  24.7756  24.7852  24.7998  25.0188  25.0372
 25.4924  50.5843
 --------------------------------------------------------------
 
          Ground-State Mulliken Net Atomic Charges

     Atom                 Charge (a.u.)
  ----------------------------------------
      1 C                    -0.497484
      2 C                    -0.350046
      3 C                    -0.371295
      4 C                    -0.382523
      5 C                    -0.174076
      6 C                     0.494086
      7 C                    -0.385132
      8 H                     0.272557
      9 H                     0.282818
     10 H                     0.276502
     11 H                     0.282738
     12 H                     0.268387
     13 H                     0.212520
     14 O                    -0.433983
     15 H                     0.174376
     16 H                     0.330556
  ----------------------------------------
  Sum of atomic charges =     0.000000

 -----------------------------------------------------------------
                    Cartesian Multipole Moments
 -----------------------------------------------------------------
    Charge (ESU x 10^10)
                -0.0000
    Dipole Moment (Debye)
         X       1.2812      Y      -0.8036      Z       1.4996
       Tot       2.1298
    Quadrupole Moments (Debye-Ang)
        XX     -46.3192     XY       1.6339     YY     -48.7274
        XZ      -5.1329     YZ       2.2908     ZZ     -50.6296
    Octopole Moments (Debye-Ang^2)
       XXX     162.0216    XXY       9.8239    XYY      63.9456
       YYY      32.3880    XXZ       8.1781    XYZ      -2.7010
       YYZ      23.1022    XZZ      60.8923    YZZ       8.2507
       ZZZ     -18.4385
    Hexadecapole Moments (Debye-Ang^3)
      XXXX    -689.7881   XXXY     -58.5876   XXYY    -256.0416
      XYYY     -60.1129   YYYY    -760.8556   XXXZ      28.8815
      XXYZ      54.1341   XYYZ     -16.0945   YYYZ     193.9128
      XXZZ    -174.7777   XYZZ      -6.7761   YYZZ    -182.4977
      XZZZ      68.8898   YZZZ     181.7106   ZZZZ    -287.6732
 -----------------------------------------------------------------
 Calculating analytic gradient of the SCF energy
 Gradient of CDS energy
            1           2           3           4           5           6
    1   0.0002985   0.0003446  -0.0001617  -0.0004844  -0.0001614  -0.0000156
    2   0.0001326  -0.0003686  -0.0004136  -0.0000057   0.0002317   0.0000253
    3  -0.0001384   0.0001053   0.0002880   0.0001529  -0.0001725  -0.0000497
            7           8           9          10          11          12
    1   0.0005001   0.0001758   0.0001388  -0.0000639  -0.0002023  -0.0000536
    2   0.0006387   0.0000476  -0.0001546  -0.0001663  -0.0000102   0.0001516
    3  -0.0006098  -0.0000464   0.0000488   0.0001169   0.0000682  -0.0000803
           13          14          15          16
    1   0.0001138  -0.0001357  -0.0002002  -0.0000929
    2  -0.0001847  -0.0002797  -0.0001130   0.0004689
    3   0.0001480   0.0000669  -0.0001166   0.0002186
 Gradient of SCF Energy
            1           2           3           4           5           6
    1  -0.0061134  -0.0033090   0.0004078   0.0036975   0.0010610   0.0029885
    2  -0.0023525   0.0014114   0.0031508   0.0013938  -0.0013131   0.0005942
    3   0.0014807  -0.0000526  -0.0020373  -0.0022678   0.0000181   0.0001102
            7           8           9          10          11          12
    1  -0.0112252   0.0093932   0.0055538  -0.0022144  -0.0068109  -0.0030410
    2   0.0048934   0.0010268  -0.0060061  -0.0059920  -0.0003175   0.0036271
    3   0.0056982  -0.0031365   0.0018877   0.0041526   0.0024041  -0.0001090
           13          14          15          16
    1   0.0098011  -0.0052558   0.0011987   0.0038682
    2   0.0010769  -0.0010937  -0.0018070   0.0017076
    3   0.0019584  -0.0235937  -0.0054935   0.0189806
 Max gradient component =       2.359E-02
 RMS gradient           =       5.933E-03
 Computing fast CPCM-SWIG gradient
 Updating gradient with PCM contributions...
 -- total gradient after adding PCM contribution --
---------------------------------------------------
  Atom         X              Y              Z     
---------------------------------------------------
   1       0.001419      -0.000251      -0.000254
   2       0.001062      -0.001392       0.000373
   3      -0.000332      -0.001289       0.000933
   4      -0.001633       0.000195       0.000382
   5      -0.001480       0.000964      -0.000364
   6       0.001539       0.001683      -0.001207
   7      -0.002880       0.003211       0.003421
   8       0.003059       0.000147      -0.000998
   9       0.002166      -0.002404       0.000737
  10      -0.000984      -0.002635       0.001739
  11      -0.003123      -0.000108       0.001030
  12      -0.001646       0.002843      -0.000969
  13       0.003914       0.000397       0.000247
  14      -0.002580      -0.001440      -0.009034
  15      -0.000171      -0.000189      -0.003250
  16       0.001669       0.000270       0.007214
---------------------------------------------------
 Number of fixed atoms: 0
 Gradient time:  CPU 210.40 s  wall 30.55 s
 Geometry Optimization Parameters
   NAtoms,    NIC,     NZ,  NCons,   NDum,   NFix, NCnnct, MaxDiis
       16     106       0       0       0       0       0       0


** GEOMETRY OPTIMIZATION IN DELOCALIZED INTERNAL COORDINATES **
   Searching for a Minimum

   Optimization Cycle:   1

                       Coordinates (Angstroms)
     ATOM                X               Y               Z
      1  C        -0.0180167640   -0.9875079826    0.0524241794
      2  C        -0.4354251643   -2.0794081371    0.8090140951
      3  C        -1.7545972095   -2.1570768781    1.2559909891
      4  C        -2.6496251859   -1.1379760987    0.9380957587
      5  C        -2.2316330824   -0.0488612768    0.1741919574
      6  C        -0.9128555319    0.0349100494   -0.2747511903
      7  C        -0.4505031789    1.1984609892   -1.1260846200
      8  H         1.0145649830   -0.9238249574   -0.2855119189
      9  H         0.2713993434   -2.8663639594    1.0577210789
     10  H        -2.0802979695   -3.0051042798    1.8518544007
     11  H        -3.6783374475   -1.1895937653    1.2850141927
     12  H        -2.9305264487    0.7454618890   -0.0714635845
     13  H         0.5968121090    1.4326165843   -0.8914555225
     14  O        -1.2696971129    2.3546462666   -1.0030831408
     15  H        -0.4884696873    0.9216167883   -2.1854444700
     16  H        -1.2249922526    2.6330831682   -0.0736138050
   Point Group: c1    Number of degrees of freedom:    42


   Energy is   -346.752112040


 Attempting to generate delocalized internal coordinates
 Initial Hessian constructed with Jon Baker's OPTIMIZE code

 42 Hessian modes will be used to form the next step
  Hessian Eigenvalues:
     0.007318    0.012694    0.016579    0.022887    0.023054    0.023076
     0.023150    0.023180    0.023221    0.023243    0.023286    0.058265
     0.073368    0.119183    0.142221    0.159993    0.159997    0.159999
     0.159999    0.160000    0.160000    0.219999    0.220000    0.220794
     0.234769    0.249952    0.309456    0.338462    0.341740    0.350053
     0.351780    0.352055    0.352309    0.352600    0.421140    0.421847
     0.422964    0.462442    0.464078    0.466355    0.467954    0.531106

 Minimum search - taking simple RFO step
 Searching for Lamda that Minimizes Along All modes
 Value Taken    Lamda =  -0.00085265
 Step Taken.  Stepsize is  0.057098

                             Maximum     Tolerance    Cnvgd?
         Gradient           0.010704      0.000300      NO
         Displacement       0.025549      0.001200      NO
         Energy change     *********      0.000001      NO


 New Cartesian Coordinates Obtained by Inverse Iteration

 Displacement from previous Coordinates is:  0.108194
 ----------------------------------------------------------------
             Standard Nuclear Orientation (Angstroms)
    I     Atom           X                Y                Z
 ----------------------------------------------------------------
    1      C      -0.0270206648    -0.9824924448     0.0519413680
    2      C      -0.4381029901    -2.0709776728     0.8063661089
    3      C      -1.7512435940    -2.1532448314     1.2522711634
    4      C      -2.6459541986    -1.1415173862     0.9356374501
    5      C      -2.2342898029    -0.0546180650     0.1745925059
    6      C      -0.9209887472     0.0330373216    -0.2736968686
    7      C      -0.4517347442     1.1894345730    -1.1233805789
    8      H       1.0005891533    -0.9154092495    -0.2849003048
    9      H       0.2686098824    -2.8515427030     1.0538520679
   10      H      -2.0720653830    -2.9979133808     1.8465358531
   11      H      -3.6696933707    -1.1972858521     1.2811723179
   12      H      -2.9369242998     0.7300535248    -0.0692146939
   13      H       0.5911266816     1.4122078691    -0.8860031686
   14      O      -1.2505887630     2.3602666411    -0.9964101104
   15      H      -0.4908755968     0.9108956202    -2.1771171231
   16      H      -1.2130441622     2.6541844355    -0.0787475870
 ----------------------------------------------------------------
 Nuclear Repulsion Energy =         341.89244915 hartrees
 There are       29 alpha and       29 beta electrons
 Discretize the solute cavity surface with Lebedev spheres
	Using 110 Lebedev grid points for each H atom
	Using 194 Lebedev grid points for other atoms
	Atomic van der Waals radii will be scaled by 1.20
 Remove points where switching function is < 1.0e-08
 Keep 1164 surface tesserae and discard 1268 interior tesserae
 Molecular Surface Area = 141.362 Angst**2
 Applying Cartesian multipole field
    Component          Value
    ---------          -----
     (2,0,0)        1.00000E-11
     (0,2,0)        2.00000E-11
     (0,0,2)       -3.00000E-11
 Nucleus-field energy     =     0.0000000107 hartrees
 Requested basis set is 6-311++G(2df,2p)
 There are 112 shells and 352 basis functions
 A cutoff of  1.0D-12 yielded   5818 shell pairs
 There are     58113 function pairs (     72082 Cartesian)
 Smallest overlap matrix eigenvalue = 8.20E-07
 Linear dependence detected in AO basis
 Tighter screening thresholds may be required for diffuse basis sets
 Use S2THRESH > 14 and THRESH = 14 in case of SCF convergence issues
 Number of orthogonalized atomic orbitals = 351
 Maximum deviation from orthogonality = 4.883E-11
 Guess MOs from SCF MO coefficient file

 -----------------------------------------------------------------------
  General SCF calculation program by
  Eric Jon Sundstrom, Paul Horn, Yuezhi Mao, Dmitri Zuev, Alec White,
  David Stuck, Shaama M.S., Shane Yost, Joonho Lee, David Small,
  Daniel Levine, Susi Lehtola, Hugh Burton, Evgeny Epifanovsky,
  Bang C. Huynh
 -----------------------------------------------------------------------
 Exchange:     0.1500 Hartree-Fock + 1.0000 wB97M-V + LR-HF
 Correlation:  1.0000 wB97M-V
 Using SG-2 standard quadrature grid
 Nonlocal Correlation:  VV10 with C = 0.0100 and b = 6.00 and scale = 1.00000
 Grid used for NLC:  SG-1 standard quadrature
 
 Citation of the SMD model:
 Marenich, A.V.; Cramer, C.J.; Truhlar, D.G.
 J. Phys. Chem. B 2009, 113, 6378-6396.
 iSolventCode=           1
 Solvent: water                                                           
 
 vradii
            1           2           3           4           5           6
    1   1.8500000   1.8500000   1.8500000   1.8500000   1.8500000   1.8500000
            7           8           9          10          11          12
    1   1.8500000   1.2000000   1.2000000   1.2000000   1.2000000   1.2000000
           13          14          15          16
    1   1.2000000   1.5200000   1.2000000   1.2000000
 -------------------------------------------------------
 OpenMP BLAS3 based DFT computing Module                
 Release: version 1.0, May 2013, Q-Chem Inc. Pittsburgh 
 -------------------------------------------------------
 A restricted SCF calculation will be
 performed using Roothaan-Hall, DIIS, GDM
 SCF converges when RMS gradient is below 1.0e-07
 ---------------------------------------
  Cycle       Energy         DIIS error
 ---------------------------------------
    1    -346.7402414772      3.37e-04  Roothaan Step
 ---------------------------------------
  Cycle       Energy         DIIS error
 ---------------------------------------
    1    -346.7549318615      3.46e-04  
    2    -346.7569083503      2.63e-04  Done DIIS. Switching to GDM
 ---------------------------------------
  Cycle       Energy        RMS Gradient
 ---------------------------------------
    1    -346.7569083503      4.04e-03   Normal BFGS step
    2    -346.7570089347      4.03e-03   Normal BFGS step
    3    -346.7577178621      3.82e-04   Normal BFGS step
    4    -346.7577253671      3.53e-04   Normal BFGS step
    5    -346.7577282927      4.30e-05   Normal BFGS step
    6    -346.7577283707      2.02e-05   Normal BFGS step
    7    -346.7577283847      9.09e-06   Normal BFGS step
    8    -346.7577283861      1.30e-06   Normal BFGS step
    9    -346.7577283863      7.48e-07   Normal BFGS step
   10    -346.7577283863      3.15e-07   Normal BFGS step
   11    -346.7577283863      1.48e-07   Normal BFGS step
   12    -346.7577283863      7.89e-08  Convergence criterion met
 ---------------------------------------
 SCF time:   CPU 902.59s  wall 115.00s 
(3)  G-ENP(liq) elect-nuc-pol free energy of system     -346.757728386 a.u.
(4)  G-CDS(liq) cavity-dispersion-solvent structure 
     free energy                                                3.2716 kcal/mol
(6)  G-S(liq) free energy of system                     -346.752514711 a.u.
 SCF   energy in the final basis set =     -346.7525147109
 Total energy in the final basis set =     -346.7525147109
 
 --------------------------------------------------------------
 
                    Orbital Energies (a.u.)
 --------------------------------------------------------------
 
 Alpha MOs
 -- Occupied --
-19.3373 -10.3859 -10.3508 -10.3421 -10.3418 -10.3404 -10.3396 -10.3395
 -1.1556  -0.9859  -0.8887  -0.8680  -0.7958  -0.7198  -0.7009  -0.6366
 -0.6052  -0.5675  -0.5544  -0.5421  -0.5258  -0.5166  -0.4823  -0.4638
 -0.4385  -0.4289  -0.3935  -0.3461  -0.3353
 -- Virtual --
  0.0240   0.0363   0.0369   0.0472   0.0548   0.0555   0.0595   0.0679
  0.0863   0.0879   0.1005   0.1031   0.1089   0.1269   0.1409   0.1475
  0.1524   0.1577   0.1596   0.1620   0.1647   0.1734   0.1778   0.1812
  0.1858   0.1881   0.1980   0.2019   0.2091   0.2183   0.2215   0.2309
  0.2364   0.2538   0.2583   0.2682   0.2775   0.2807   0.2862   0.2967
  0.2981   0.3195   0.3299   0.3459   0.3501   0.3531   0.3611   0.3633
  0.3736   0.3915   0.4028   0.4164   0.4296   0.4420   0.4635   0.4850
  0.5343   0.5382   0.5519   0.5767   0.5868   0.5972   0.6057   0.6087
  0.6147   0.6166   0.6225   0.6254   0.6440   0.6541   0.6639   0.6776
  0.6885   0.6950   0.7069   0.7232   0.7298   0.7319   0.7365   0.7432
  0.7499   0.7545   0.7656   0.7695   0.7771   0.7845   0.8256   0.8323
  0.8392   0.8501   0.8590   0.8621   0.8830   0.8916   0.8966   0.9132
  0.9301   0.9507   0.9926   1.0045   1.0386   1.0526   1.0655   1.0781
  1.0966   1.1081   1.1274   1.1373   1.1464   1.1658   1.1832   1.1898
  1.1988   1.2317   1.2473   1.2597   1.2701   1.2891   1.3052   1.3230
  1.3353   1.3540   1.3819   1.3887   1.3965   1.4012   1.4118   1.4297
  1.4395   1.4497   1.4559   1.4765   1.4835   1.5077   1.5300   1.5412
  1.5647   1.5678   1.5800   1.5888   1.6076   1.6222   1.6557   1.7047
  1.7287   1.7576   1.7817   1.7998   1.8198   1.8224   1.8861   1.9074
  1.9902   2.0419   2.0805   2.0899   2.1077   2.1525   2.1933   2.2326
  2.3795   2.4168   2.5474   2.5829   2.6044   2.6383   2.6747   2.6849
  2.7231   2.7309   2.8015   2.8142   2.8197   2.8327   2.8350   2.8471
  2.8638   2.8727   2.8842   2.8927   2.9141   2.9175   2.9273   2.9313
  2.9367   2.9478   2.9669   2.9758   3.0004   3.0354   3.0457   3.0609
  3.0833   3.1502   3.1796   3.1843   3.2038   3.2091   3.2137   3.2382
  3.2500   3.2552   3.2694   3.2764   3.2796   3.3139   3.3327   3.3568
  3.3669   3.3758   3.3972   3.4229   3.4344   3.4497   3.4674   3.4837
  3.4997   3.5076   3.5141   3.5184   3.5375   3.5809   3.5973   3.6085
  3.6363   3.6404   3.6676   3.6831   3.7131   3.7238   3.7809   3.7909
  3.8050   3.8245   3.8353   3.8542   3.8565   3.8889   3.9021   3.9122
  3.9254   3.9427   3.9644   3.9700   3.9928   4.0153   4.0732   4.1023
  4.1320   4.1391   4.1524   4.1653   4.1751   4.1937   4.2102   4.2397
  4.2718   4.3070   4.3467   4.3551   4.4018   4.4223   4.4244   4.4456
  4.4541   4.4712   4.5260   4.5395   4.5580   4.5759   4.5812   4.5925
  4.6026   4.6263   4.6376   4.7310   4.7438   4.7846   4.8251   4.8545
  4.8779   4.9606   5.0720   5.1367   5.1794   5.1871   5.2180   5.2672
  5.2806   5.3158   5.3461   5.4160   5.4825   5.5261   5.5460   5.5939
  5.6806   5.7020   5.7548   5.8242   5.8744   5.8942   5.9242   5.9904
  6.0732   6.2810   6.6278   6.6619   7.1013   7.3112   7.3319   7.3502
  7.6603   7.7841  24.1788  24.7961  24.8083  24.8173  25.0503  25.0696
 25.5320  50.5886
 --------------------------------------------------------------
 
          Ground-State Mulliken Net Atomic Charges

     Atom                 Charge (a.u.)
  ----------------------------------------
      1 C                    -0.493512
      2 C                    -0.351099
      3 C                    -0.372969
      4 C                    -0.377966
      5 C                    -0.176320
      6 C                     0.497050
      7 C                    -0.390643
      8 H                     0.271773
      9 H                     0.282259
     10 H                     0.276286
     11 H                     0.282566
     12 H                     0.268303
     13 H                     0.215016
     14 O                    -0.437026
     15 H                     0.176506
     16 H                     0.329775
  ----------------------------------------
  Sum of atomic charges =     0.000000

 -----------------------------------------------------------------
                    Cartesian Multipole Moments
 -----------------------------------------------------------------
    Charge (ESU x 10^10)
                -0.0000
    Dipole Moment (Debye)
         X       1.2593      Y      -0.8202      Z       1.4926
       Tot       2.1181
    Quadrupole Moments (Debye-Ang)
        XX     -46.2606     XY       1.6228     YY     -48.6865
        XZ      -5.0334     YZ       2.3887     ZZ     -50.5281
    Octopole Moments (Debye-Ang^2)
       XXX     161.7784    XXY       9.8639    XYY      63.6579
       YYY      32.8352    XXZ       7.9090    XYZ      -2.7121
       YYZ      23.0813    XZZ      60.7679    YZZ       8.1250
       ZZZ     -18.3318
    Hexadecapole Moments (Debye-Ang^3)
      XXXX    -687.1658   XXXY     -59.5849   XXYY    -254.9370
      XYYY     -61.8014   YYYY    -756.8351   XXXZ      29.7628
      XXYZ      53.8350   XYYZ     -15.7127   YYYZ     193.9728
      XXZZ    -173.9170   XYZZ      -7.2712   YYZZ    -182.1491
      XZZZ      68.8088   YZZZ     180.7701   ZZZZ    -285.3867
 -----------------------------------------------------------------
 Calculating analytic gradient of the SCF energy
 Gradient of CDS energy
            1           2           3           4           5           6
    1   0.0002936   0.0003434  -0.0001588  -0.0004802  -0.0001587  -0.0000142
    2   0.0001309  -0.0003636  -0.0004108  -0.0000085   0.0002290   0.0000207
    3  -0.0001353   0.0001042   0.0002857   0.0001523  -0.0001692  -0.0000513
            7           8           9          10          11          12
    1   0.0004851   0.0001694   0.0001356  -0.0000615  -0.0001967  -0.0000549
    2   0.0006011   0.0000497  -0.0001498  -0.0001619  -0.0000107   0.0001502
    3  -0.0006325  -0.0000446   0.0000475   0.0001139   0.0000664  -0.0000784
           13          14          15          16
    1   0.0000998  -0.0001154  -0.0001960  -0.0000904
    2  -0.0001624  -0.0002719  -0.0001169   0.0004748
    3   0.0001537   0.0000763  -0.0001059   0.0002170
 Gradient of SCF Energy
            1           2           3           4           5           6
    1  -0.0081340  -0.0046956   0.0008511   0.0056803   0.0022809   0.0023460
    2  -0.0019301   0.0031441   0.0047896   0.0012599  -0.0026312  -0.0017869
    3   0.0017488  -0.0004824  -0.0032318  -0.0027713   0.0008270   0.0013802
            7           8           9          10          11          12
    1  -0.0090702   0.0062054   0.0032982  -0.0011616  -0.0035370  -0.0011499
    2   0.0016730   0.0008834  -0.0034693  -0.0032801  -0.0002685   0.0005891
    3   0.0018399  -0.0021179   0.0010884   0.0022964   0.0013220   0.0007800
           13          14          15          16
    1   0.0058519  -0.0024927   0.0018070   0.0019201
    2   0.0007040   0.0003715  -0.0021369   0.0020884
    3   0.0017678  -0.0145369  -0.0023684   0.0124580
 Max gradient component =       1.454E-02
 RMS gradient           =       4.150E-03
 Computing fast CPCM-SWIG gradient
 Updating gradient with PCM contributions...
 -- total gradient after adding PCM contribution --
---------------------------------------------------
  Atom         X              Y              Z     
---------------------------------------------------
   1      -0.000591       0.000004       0.000118
   2      -0.000359       0.000415      -0.000080
   3       0.000141       0.000400      -0.000293
   4       0.000418       0.000008      -0.000135
   5      -0.000262      -0.000293       0.000325
   6       0.000829      -0.000788       0.000140
   7      -0.000851      -0.000032      -0.000435
   8      -0.000125      -0.000011       0.000024
   9      -0.000093       0.000107      -0.000058
  10       0.000052       0.000068      -0.000114
  11       0.000139      -0.000041      -0.000046
  12       0.000273      -0.000124      -0.000023
  13       0.000054       0.000087       0.000012
  14       0.000126       0.000174      -0.000059
  15       0.000454      -0.000447      -0.000115
  16      -0.000205       0.000472       0.000739
---------------------------------------------------
 Number of fixed atoms: 0
 Gradient time:  CPU 207.53 s  wall 30.15 s
 Geometry Optimization Parameters
   NAtoms,    NIC,     NZ,  NCons,   NDum,   NFix, NCnnct, MaxDiis
       16     106       0       0       0       0       0       0

 Cartesian Hessian Update
 Hessian updated using BFGS update


** GEOMETRY OPTIMIZATION IN DELOCALIZED INTERNAL COORDINATES **
   Searching for a Minimum

   Optimization Cycle:   2

                       Coordinates (Angstroms)
     ATOM                X               Y               Z
      1  C        -0.0270206648   -0.9824924448    0.0519413680
      2  C        -0.4381029901   -2.0709776728    0.8063661089
      3  C        -1.7512435940   -2.1532448314    1.2522711634
      4  C        -2.6459541986   -1.1415173862    0.9356374501
      5  C        -2.2342898029   -0.0546180650    0.1745925059
      6  C        -0.9209887472    0.0330373216   -0.2736968686
      7  C        -0.4517347442    1.1894345730   -1.1233805789
      8  H         1.0005891533   -0.9154092495   -0.2849003048
      9  H         0.2686098824   -2.8515427030    1.0538520679
     10  H        -2.0720653830   -2.9979133808    1.8465358531
     11  H        -3.6696933707   -1.1972858521    1.2811723179
     12  H        -2.9369242998    0.7300535248   -0.0692146939
     13  H         0.5911266816    1.4122078691   -0.8860031686
     14  O        -1.2505887630    2.3602666411   -0.9964101104
     15  H        -0.4908755968    0.9108956202   -2.1771171231
     16  H        -1.2130441622    2.6541844355   -0.0787475870
   Point Group: c1    Number of degrees of freedom:    42


   Energy is   -346.752514711

 Hessian updated using BFGS update

 41 Hessian modes will be used to form the next step
  Hessian Eigenvalues:
     0.007305    0.012690    0.016580    0.022887    0.023059    0.023076
     0.023150    0.023180    0.023222    0.023243    0.023286    0.059236
     0.073378    0.119400    0.142763    0.159323    0.159999    0.159999
     0.160000    0.164637    0.219613    0.220004    0.220747    0.234762
     0.244867    0.309005    0.335566    0.340439    0.350156    0.351814
     0.352107    0.352261    0.354424    0.421229    0.422029    0.422933
     0.462332    0.466156    0.466392    0.498998    0.519302

 Minimum search - taking simple RFO step
 Searching for Lamda that Minimizes Along All modes
 Value Taken    Lamda =  -0.00001867
 Step Taken.  Stepsize is  0.014204

                             Maximum     Tolerance    Cnvgd?
         Gradient           0.000943      0.000300      NO
         Displacement       0.008120      0.001200      NO
         Energy change     -0.000403      0.000001      NO


 New Cartesian Coordinates Obtained by Inverse Iteration

 Displacement from previous Coordinates is:  0.018413
 ----------------------------------------------------------------
             Standard Nuclear Orientation (Angstroms)
    I     Atom           X                Y                Z
 ----------------------------------------------------------------
    1      C      -0.0269181477    -0.9814016851     0.0530658935
    2      C      -0.4376275198    -2.0713139518     0.8066263032
    3      C      -1.7513975300    -2.1543643954     1.2522226622
    4      C      -2.6467190721    -1.1423941418     0.9354908794
    5      C      -2.2354383507    -0.0544013614     0.1747604021
    6      C      -0.9218211265     0.0342892385    -0.2727194762
    7      C      -0.4507748490     1.1895908677    -1.1227651795
    8      H       1.0008985933    -0.9133046925    -0.2832496416
    9      H       0.2695696443    -2.8516512639     1.0539928481
   10      H      -2.0721519972    -2.9993266807     1.8462738222
   11      H      -3.6706684520    -1.1986596156     1.2806562238
   12      H      -2.9394488725     0.7295860486    -0.0684903367
   13      H       0.5926811992     1.4109521985    -0.8876831222
   14      O      -1.2491958747     2.3600536629    -0.9976755001
   15      H      -0.4950079466     0.9132470085    -2.1764396663
   16      H      -1.2081802979     2.6541771633    -0.0811677122
 ----------------------------------------------------------------
 Nuclear Repulsion Energy =         341.83676941 hartrees
 There are       29 alpha and       29 beta electrons
 Discretize the solute cavity surface with Lebedev spheres
	Using 110 Lebedev grid points for each H atom
	Using 194 Lebedev grid points for other atoms
	Atomic van der Waals radii will be scaled by 1.20
 Remove points where switching function is < 1.0e-08
 Keep 1163 surface tesserae and discard 1269 interior tesserae
 Molecular Surface Area = 141.378 Angst**2
 Applying Cartesian multipole field
    Component          Value
    ---------          -----
     (2,0,0)        1.00000E-11
     (0,2,0)        2.00000E-11
     (0,0,2)       -3.00000E-11
 Nucleus-field energy     =     0.0000000107 hartrees
 Requested basis set is 6-311++G(2df,2p)
 There are 112 shells and 352 basis functions
 A cutoff of  1.0D-12 yielded   5818 shell pairs
 There are     58113 function pairs (     72082 Cartesian)
 Smallest overlap matrix eigenvalue = 8.23E-07
 Linear dependence detected in AO basis
 Tighter screening thresholds may be required for diffuse basis sets
 Use S2THRESH > 14 and THRESH = 14 in case of SCF convergence issues
 Number of orthogonalized atomic orbitals = 351
 Maximum deviation from orthogonality = 5.954E-11
 Guess MOs from SCF MO coefficient file

 -----------------------------------------------------------------------
  General SCF calculation program by
  Eric Jon Sundstrom, Paul Horn, Yuezhi Mao, Dmitri Zuev, Alec White,
  David Stuck, Shaama M.S., Shane Yost, Joonho Lee, David Small,
  Daniel Levine, Susi Lehtola, Hugh Burton, Evgeny Epifanovsky,
  Bang C. Huynh
 -----------------------------------------------------------------------
 Exchange:     0.1500 Hartree-Fock + 1.0000 wB97M-V + LR-HF
 Correlation:  1.0000 wB97M-V
 Using SG-2 standard quadrature grid
 Nonlocal Correlation:  VV10 with C = 0.0100 and b = 6.00 and scale = 1.00000
 Grid used for NLC:  SG-1 standard quadrature
 
 Citation of the SMD model:
 Marenich, A.V.; Cramer, C.J.; Truhlar, D.G.
 J. Phys. Chem. B 2009, 113, 6378-6396.
 iSolventCode=           1
 Solvent: water                                                           
 
 vradii
            1           2           3           4           5           6
    1   1.8500000   1.8500000   1.8500000   1.8500000   1.8500000   1.8500000
            7           8           9          10          11          12
    1   1.8500000   1.2000000   1.2000000   1.2000000   1.2000000   1.2000000
           13          14          15          16
    1   1.2000000   1.5200000   1.2000000   1.2000000
 -------------------------------------------------------
 OpenMP BLAS3 based DFT computing Module                
 Release: version 1.0, May 2013, Q-Chem Inc. Pittsburgh 
 -------------------------------------------------------
 A restricted SCF calculation will be
 performed using Roothaan-Hall, DIIS, GDM
 SCF converges when RMS gradient is below 1.0e-07
 ---------------------------------------
  Cycle       Energy         DIIS error
 ---------------------------------------
    1    -346.7404394358      3.14e-04  Roothaan Step
 ---------------------------------------
  Cycle       Energy         DIIS error
 ---------------------------------------
    1    -346.7548815241      3.53e-04  
    2    -346.7568750021      2.70e-04  Done DIIS. Switching to GDM
 ---------------------------------------
  Cycle       Energy        RMS Gradient
 ---------------------------------------
    1    -346.7568750021      4.13e-03   Normal BFGS step
    2    -346.7569918642      4.06e-03   Normal BFGS step
    3    -346.7577292422      4.15e-04   Normal BFGS step
    4    -346.7577367336      3.96e-04   Normal BFGS step
    5    -346.7577401212      4.85e-05   Normal BFGS step
    6    -346.7577402200      1.84e-05   Normal BFGS step
    7    -346.7577402333      1.12e-05   Normal BFGS step
    8    -346.7577402352      1.45e-06   Normal BFGS step
    9    -346.7577402353      1.00e-06   Normal BFGS step
   10    -346.7577402354      2.71e-07   Normal BFGS step
   11    -346.7577402354      1.46e-07   Normal BFGS step
   12    -346.7577402353      7.09e-08  Convergence criterion met
 ---------------------------------------
 SCF time:   CPU 902.79s  wall 115.00s 
(3)  G-ENP(liq) elect-nuc-pol free energy of system     -346.757740235 a.u.
(4)  G-CDS(liq) cavity-dispersion-solvent structure 
     free energy                                                3.2735 kcal/mol
(6)  G-S(liq) free energy of system                     -346.752523589 a.u.
 SCF   energy in the final basis set =     -346.7525235892
 Total energy in the final basis set =     -346.7525235892
 
 --------------------------------------------------------------
 
                    Orbital Energies (a.u.)
 --------------------------------------------------------------
 
 Alpha MOs
 -- Occupied --
-19.3372 -10.3858 -10.3509 -10.3422 -10.3420 -10.3406 -10.3398 -10.3397
 -1.1561  -0.9857  -0.8886  -0.8679  -0.7958  -0.7197  -0.7010  -0.6366
 -0.6053  -0.5675  -0.5544  -0.5419  -0.5259  -0.5165  -0.4822  -0.4638
 -0.4386  -0.4289  -0.3936  -0.3460  -0.3353
 -- Virtual --
  0.0240   0.0363   0.0369   0.0472   0.0548   0.0555   0.0594   0.0678
  0.0863   0.0879   0.1005   0.1031   0.1089   0.1269   0.1410   0.1475
  0.1524   0.1577   0.1596   0.1620   0.1647   0.1734   0.1778   0.1812
  0.1858   0.1880   0.1980   0.2018   0.2091   0.2182   0.2214   0.2310
  0.2364   0.2538   0.2583   0.2681   0.2775   0.2807   0.2863   0.2966
  0.2981   0.3196   0.3299   0.3458   0.3500   0.3530   0.3610   0.3631
  0.3735   0.3916   0.4029   0.4163   0.4295   0.4419   0.4634   0.4851
  0.5343   0.5382   0.5518   0.5766   0.5869   0.5969   0.6056   0.6086
  0.6146   0.6166   0.6225   0.6255   0.6438   0.6542   0.6642   0.6775
  0.6885   0.6950   0.7068   0.7232   0.7298   0.7318   0.7364   0.7430
  0.7500   0.7545   0.7654   0.7693   0.7770   0.7846   0.8258   0.8322
  0.8392   0.8499   0.8590   0.8620   0.8827   0.8915   0.8963   0.9128
  0.9297   0.9504   0.9925   1.0046   1.0388   1.0524   1.0655   1.0779
  1.0965   1.1080   1.1273   1.1370   1.1469   1.1657   1.1830   1.1896
  1.1989   1.2318   1.2474   1.2594   1.2704   1.2888   1.3044   1.3231
  1.3349   1.3541   1.3820   1.3886   1.3962   1.4010   1.4115   1.4294
  1.4392   1.4493   1.4556   1.4760   1.4834   1.5088   1.5303   1.5417
  1.5645   1.5676   1.5798   1.5886   1.6073   1.6222   1.6557   1.7043
  1.7283   1.7576   1.7814   1.7994   1.8199   1.8221   1.8859   1.9075
  1.9900   2.0419   2.0797   2.0892   2.1073   2.1528   2.1935   2.2322
  2.3792   2.4167   2.5488   2.5826   2.6045   2.6383   2.6741   2.6847
  2.7230   2.7305   2.8013   2.8143   2.8198   2.8322   2.8349   2.8468
  2.8639   2.8729   2.8841   2.8927   2.9141   2.9177   2.9276   2.9314
  2.9366   2.9481   2.9669   2.9758   3.0007   3.0353   3.0450   3.0608
  3.0829   3.1499   3.1798   3.1840   3.2038   3.2091   3.2141   3.2385
  3.2496   3.2553   3.2689   3.2765   3.2795   3.3136   3.3329   3.3570
  3.3673   3.3757   3.3967   3.4226   3.4343   3.4500   3.4670   3.4834
  3.4994   3.5075   3.5136   3.5184   3.5372   3.5803   3.5965   3.6083
  3.6359   3.6400   3.6669   3.6826   3.7128   3.7233   3.7810   3.7904
  3.8049   3.8241   3.8353   3.8545   3.8559   3.8884   3.9021   3.9114
  3.9248   3.9419   3.9643   3.9694   3.9925   4.0147   4.0742   4.1016
  4.1315   4.1382   4.1522   4.1659   4.1754   4.1933   4.2102   4.2394
  4.2718   4.3069   4.3471   4.3548   4.4014   4.4217   4.4238   4.4466
  4.4534   4.4702   4.5245   4.5389   4.5569   4.5750   4.5801   4.5912
  4.6016   4.6259   4.6368   4.7306   4.7429   4.7831   4.8244   4.8529
  4.8768   4.9604   5.0703   5.1356   5.1785   5.1860   5.2170   5.2668
  5.2810   5.3167   5.3462   5.4155   5.4828   5.5259   5.5451   5.5954
  5.6821   5.7047   5.7542   5.8230   5.8727   5.8925   5.9238   5.9910
  6.0727   6.2786   6.6296   6.6592   7.1016   7.3164   7.3333   7.3505
  7.6592   7.7850  24.1792  24.7947  24.8069  24.8188  25.0480  25.0670
 25.5288  50.5895
 --------------------------------------------------------------
 
          Ground-State Mulliken Net Atomic Charges

     Atom                 Charge (a.u.)
  ----------------------------------------
      1 C                    -0.496499
      2 C                    -0.350968
      3 C                    -0.373474
      4 C                    -0.377823
      5 C                    -0.174130
      6 C                     0.497292
      7 C                    -0.390174
      8 H                     0.271628
      9 H                     0.282380
     10 H                     0.276367
     11 H                     0.282655
     12 H                     0.268473
     13 H                     0.215259
     14 O                    -0.436014
     15 H                     0.175789
     16 H                     0.329240
  ----------------------------------------
  Sum of atomic charges =     0.000000

 -----------------------------------------------------------------
                    Cartesian Multipole Moments
 -----------------------------------------------------------------
    Charge (ESU x 10^10)
                -0.0000
    Dipole Moment (Debye)
         X       1.2625      Y      -0.8179      Z       1.4925
       Tot       2.1191
    Quadrupole Moments (Debye-Ang)
        XX     -46.2532     XY       1.6393     YY     -48.6737
        XZ      -5.0197     YZ       2.3685     ZZ     -50.5459
    Octopole Moments (Debye-Ang^2)
       XXX     161.7387    XXY       9.8367    XYY      63.6969
       YYY      32.8494    XXZ       7.8735    XYZ      -2.6764
       YYZ      23.0542    XZZ      60.7618    YZZ       8.1281
       ZZZ     -18.3498
    Hexadecapole Moments (Debye-Ang^3)
      XXXX    -687.2061   XXXY     -59.6940   XXYY    -255.0839
      XYYY     -61.8309   YYYY    -756.8539   XXXZ      29.8192
      XXYZ      53.7813   XYYZ     -15.6554   YYYZ     193.9283
      XXZZ    -173.9615   XYZZ      -7.3449   YYZZ    -182.1664
      XZZZ      68.9043   YZZZ     180.8994   ZZZZ    -285.4966
 -----------------------------------------------------------------
 Calculating analytic gradient of the SCF energy
 Gradient of CDS energy
            1           2           3           4           5           6
    1   0.0002945   0.0003443  -0.0001591  -0.0004811  -0.0001583  -0.0000163
    2   0.0001315  -0.0003644  -0.0004119  -0.0000088   0.0002298   0.0000212
    3  -0.0001345   0.0001041   0.0002860   0.0001524  -0.0001695  -0.0000519
            7           8           9          10          11          12
    1   0.0004944   0.0001693   0.0001358  -0.0000615  -0.0001968  -0.0000558
    2   0.0006051   0.0000503  -0.0001498  -0.0001620  -0.0000108   0.0001510
    3  -0.0006249  -0.0000447   0.0000475   0.0001139   0.0000663  -0.0000783
           13          14          15          16
    1   0.0000998  -0.0001180  -0.0002004  -0.0000908
    2  -0.0001682  -0.0002762  -0.0001119   0.0004750
    3   0.0001513   0.0000714  -0.0001063   0.0002171
 Gradient of SCF Energy
            1           2           3           4           5           6
    1  -0.0076634  -0.0044232   0.0007796   0.0052601   0.0024019   0.0017503
    2  -0.0018755   0.0027222   0.0043729   0.0013190  -0.0023784  -0.0011583
    3   0.0015940  -0.0004007  -0.0029633  -0.0026840   0.0006243   0.0012252
            7           8           9          10          11          12
    1  -0.0083604   0.0062857   0.0033678  -0.0011768  -0.0036181  -0.0013473
    2   0.0018660   0.0008928  -0.0035397  -0.0033318  -0.0002555   0.0006641
    3   0.0024656  -0.0021307   0.0011160   0.0023542   0.0013403   0.0007931
           13          14          15          16
    1   0.0058272  -0.0025896   0.0013127   0.0021936
    2   0.0006505   0.0001157  -0.0015455   0.0014816
    3   0.0017084  -0.0145057  -0.0021414   0.0116048
 Max gradient component =       1.451E-02
 RMS gradient           =       3.992E-03
 Computing fast CPCM-SWIG gradient
 Updating gradient with PCM contributions...
 -- total gradient after adding PCM contribution --
---------------------------------------------------
  Atom         X              Y              Z     
---------------------------------------------------
   1      -0.000081       0.000090      -0.000057
   2      -0.000083      -0.000009       0.000001
   3       0.000075      -0.000022      -0.000024
   4      -0.000005       0.000066      -0.000051
   5      -0.000183      -0.000058       0.000125
   6       0.000244      -0.000169       0.000001
   7      -0.000147       0.000180       0.000220
   8      -0.000048      -0.000010       0.000007
   9      -0.000028       0.000037      -0.000031
  10       0.000036       0.000020      -0.000058
  11       0.000060      -0.000027      -0.000025
  12       0.000080      -0.000035      -0.000007
  13      -0.000005       0.000028      -0.000046
  14       0.000094      -0.000093      -0.000066
  15      -0.000017       0.000135       0.000097
  16       0.000010      -0.000133      -0.000086
---------------------------------------------------
 Number of fixed atoms: 0
 Gradient time:  CPU 207.99 s  wall 30.27 s
 Geometry Optimization Parameters
   NAtoms,    NIC,     NZ,  NCons,   NDum,   NFix, NCnnct, MaxDiis
       16     106       0       0       0       0       0       0

 Cartesian Hessian Update
 Hessian updated using BFGS update


** GEOMETRY OPTIMIZATION IN DELOCALIZED INTERNAL COORDINATES **
   Searching for a Minimum

   Optimization Cycle:   3

                       Coordinates (Angstroms)
     ATOM                X               Y               Z
      1  C        -0.0269181477   -0.9814016851    0.0530658935
      2  C        -0.4376275198   -2.0713139518    0.8066263032
      3  C        -1.7513975300   -2.1543643954    1.2522226622
      4  C        -2.6467190721   -1.1423941418    0.9354908794
      5  C        -2.2354383507   -0.0544013614    0.1747604021
      6  C        -0.9218211265    0.0342892385   -0.2727194762
      7  C        -0.4507748490    1.1895908677   -1.1227651795
      8  H         1.0008985933   -0.9133046925   -0.2832496416
      9  H         0.2695696443   -2.8516512639    1.0539928481
     10  H        -2.0721519972   -2.9993266807    1.8462738222
     11  H        -3.6706684520   -1.1986596156    1.2806562238
     12  H        -2.9394488725    0.7295860486   -0.0684903367
     13  H         0.5926811992    1.4109521985   -0.8876831222
     14  O        -1.2491958747    2.3600536629   -0.9976755001
     15  H        -0.4950079466    0.9132470085   -2.1764396663
     16  H        -1.2081802979    2.6541771633   -0.0811677122
   Point Group: c1    Number of degrees of freedom:    42


   Energy is   -346.752523589

 Hessian updated using BFGS update

 42 Hessian modes will be used to form the next step
  Hessian Eigenvalues:
     0.006986    0.012540    0.016560    0.022813    0.023052    0.023077
     0.023147    0.023180    0.023227    0.023245    0.023288    0.062864
     0.073037    0.122082    0.143861    0.157410    0.159993    0.159994
     0.159999    0.159999    0.176888    0.218429    0.219997    0.220877
     0.234735    0.238064    0.308997    0.336701    0.342278    0.349530
     0.351023    0.351919    0.352192    0.352372    0.420535    0.422774
     0.431888    0.453786    0.465194    0.466249    0.483586    0.536163

 Minimum search - taking simple RFO step
 Searching for Lamda that Minimizes Along All modes
 Value Taken    Lamda =  -0.00000156
 Step Taken.  Stepsize is  0.008629

                             Maximum     Tolerance    Cnvgd?
         Gradient           0.000307      0.000300      NO
         Displacement       0.004987      0.001200      NO
         Energy change     -0.000009      0.000001      NO


 New Cartesian Coordinates Obtained by Inverse Iteration

 Displacement from previous Coordinates is:  0.015651
 ----------------------------------------------------------------
             Standard Nuclear Orientation (Angstroms)
    I     Atom           X                Y                Z
 ----------------------------------------------------------------
    1      C      -0.0269480328    -0.9807032392     0.0536349560
    2      C      -0.4372292096    -2.0708463657     0.8072702513
    3      C      -1.7513529339    -2.1546113270     1.2522563110
    4      C      -2.6471274349    -1.1431033362     0.9349309676
    5      C      -2.2362159869    -0.0548592170     0.1740233074
    6      C      -0.9225463595     0.0344793348    -0.2729649373
    7      C      -0.4513556980     1.1893008120    -1.1235338491
    8      H       1.0010705596    -0.9118432507    -0.2821938633
    9      H       0.2704118524    -2.8507677965     1.0550941531
   10      H      -2.0720234312    -2.9996654792     1.8463952489
   11      H      -3.6712863044    -1.1998106559     1.2797132109
   12      H      -2.9409972028     0.7285493886    -0.0694465638
   13      H       0.5927629055     1.4089111709    -0.8897204493
   14      O      -1.2478466261     2.3611264865    -0.9957666268
   15      H      -0.4978691793     0.9131126836    -2.1772894492
   16      H      -1.2036475182     2.6558091908    -0.0795042673
 ----------------------------------------------------------------
 Nuclear Repulsion Energy =         341.80524736 hartrees
 There are       29 alpha and       29 beta electrons
 Discretize the solute cavity surface with Lebedev spheres
	Using 110 Lebedev grid points for each H atom
	Using 194 Lebedev grid points for other atoms
	Atomic van der Waals radii will be scaled by 1.20
 Remove points where switching function is < 1.0e-08
 Keep 1162 surface tesserae and discard 1270 interior tesserae
 Molecular Surface Area = 141.403 Angst**2
 Applying Cartesian multipole field
    Component          Value
    ---------          -----
     (2,0,0)        1.00000E-11
     (0,2,0)        2.00000E-11
     (0,0,2)       -3.00000E-11
 Nucleus-field energy     =     0.0000000107 hartrees
 Requested basis set is 6-311++G(2df,2p)
 There are 112 shells and 352 basis functions
 A cutoff of  1.0D-12 yielded   5819 shell pairs
 There are     58120 function pairs (     72092 Cartesian)
 Smallest overlap matrix eigenvalue = 8.24E-07
 Linear dependence detected in AO basis
 Tighter screening thresholds may be required for diffuse basis sets
 Use S2THRESH > 14 and THRESH = 14 in case of SCF convergence issues
 Number of orthogonalized atomic orbitals = 351
 Maximum deviation from orthogonality = 3.787E-11
 Guess MOs from SCF MO coefficient file

 -----------------------------------------------------------------------
  General SCF calculation program by
  Eric Jon Sundstrom, Paul Horn, Yuezhi Mao, Dmitri Zuev, Alec White,
  David Stuck, Shaama M.S., Shane Yost, Joonho Lee, David Small,
  Daniel Levine, Susi Lehtola, Hugh Burton, Evgeny Epifanovsky,
  Bang C. Huynh
 -----------------------------------------------------------------------
 Exchange:     0.1500 Hartree-Fock + 1.0000 wB97M-V + LR-HF
 Correlation:  1.0000 wB97M-V
 Using SG-2 standard quadrature grid
 Nonlocal Correlation:  VV10 with C = 0.0100 and b = 6.00 and scale = 1.00000
 Grid used for NLC:  SG-1 standard quadrature
 
 Citation of the SMD model:
 Marenich, A.V.; Cramer, C.J.; Truhlar, D.G.
 J. Phys. Chem. B 2009, 113, 6378-6396.
 iSolventCode=           1
 Solvent: water                                                           
 
 vradii
            1           2           3           4           5           6
    1   1.8500000   1.8500000   1.8500000   1.8500000   1.8500000   1.8500000
            7           8           9          10          11          12
    1   1.8500000   1.2000000   1.2000000   1.2000000   1.2000000   1.2000000
           13          14          15          16
    1   1.2000000   1.5200000   1.2000000   1.2000000
 -------------------------------------------------------
 OpenMP BLAS3 based DFT computing Module                
 Release: version 1.0, May 2013, Q-Chem Inc. Pittsburgh 
 -------------------------------------------------------
 A restricted SCF calculation will be
 performed using Roothaan-Hall, DIIS, GDM
 SCF converges when RMS gradient is below 1.0e-07
 ---------------------------------------
  Cycle       Energy         DIIS error
 ---------------------------------------
    1    -346.7404423128      3.13e-04  Roothaan Step
 ---------------------------------------
  Cycle       Energy         DIIS error
 ---------------------------------------
    1    -346.7548872997      3.53e-04  
    2    -346.7568750902      2.71e-04  Done DIIS. Switching to GDM
 ---------------------------------------
  Cycle       Energy        RMS Gradient
 ---------------------------------------
    1    -346.7568750902      4.16e-03   Normal BFGS step
    2    -346.7569884448      4.11e-03   Normal BFGS step
    3    -346.7577337426      4.17e-04   Normal BFGS step
    4    -346.7577412290      3.96e-04   Normal BFGS step
    5    -346.7577445779      4.78e-05   Normal BFGS step
    6    -346.7577446757      1.82e-05   Normal BFGS step
    7    -346.7577446888      1.10e-05   Normal BFGS step
    8    -346.7577446908      1.38e-06   Normal BFGS step
    9    -346.7577446909      9.77e-07   Normal BFGS step
   10    -346.7577446909      2.57e-07   Normal BFGS step
   11    -346.7577446909      1.42e-07   Normal BFGS step
   12    -346.7577446909      6.88e-08  Convergence criterion met
 ---------------------------------------
 SCF time:   CPU 899.21s  wall 114.00s 
(3)  G-ENP(liq) elect-nuc-pol free energy of system     -346.757744691 a.u.
(4)  G-CDS(liq) cavity-dispersion-solvent structure 
     free energy                                                3.2756 kcal/mol
(6)  G-S(liq) free energy of system                     -346.752524624 a.u.
 SCF   energy in the final basis set =     -346.7525246237
 Total energy in the final basis set =     -346.7525246237
 
 --------------------------------------------------------------
 
                    Orbital Energies (a.u.)
 --------------------------------------------------------------
 
 Alpha MOs
 -- Occupied --
-19.3372 -10.3858 -10.3509 -10.3423 -10.3421 -10.3407 -10.3398 -10.3397
 -1.1560  -0.9856  -0.8886  -0.8679  -0.7957  -0.7197  -0.7009  -0.6365
 -0.6053  -0.5675  -0.5543  -0.5419  -0.5259  -0.5165  -0.4821  -0.4638
 -0.4386  -0.4289  -0.3936  -0.3460  -0.3353
 -- Virtual --
  0.0240   0.0363   0.0369   0.0472   0.0548   0.0555   0.0594   0.0677
  0.0862   0.0878   0.1006   0.1031   0.1089   0.1269   0.1410   0.1475
  0.1524   0.1577   0.1596   0.1620   0.1647   0.1734   0.1778   0.1811
  0.1858   0.1880   0.1980   0.2018   0.2091   0.2182   0.2214   0.2310
  0.2364   0.2538   0.2583   0.2681   0.2775   0.2806   0.2863   0.2965
  0.2981   0.3196   0.3300   0.3458   0.3499   0.3530   0.3610   0.3629
  0.3734   0.3914   0.4030   0.4162   0.4294   0.4419   0.4632   0.4849
  0.5343   0.5381   0.5519   0.5766   0.5868   0.5969   0.6056   0.6086
  0.6147   0.6166   0.6225   0.6253   0.6438   0.6541   0.6642   0.6775
  0.6885   0.6951   0.7068   0.7232   0.7298   0.7317   0.7364   0.7430
  0.7501   0.7545   0.7653   0.7693   0.7770   0.7846   0.8258   0.8322
  0.8391   0.8498   0.8590   0.8619   0.8826   0.8913   0.8962   0.9125
  0.9295   0.9501   0.9923   1.0045   1.0390   1.0524   1.0657   1.0778
  1.0962   1.1080   1.1272   1.1369   1.1472   1.1656   1.1830   1.1894
  1.1990   1.2320   1.2475   1.2591   1.2704   1.2887   1.3040   1.3230
  1.3347   1.3540   1.3820   1.3886   1.3961   1.4009   1.4113   1.4293
  1.4392   1.4491   1.4554   1.4758   1.4834   1.5087   1.5300   1.5417
  1.5644   1.5675   1.5797   1.5885   1.6071   1.6221   1.6554   1.7042
  1.7284   1.7575   1.7812   1.7993   1.8200   1.8220   1.8858   1.9074
  1.9899   2.0422   2.0795   2.0890   2.1070   2.1528   2.1927   2.2321
  2.3790   2.4170   2.5489   2.5823   2.6046   2.6383   2.6741   2.6847
  2.7230   2.7301   2.8012   2.8142   2.8198   2.8320   2.8348   2.8467
  2.8638   2.8729   2.8840   2.8926   2.9141   2.9178   2.9276   2.9313
  2.9365   2.9481   2.9669   2.9758   3.0008   3.0351   3.0448   3.0607
  3.0829   3.1498   3.1799   3.1838   3.2038   3.2091   3.2143   3.2385
  3.2495   3.2555   3.2687   3.2764   3.2792   3.3136   3.3329   3.3569
  3.3672   3.3756   3.3966   3.4225   3.4343   3.4501   3.4668   3.4833
  3.4992   3.5076   3.5134   3.5185   3.5371   3.5801   3.5962   3.6083
  3.6358   3.6400   3.6667   3.6827   3.7129   3.7229   3.7810   3.7904
  3.8048   3.8240   3.8353   3.8545   3.8556   3.8882   3.9021   3.9111
  3.9247   3.9416   3.9643   3.9693   3.9923   4.0142   4.0737   4.1014
  4.1310   4.1378   4.1521   4.1661   4.1753   4.1931   4.2100   4.2393
  4.2716   4.3069   4.3470   4.3543   4.4013   4.4212   4.4236   4.4465
  4.4531   4.4700   4.5241   4.5387   4.5565   4.5746   4.5798   4.5908
  4.6015   4.6256   4.6363   4.7301   4.7426   4.7826   4.8241   4.8525
  4.8764   4.9602   5.0699   5.1351   5.1783   5.1856   5.2167   5.2664
  5.2809   5.3164   5.3461   5.4152   5.4826   5.5254   5.5446   5.5946
  5.6819   5.7043   5.7539   5.8226   5.8722   5.8918   5.9231   5.9902
  6.0723   6.2778   6.6286   6.6582   7.1015   7.3158   7.3329   7.3502
  7.6594   7.7846  24.1790  24.7943  24.8064  24.8180  25.0473  25.0662
 25.5280  50.5893
 --------------------------------------------------------------
 
          Ground-State Mulliken Net Atomic Charges

     Atom                 Charge (a.u.)
  ----------------------------------------
      1 C                    -0.498638
      2 C                    -0.351095
      3 C                    -0.373877
      4 C                    -0.377428
      5 C                    -0.172611
      6 C                     0.497848
      7 C                    -0.390287
      8 H                     0.271519
      9 H                     0.282415
     10 H                     0.276380
     11 H                     0.282653
     12 H                     0.268642
     13 H                     0.215692
     14 O                    -0.436047
     15 H                     0.175587
     16 H                     0.329248
  ----------------------------------------
  Sum of atomic charges =     0.000000

 -----------------------------------------------------------------
                    Cartesian Multipole Moments
 -----------------------------------------------------------------
    Charge (ESU x 10^10)
                -0.0000
    Dipole Moment (Debye)
         X       1.2665      Y      -0.8202      Z       1.4892
       Tot       2.1200
    Quadrupole Moments (Debye-Ang)
        XX     -46.2588     XY       1.6579     YY     -48.6830
        XZ      -5.0043     YZ       2.3641     ZZ     -50.5336
    Octopole Moments (Debye-Ang^2)
       XXX     161.7469    XXY       9.7854    XYY      63.7503
       YYY      32.8369    XXZ       7.8382    XYZ      -2.6601
       YYZ      23.0726    XZZ      60.7429    YZZ       8.1455
       ZZZ     -18.3909
    Hexadecapole Moments (Debye-Ang^3)
      XXXX    -687.2629   XXXY     -59.6730   XXYY    -255.2533
      XYYY     -61.7692   YYYY    -757.0121   XXXZ      29.8666
      XXYZ      53.7246   XYYZ     -15.6509   YYYZ     193.9700
      XXZZ    -173.9556   XYZZ      -7.4300   YYZZ    -182.1225
      XZZZ      68.9496   YZZZ     180.8495   ZZZZ    -285.4172
 -----------------------------------------------------------------
 Calculating analytic gradient of the SCF energy
 Gradient of CDS energy
            1           2           3           4           5           6
    1   0.0002947   0.0003447  -0.0001592  -0.0004811  -0.0001580  -0.0000172
    2   0.0001318  -0.0003643  -0.0004121  -0.0000091   0.0002295   0.0000217
    3  -0.0001343   0.0001044   0.0002861   0.0001523  -0.0001695  -0.0000520
            7           8           9          10          11          12
    1   0.0004949   0.0001693   0.0001359  -0.0000615  -0.0001969  -0.0000563
    2   0.0006031   0.0000507  -0.0001498  -0.0001621  -0.0000109   0.0001517
    3  -0.0006271  -0.0000448   0.0000476   0.0001139   0.0000663  -0.0000782
           13          14          15          16
    1   0.0000995  -0.0001181  -0.0002003  -0.0000902
    2  -0.0001680  -0.0002751  -0.0001123   0.0004750
    3   0.0001513   0.0000721  -0.0001060   0.0002179
 Gradient of SCF Energy
            1           2           3           4           5           6
    1  -0.0075765  -0.0043442   0.0007301   0.0052260   0.0025346   0.0015469
    2  -0.0019270   0.0026639   0.0043265   0.0012978  -0.0022902  -0.0009454
    3   0.0015923  -0.0003852  -0.0029356  -0.0026544   0.0005578   0.0011720
            7           8           9          10          11          12
    1  -0.0082667   0.0063536   0.0034161  -0.0012046  -0.0036814  -0.0014263
    2   0.0017582   0.0009088  -0.0035908  -0.0033797  -0.0002529   0.0006785
    3   0.0022899  -0.0021462   0.0011281   0.0023931   0.0013565   0.0007950
           13          14          15          16
    1   0.0058448  -0.0026729   0.0013314   0.0021891
    2   0.0006392   0.0001816  -0.0016659   0.0015976
    3   0.0017778  -0.0143721  -0.0022326   0.0116636
 Max gradient component =       1.437E-02
 RMS gradient           =       3.980E-03
 Computing fast CPCM-SWIG gradient
 Updating gradient with PCM contributions...
 -- total gradient after adding PCM contribution --
---------------------------------------------------
  Atom         X              Y              Z     
---------------------------------------------------
   1       0.000029       0.000054      -0.000066
   2      -0.000002      -0.000056       0.000014
   3       0.000031      -0.000071       0.000005
   4      -0.000044       0.000036      -0.000023
   5      -0.000062       0.000012       0.000052
   6       0.000050       0.000020      -0.000031
   7      -0.000059       0.000070       0.000041
   8       0.000014      -0.000000      -0.000009
   9       0.000017      -0.000014      -0.000021
  10       0.000008      -0.000028      -0.000019
  11      -0.000007      -0.000022      -0.000006
  12      -0.000006       0.000010      -0.000002
  13       0.000002       0.000024       0.000021
  14       0.000056      -0.000028       0.000045
  15       0.000013       0.000018       0.000014
  16      -0.000040      -0.000024      -0.000012
---------------------------------------------------
 Number of fixed atoms: 0
 Gradient time:  CPU 210.91 s  wall 30.59 s
 Geometry Optimization Parameters
   NAtoms,    NIC,     NZ,  NCons,   NDum,   NFix, NCnnct, MaxDiis
       16     106       0       0       0       0       0       0

 Cartesian Hessian Update
 Hessian updated using BFGS update


** GEOMETRY OPTIMIZATION IN DELOCALIZED INTERNAL COORDINATES **
   Searching for a Minimum

   Optimization Cycle:   4

                       Coordinates (Angstroms)
     ATOM                X               Y               Z
      1  C        -0.0269480328   -0.9807032392    0.0536349560
      2  C        -0.4372292096   -2.0708463657    0.8072702513
      3  C        -1.7513529339   -2.1546113270    1.2522563110
      4  C        -2.6471274349   -1.1431033362    0.9349309676
      5  C        -2.2362159869   -0.0548592170    0.1740233074
      6  C        -0.9225463595    0.0344793348   -0.2729649373
      7  C        -0.4513556980    1.1893008120   -1.1235338491
      8  H         1.0010705596   -0.9118432507   -0.2821938633
      9  H         0.2704118524   -2.8507677965    1.0550941531
     10  H        -2.0720234312   -2.9996654792    1.8463952489
     11  H        -3.6712863044   -1.1998106559    1.2797132109
     12  H        -2.9409972028    0.7285493886   -0.0694465638
     13  H         0.5927629055    1.4089111709   -0.8897204493
     14  O        -1.2478466261    2.3611264865   -0.9957666268
     15  H        -0.4978691793    0.9131126836   -2.1772894492
     16  H        -1.2036475182    2.6558091908   -0.0795042673
   Point Group: c1    Number of degrees of freedom:    42


   Energy is   -346.752524624

 Hessian updated using BFGS update

 42 Hessian modes will be used to form the next step
  Hessian Eigenvalues:
     0.003727    0.011962    0.016549    0.022766    0.023055    0.023074
     0.023150    0.023182    0.023230    0.023244    0.023283    0.063527
     0.073025    0.123718    0.143605    0.156685    0.159962    0.159993
     0.159999    0.160034    0.189317    0.219265    0.219976    0.222932
     0.234610    0.244584    0.309096    0.337175    0.344675    0.350335
     0.351864    0.352162    0.352338    0.360181    0.421434    0.422905
     0.435914    0.453136    0.465135    0.466230    0.521997    0.553504

 Minimum search - taking simple RFO step
 Searching for Lamda that Minimizes Along All modes
 Value Taken    Lamda =  -0.00000108
 Step Taken.  Stepsize is  0.016310

                             Maximum     Tolerance    Cnvgd?
         Gradient           0.000092      0.000300     YES
         Displacement       0.009939      0.001200      NO
         Energy change     -0.000001      0.000001      NO


 New Cartesian Coordinates Obtained by Inverse Iteration

 Displacement from previous Coordinates is:  0.029646
 ----------------------------------------------------------------
             Standard Nuclear Orientation (Angstroms)
    I     Atom           X                Y                Z
 ----------------------------------------------------------------
    1      C      -0.0270514469    -0.9795995562     0.0547995429
    2      C      -0.4367339004    -2.0698142073     0.8085553590
    3      C      -1.7512713365    -2.1547858010     1.2523236112
    4      C      -2.6477454249    -1.1443924481     0.9337321869
    5      C      -2.2373519681    -0.0560062523     0.1725875943
    6      C      -0.9235485484     0.0345127281    -0.2732645737
    7      C      -0.4526056524     1.1888949991    -1.1245696326
    8      H       1.0012350658    -0.9095398510    -0.2800353330
    9      H       0.2715451361    -2.8488622124     1.0574115294
   10      H      -2.0717185319    -2.9999029342     1.8465516996
   11      H      -3.6721949764    -1.2019396686     1.2776197602
   12      H      -2.9430750084     0.7263847010    -0.0716503339
   13      H       0.5928751457     1.4055855179    -0.8942691968
   14      O      -1.2456580274     2.3628375436    -0.9921630272
   15      H      -0.5040465940     0.9137838820    -2.1784314727
   16      H      -1.1948545320     2.6579219591    -0.0762993136
 ----------------------------------------------------------------
 Nuclear Repulsion Energy =         341.78977623 hartrees
 There are       29 alpha and       29 beta electrons
 Discretize the solute cavity surface with Lebedev spheres
	Using 110 Lebedev grid points for each H atom
	Using 194 Lebedev grid points for other atoms
	Atomic van der Waals radii will be scaled by 1.20
 Remove points where switching function is < 1.0e-08
 Keep 1160 surface tesserae and discard 1272 interior tesserae
 Molecular Surface Area = 141.423 Angst**2
 Applying Cartesian multipole field
    Component          Value
    ---------          -----
     (2,0,0)        1.00000E-11
     (0,2,0)        2.00000E-11
     (0,0,2)       -3.00000E-11
 Nucleus-field energy     =     0.0000000107 hartrees
 Requested basis set is 6-311++G(2df,2p)
 There are 112 shells and 352 basis functions
 A cutoff of  1.0D-12 yielded   5819 shell pairs
 There are     58120 function pairs (     72092 Cartesian)
 Smallest overlap matrix eigenvalue = 8.25E-07
 Linear dependence detected in AO basis
 Tighter screening thresholds may be required for diffuse basis sets
 Use S2THRESH > 14 and THRESH = 14 in case of SCF convergence issues
 Number of orthogonalized atomic orbitals = 351
 Maximum deviation from orthogonality = 1.199E-10
 Guess MOs from SCF MO coefficient file

 -----------------------------------------------------------------------
  General SCF calculation program by
[...]
    3    -346.7577380322      4.20e-04   Normal BFGS step
    4    -346.7577454991      3.97e-04   Normal BFGS step
    5    -346.7577488368      4.69e-05   Normal BFGS step
    6    -346.7577489339      1.80e-05   Normal BFGS step
    7    -346.7577489471      1.07e-05   Normal BFGS step
    8    -346.7577489490      1.33e-06   Normal BFGS step
    9    -346.7577489492      9.31e-07   Normal BFGS step
   10    -346.7577489492      2.40e-07   Normal BFGS step
   11    -346.7577489492      1.35e-07   Normal BFGS step
   12    -346.7577489492      6.60e-08  Convergence criterion met
 ---------------------------------------
 SCF time:   CPU 897.87s  wall 115.00s 
(3)  G-ENP(liq) elect-nuc-pol free energy of system     -346.757748949 a.u.
(4)  G-CDS(liq) cavity-dispersion-solvent structure 
     free energy                                                3.2778 kcal/mol
(6)  G-S(liq) free energy of system                     -346.752525521 a.u.
 SCF   energy in the final basis set =     -346.7525255212
 Total energy in the final basis set =     -346.7525255212
 
 --------------------------------------------------------------
 
                    Orbital Energies (a.u.)
 --------------------------------------------------------------
 
 Alpha MOs
 -- Occupied --
-19.3372 -10.3858 -10.3509 -10.3423 -10.3421 -10.3407 -10.3398 -10.3398
 -1.1558  -0.9856  -0.8886  -0.8679  -0.7957  -0.7197  -0.7009  -0.6364
 -0.6054  -0.5674  -0.5542  -0.5420  -0.5259  -0.5165  -0.4821  -0.4638
 -0.4386  -0.4288  -0.3936  -0.3460  -0.3354
 -- Virtual --
  0.0240   0.0362   0.0369   0.0472   0.0548   0.0555   0.0593   0.0677
  0.0862   0.0878   0.1007   0.1031   0.1089   0.1269   0.1410   0.1475
  0.1524   0.1577   0.1596   0.1620   0.1647   0.1734   0.1778   0.1811
  0.1858   0.1879   0.1979   0.2018   0.2090   0.2182   0.2214   0.2310
  0.2365   0.2538   0.2582   0.2682   0.2774   0.2805   0.2862   0.2964
  0.2982   0.3196   0.3300   0.3459   0.3499   0.3530   0.3609   0.3627
  0.3734   0.3913   0.4032   0.4160   0.4295   0.4418   0.4631   0.4848
  0.5343   0.5380   0.5519   0.5766   0.5869   0.5970   0.6056   0.6085
  0.6148   0.6167   0.6225   0.6252   0.6438   0.6541   0.6644   0.6775
  0.6884   0.6953   0.7069   0.7234   0.7298   0.7316   0.7365   0.7429
  0.7504   0.7545   0.7651   0.7695   0.7770   0.7848   0.8259   0.8321
  0.8391   0.8497   0.8591   0.8616   0.8827   0.8910   0.8962   0.9122
  0.9294   0.9494   0.9922   1.0045   1.0394   1.0523   1.0661   1.0776
  1.0960   1.1080   1.1270   1.1366   1.1476   1.1656   1.1831   1.1891
  1.1993   1.2324   1.2479   1.2587   1.2706   1.2886   1.3033   1.3231
  1.3345   1.3542   1.3821   1.3888   1.3961   1.4009   1.4111   1.4292
  1.4394   1.4490   1.4552   1.4756   1.4836   1.5089   1.5299   1.5419
  1.5643   1.5672   1.5797   1.5884   1.6067   1.6221   1.6553   1.7041
  1.7287   1.7573   1.7810   1.7993   1.8200   1.8220   1.8857   1.9075
  1.9898   2.0428   2.0794   2.0890   2.1067   2.1529   2.1917   2.2321
  2.3789   2.4174   2.5496   2.5819   2.6047   2.6381   2.6740   2.6848
  2.7229   2.7293   2.8012   2.8142   2.8196   2.8320   2.8348   2.8467
  2.8637   2.8729   2.8839   2.8924   2.9141   2.9179   2.9276   2.9312
  2.9364   2.9479   2.9669   2.9759   3.0008   3.0349   3.0446   3.0607
  3.0828   3.1498   3.1802   3.1837   3.2038   3.2093   3.2148   3.2385
  3.2494   3.2558   3.2685   3.2765   3.2789   3.3136   3.3329   3.3569
  3.3669   3.3755   3.3967   3.4226   3.4344   3.4504   3.4666   3.4834
  3.4990   3.5076   3.5131   3.5186   3.5371   3.5798   3.5956   3.6083
  3.6359   3.6399   3.6666   3.6829   3.7132   3.7224   3.7809   3.7905
  3.8049   3.8240   3.8356   3.8546   3.8554   3.8882   3.9023   3.9110
  3.9249   3.9413   3.9645   3.9692   3.9923   4.0137   4.0734   4.1014
  4.1301   4.1376   4.1520   4.1666   4.1753   4.1932   4.2099   4.2392
  4.2717   4.3068   4.3471   4.3538   4.4015   4.4208   4.4237   4.4465
  4.4528   4.4699   4.5240   4.5389   4.5564   4.5745   4.5797   4.5906
  4.6018   4.6257   4.6359   4.7298   4.7426   4.7825   4.8239   4.8524
  4.8763   4.9603   5.0700   5.1349   5.1784   5.1856   5.2167   5.2662
  5.2810   5.3160   5.3464   5.4150   5.4825   5.5252   5.5445   5.5941
  5.6818   5.7045   5.7538   5.8227   5.8722   5.8916   5.9226   5.9897
  6.0719   6.2777   6.6280   6.6579   7.1014   7.3153   7.3329   7.3498
  7.6592   7.7843  24.1789  24.7942  24.8063  24.8173  25.0473  25.0661
 25.5279  50.5890
 --------------------------------------------------------------
 
          Ground-State Mulliken Net Atomic Charges

     Atom                 Charge (a.u.)
  ----------------------------------------
      1 C                    -0.503560
      2 C                    -0.351173
      3 C                    -0.374671
      4 C                    -0.377209
      5 C                    -0.168886
      6 C                     0.499415
      7 C                    -0.390589
      8 H                     0.271298
      9 H                     0.282468
     10 H                     0.276379
     11 H                     0.282624
     12 H                     0.268977
     13 H                     0.216464
     14 O                    -0.435811
     15 H                     0.175095
     16 H                     0.329178
  ----------------------------------------
  Sum of atomic charges =     0.000000

 -----------------------------------------------------------------
                    Cartesian Multipole Moments
 -----------------------------------------------------------------
    Charge (ESU x 10^10)
                 0.0000
    Dipole Moment (Debye)
         X       1.2742      Y      -0.8244      Z       1.4833
       Tot       2.1221
    Quadrupole Moments (Debye-Ang)
        XX     -46.2715     XY       1.6981     YY     -48.6999
        XZ      -4.9730     YZ       2.3518     ZZ     -50.5076
    Octopole Moments (Debye-Ang^2)
       XXX     161.7705    XXY       9.6771    XYY      63.8579
       YYY      32.8111    XXZ       7.7607    XYZ      -2.6269
       YYZ      23.0815    XZZ      60.7012    YZZ       8.1881
       ZZZ     -18.4633
    Hexadecapole Moments (Debye-Ang^3)
      XXXX    -687.3181   XXXY     -59.5938   XXYY    -255.5494
      XYYY     -61.5944   YYYY    -757.2577   XXXZ      29.9636
      XXYZ      53.6106   XYYZ     -15.6271   YYYZ     193.9979
      XXZZ    -173.9084   XYZZ      -7.6029   YYZZ    -181.9794
      XZZZ      69.0162   YZZZ     180.7152   ZZZZ    -285.2189
 -----------------------------------------------------------------
 Calculating analytic gradient of the SCF energy
 Gradient of CDS energy
            1           2           3           4           5           6
    1   0.0002949   0.0003451  -0.0001592  -0.0004812  -0.0001576  -0.0000193
    2   0.0001322  -0.0003638  -0.0004120  -0.0000096   0.0002288   0.0000224
    3  -0.0001339   0.0001049   0.0002861   0.0001519  -0.0001693  -0.0000521
            7           8           9          10          11          12
    1   0.0004964   0.0001692   0.0001361  -0.0000615  -0.0001970  -0.0000570
    2   0.0006001   0.0000514  -0.0001496  -0.0001621  -0.0000111   0.0001529
    3  -0.0006296  -0.0000452   0.0000478   0.0001140   0.0000661  -0.0000779
           13          14          15          16
    1   0.0000991  -0.0001179  -0.0002009  -0.0000893
    2  -0.0001679  -0.0002745  -0.0001119   0.0004748
    3   0.0001507   0.0000723  -0.0001053   0.0002194
 Gradient of SCF Energy
            1           2           3           4           5           6
    1  -0.0075891  -0.0042926   0.0006613   0.0052714   0.0027176   0.0013092
    2  -0.0020538   0.0026799   0.0043683   0.0012355  -0.0022086  -0.0008209
    3   0.0016426  -0.0004083  -0.0029451  -0.0026173   0.0004953   0.0011513
            7           8           9          10          11          12
    1  -0.0081537   0.0063797   0.0034337  -0.0012216  -0.0036983  -0.0014543
    2   0.0016777   0.0009317  -0.0036033  -0.0033938  -0.0002528   0.0006221
    3   0.0022075  -0.0021476   0.0011331   0.0024042   0.0013565   0.0008070
           13          14          15          16
    1   0.0058621  -0.0028154   0.0013131   0.0022771
    2   0.0006328   0.0002477  -0.0017195   0.0016569
    3   0.0018139  -0.0143226  -0.0022741   0.0117034
 Max gradient component =       1.432E-02
 RMS gradient           =       3.981E-03
 Computing fast CPCM-SWIG gradient
 Updating gradient with PCM contributions...
 -- total gradient after adding PCM contribution --
---------------------------------------------------
  Atom         X              Y              Z     
---------------------------------------------------
   1       0.000056      -0.000034      -0.000034
   2       0.000050      -0.000017      -0.000014
   3      -0.000028      -0.000033      -0.000005
   4      -0.000004      -0.000041       0.000011
   5       0.000098       0.000044      -0.000016
   6      -0.000165       0.000102      -0.000010
   7       0.000043      -0.000007      -0.000053
   8       0.000032       0.000012      -0.000014
   9       0.000030      -0.000029      -0.000022
  10      -0.000009      -0.000041      -0.000008
  11      -0.000030      -0.000017       0.000001
  12      -0.000049       0.000011       0.000016
  13      -0.000004       0.000027       0.000061
  14       0.000008       0.000026       0.000046
  15       0.000018      -0.000034      -0.000019
  16      -0.000047       0.000032       0.000059
---------------------------------------------------
 Number of fixed atoms: 0
 Gradient time:  CPU 210.47 s  wall 30.36 s
 Geometry Optimization Parameters
   NAtoms,    NIC,     NZ,  NCons,   NDum,   NFix, NCnnct, MaxDiis
       16     106       0       0       0       0       0       0

 Cartesian Hessian Update
 Hessian updated using BFGS update


** GEOMETRY OPTIMIZATION IN DELOCALIZED INTERNAL COORDINATES **
   Searching for a Minimum

   Optimization Cycle:   5

                       Coordinates (Angstroms)
     ATOM                X               Y               Z
      1  C        -0.0270514469   -0.9795995562    0.0547995429
      2  C        -0.4367339004   -2.0698142073    0.8085553590
      3  C        -1.7512713365   -2.1547858010    1.2523236112
      4  C        -2.6477454249   -1.1443924481    0.9337321869
      5  C        -2.2373519681   -0.0560062523    0.1725875943
      6  C        -0.9235485484    0.0345127281   -0.2732645737
      7  C        -0.4526056524    1.1888949991   -1.1245696326
      8  H         1.0012350658   -0.9095398510   -0.2800353330
      9  H         0.2715451361   -2.8488622124    1.0574115294
     10  H        -2.0717185319   -2.9999029342    1.8465516996
     11  H        -3.6721949764   -1.2019396686    1.2776197602
     12  H        -2.9430750084    0.7263847010   -0.0716503339
     13  H         0.5928751457    1.4055855179   -0.8942691968
     14  O        -1.2456580274    2.3628375436   -0.9921630272
     15  H        -0.5040465940    0.9137838820   -2.1784314727
     16  H        -1.1948545320    2.6579219591   -0.0762993136
   Point Group: c1    Number of degrees of freedom:    42


   Energy is   -346.752525521

 Hessian updated using BFGS update

 42 Hessian modes will be used to form the next step
  Hessian Eigenvalues:
     0.000758    0.012087    0.016547    0.022845    0.023057    0.023097
     0.023148    0.023181    0.023231    0.023247    0.023326    0.064823
     0.073308    0.125052    0.143532    0.159879    0.159924    0.159993
     0.160015    0.162034    0.191013    0.219955    0.220510    0.222991
     0.235099    0.266534    0.309995    0.337190    0.345271    0.350340
     0.351901    0.352157    0.352349    0.363113    0.422131    0.422879
     0.447468    0.464877    0.466209    0.497614    0.518301    0.664802

 Minimum search - taking simple RFO step
 Searching for Lamda that Minimizes Along All modes
 Value Taken    Lamda =  -0.00000354
 Step Taken.  Stepsize is  0.066780

                             Maximum     Tolerance    Cnvgd?
         Gradient           0.000101      0.000300     YES
         Displacement       0.040768      0.001200      NO
         Energy change     -0.000001      0.000001     YES

 Final energy is   -346.752525521173     


 ******************************
 **  OPTIMIZATION CONVERGED  **
 ******************************

                       Coordinates (Angstroms)
     ATOM                X               Y               Z
      1  C        -0.0270514469   -0.9795995562    0.0547995429
      2  C        -0.4367339004   -2.0698142073    0.8085553590
      3  C        -1.7512713365   -2.1547858010    1.2523236112
      4  C        -2.6477454249   -1.1443924481    0.9337321869
      5  C        -2.2373519681   -0.0560062523    0.1725875943
      6  C        -0.9235485484    0.0345127281   -0.2732645737
      7  C        -0.4526056524    1.1888949991   -1.1245696326
      8  H         1.0012350658   -0.9095398510   -0.2800353330
      9  H         0.2715451361   -2.8488622124    1.0574115294
     10  H        -2.0717185319   -2.9999029342    1.8465516996
     11  H        -3.6721949764   -1.2019396686    1.2776197602
     12  H        -2.9430750084    0.7263847010   -0.0716503339
     13  H         0.5928751457    1.4055855179   -0.8942691968
     14  O        -1.2456580274    2.3628375436   -0.9921630272
     15  H        -0.5040465940    0.9137838820   -2.1784314727
     16  H        -1.1948545320    2.6579219591   -0.0762993136

Z-matrix Print:
$molecule
0 1
C 
C  1 1.390344
H  2 1.081588 1 119.805563
C  2 1.390089 1 120.367045 3 -179.808749 0
H  4 1.082159 2 119.677732 1 179.802645 0
C  4 1.387826 2 120.332665 1 -0.244597 0
H  6 1.081673 4 120.236382 2 179.863398 0
C  6 1.390021 4 119.543525 2 0.205555 0
H  8 1.081899 6 120.109908 4 179.573208 0
C  8 1.387284 6 120.051350 4 0.123566 0
H  10 1.083695 8 119.926903 6 179.265207 0
C  1 1.509671 2 121.694577 3 -1.433641 0
H  12 1.090393 1 109.716438 2 -95.134259 0
H  12 1.092256 1 109.353348 2 147.316297 0
O  12 1.422886 1 113.861999 2 23.175984 0
H  15 0.963567 12 108.163183 1 61.736774 0
$end

 
 --------------------------------------------------------------
 
                    Orbital Energies (a.u.)
 --------------------------------------------------------------
 
 Alpha MOs
 -- Occupied --
-19.3372 -10.3858 -10.3509 -10.3423 -10.3421 -10.3407 -10.3398 -10.3398
 -1.1558  -0.9856  -0.8886  -0.8679  -0.7957  -0.7197  -0.7009  -0.6364
 -0.6054  -0.5674  -0.5542  -0.5420  -0.5259  -0.5165  -0.4821  -0.4638
 -0.4386  -0.4288  -0.3936  -0.3460  -0.3354
 -- Virtual --
  0.0240   0.0362   0.0369   0.0472   0.0548   0.0555   0.0593   0.0677
  0.0862   0.0878   0.1007   0.1031   0.1089   0.1269   0.1410   0.1475
  0.1524   0.1577   0.1596   0.1620   0.1647   0.1734   0.1778   0.1811
  0.1858   0.1879   0.1979   0.2018   0.2090   0.2182   0.2214   0.2310
  0.2365   0.2538   0.2582   0.2682   0.2774   0.2805   0.2862   0.2964
  0.2982   0.3196   0.3300   0.3459   0.3499   0.3530   0.3609   0.3627
  0.3734   0.3913   0.4032   0.4160   0.4295   0.4418   0.4631   0.4848
  0.5343   0.5380   0.5519   0.5766   0.5869   0.5970   0.6056   0.6085
  0.6148   0.6167   0.6225   0.6252   0.6438   0.6541   0.6644   0.6775
  0.6884   0.6953   0.7069   0.7234   0.7298   0.7316   0.7365   0.7429
  0.7504   0.7545   0.7651   0.7695   0.7770   0.7848   0.8259   0.8321
  0.8391   0.8497   0.8591   0.8616   0.8827   0.8910   0.8962   0.9122
  0.9294   0.9494   0.9922   1.0045   1.0394   1.0523   1.0661   1.0776
  1.0960   1.1080   1.1270   1.1366   1.1476   1.1656   1.1831   1.1891
  1.1993   1.2324   1.2479   1.2587   1.2706   1.2886   1.3033   1.3231
  1.3345   1.3542   1.3821   1.3888   1.3961   1.4009   1.4111   1.4292
  1.4394   1.4490   1.4552   1.4756   1.4836   1.5089   1.5299   1.5419
  1.5643   1.5672   1.5797   1.5884   1.6067   1.6221   1.6553   1.7041
  1.7287   1.7573   1.7810   1.7993   1.8200   1.8220   1.8857   1.9075
  1.9898   2.0428   2.0794   2.0890   2.1067   2.1529   2.1917   2.2321
  2.3789   2.4174   2.5496   2.5819   2.6047   2.6381   2.6740   2.6848
  2.7229   2.7293   2.8012   2.8142   2.8196   2.8320   2.8348   2.8467
  2.8637   2.8729   2.8839   2.8924   2.9141   2.9179   2.9276   2.9312
  2.9364   2.9479   2.9669   2.9759   3.0008   3.0349   3.0446   3.0607
  3.0828   3.1498   3.1802   3.1837   3.2038   3.2093   3.2148   3.2385
  3.2494   3.2558   3.2685   3.2765   3.2789   3.3136   3.3329   3.3569
  3.3669   3.3755   3.3967   3.4226   3.4344   3.4504   3.4666   3.4834
  3.4990   3.5076   3.5131   3.5186   3.5371   3.5798   3.5956   3.6083
  3.6359   3.6399   3.6666   3.6829   3.7132   3.7224   3.7809   3.7905
  3.8049   3.8240   3.8356   3.8546   3.8554   3.8882   3.9023   3.9110
  3.9249   3.9413   3.9645   3.9692   3.9923   4.0137   4.0734   4.1014
  4.1301   4.1376   4.1520   4.1666   4.1753   4.1932   4.2099   4.2392
  4.2717   4.3068   4.3471   4.3538   4.4015   4.4208   4.4237   4.4465
  4.4528   4.4699   4.5240   4.5389   4.5564   4.5745   4.5797   4.5906
  4.6018   4.6257   4.6359   4.7298   4.7426   4.7825   4.8239   4.8524
  4.8763   4.9603   5.0700   5.1349   5.1784   5.1856   5.2167   5.2662
  5.2810   5.3160   5.3464   5.4150   5.4825   5.5252   5.5445   5.5941
  5.6818   5.7045   5.7538   5.8227   5.8722   5.8916   5.9226   5.9897
  6.0719   6.2777   6.6280   6.6579   7.1014   7.3153   7.3329   7.3498
  7.6592   7.7843  24.1789  24.7942  24.8063  24.8173  25.0473  25.0661
 25.5279  50.5890
 --------------------------------------------------------------
 
          Ground-State Mulliken Net Atomic Charges

     Atom                 Charge (a.u.)
  ----------------------------------------
      1 C                    -0.503560
      2 C                    -0.351173
      3 C                    -0.374671
      4 C                    -0.377209
      5 C                    -0.168886
      6 C                     0.499415
      7 C                    -0.390589
      8 H                     0.271298
      9 H                     0.282468
     10 H                     0.276379
     11 H                     0.282624
     12 H                     0.268977
     13 H                     0.216464
     14 O                    -0.435811
     15 H                     0.175095
     16 H                     0.329178
  ----------------------------------------
  Sum of atomic charges =     0.000000

 -----------------------------------------------------------------
                    Cartesian Multipole Moments
 -----------------------------------------------------------------
    Charge (ESU x 10^10)
                 0.0000
    Dipole Moment (Debye)
         X       1.2742      Y      -0.8244      Z       1.4833
       Tot       2.1221
    Quadrupole Moments (Debye-Ang)
        XX     -46.2715     XY       1.6981     YY     -48.6999
        XZ      -4.9730     YZ       2.3518     ZZ     -50.5076
    Octopole Moments (Debye-Ang^2)
       XXX     161.7705    XXY       9.6771    XYY      63.8579
       YYY      32.8111    XXZ       7.7607    XYZ      -2.6269
       YYZ      23.0815    XZZ      60.7012    YZZ       8.1881
       ZZZ     -18.4633
    Hexadecapole Moments (Debye-Ang^3)
      XXXX    -687.3181   XXXY     -59.5938   XXYY    -255.5494
      XYYY     -61.5944   YYYY    -757.2577   XXXZ      29.9636
      XXYZ      53.6106   XYYZ     -15.6271   YYYZ     193.9979
      XXZZ    -173.9084   XYZZ      -7.6029   YYZZ    -181.9794
      XZZZ      69.0162   YZZZ     180.7152   ZZZZ    -285.2189
 -----------------------------------------------------------------
 Total job time:  733.77s(wall), 5614.43s(cpu) 
 Wed Dec 14 17:49:00 2022

        *************************************************************
        *                                                           *
        *  Thank you very much for using Q-Chem.  Have a nice day.  *
        *                                                           *
        *************************************************************


