
Running Job 1 of 1 Q_in.in
qchem Q_in.in_163681.0 /scratch/ari.fischer/qChem1444726.hpc-mn1/qchem163681/ 0
/usr/local/qchem-5.4.1/exe/qcprog.exe_s Q_in.in_163681.0 /scratch/ari.fischer/qChem1444726.hpc-mn1/qchem163681/
                  Welcome to Q-Chem
     A Quantum Leap Into The Future Of Chemistry


 Q-Chem 5.4, Q-Chem, Inc., Pleasanton, CA (2021)

 License issued to: Nanyang Technological University (site)

 E. Epifanovsky,  A. T. B. Gilbert,  Xintian Feng,  Joonho Lee,  Yuezhi Mao,  
 N. Mardirossian,  P. Pokhilko,  A. White,  M. Wormit,  M. P. Coons,  
 A. L. Dempwolff,  Zhengting Gan,  D. Hait,  P. R. Horn,  L. D. Jacobson,  
 I. Kaliman,  J. Kussmann,  A. W. Lange,  Ka Un Lao,  D. S. Levine,  Jie Liu,  
 S. C. McKenzie,  A. F. Morrison,  K. Nanda,  F. Plasser,  D. R. Rehn,  
 M. L. Vidal,  Zhi-Qiang You,  Ying Zhu,  B. Alam,  B. Albrecht,  
 A. Aldossary,  E. Alguire,  J. H. Andersen,  D. Barton,  K. Begam,  A. Behn,  
 Y. A. Bernard,  E. J. Berquist,  H. Burton,  A. Carreras,  K. Carter-Fenk,  
 R. Chakraborty,  A. D. Chien,  K. D. Closser,  V. Cofer-Shabica,  
 S. Dasgupta,  Jia Deng,  M. de Wergifosse,  M. Diedenhofen,  Hainam Do,  
 S. Ehlert,  Po-Tung Fang,  S. Fatehi,  Qingguo Feng,  T. Friedhoff,  
 J. Gayvert,  Qinghui Ge,  G. Gidofalvi,  M. Goldey,  J. Gomes,  
 C. Gonzalez-Espinoza,  S. Gulania,  A. Gunina,  M. W. D. Hanson-Heine,  
 P. H. P. Harbach,  A. W. Hauser,  M. F. Herbst,  M. Hernandez Vera,  
 M. Hodecker,  Z. C. Holden,  S. Houck,  Xunkun Huang,  Kerwin Hui,  
 B. C. Huynh,  M. Ivanov,  Hyunjun Ji,  Hanjie Jiang,  B. Kaduk,  S. Kaehler,  
 K. Khistyaev,  Jaehoon Kim,  P. Klunzinger,  Z. Koczor-Benda,  
 Joong Hoon Koh,  D. Kosenkov,  L. Koulias,  T. Kowalczyk,  C. M. Krauter,  
 K. Kue,  A. Kunitsa,  T. Kus,  A. Landau,  K. V. Lawler,  D. Lefrancois,  
 S. Lehtola,  Rain Li,  Yi-Pei Li,  Jiashu Liang,  M. Liebenthal,  
 Hung-Hsuan Lin,  You-Sheng Lin,  Fenglai Liu,  Kuan-Yu Liu,  
 M. Loipersberger,  A. Luenser,  A. Manjanath,  P. Manohar,  E. Mansoor,  
 S. F. Manzer,  Shan-Ping Mao,  A. V. Marenich,  T. Markovich,  S. Mason,  
 S. A. Maurer,  P. F. McLaughlin,  M. F. S. J. Menger,  J.-M. Mewes,  
 S. A. Mewes,  P. Morgante,  J. W. Mullinax,  K. J. Oosterbaan,  G. Paran,  
 Alexander C. Paul,  Suranjan K. Paul,  F. Pavosevic,  Zheng Pei,  S. Prager,  
 E. I. Proynov,  E. Ramos,  B. Rana,  A. E. Rask,  A. Rettig,  R. M. Richard,  
 F. Rob,  E. Rossomme,  T. Scheele,  M. Scheurer,  M. Schneider,  
 N. Sergueev,  S. M. Sharada,  W. Skomorowski,  D. W. Small,  C. J. Stein,  
 Yu-Chuan Su,  E. J. Sundstrom,  Zhen Tao,  J. Thirman,  T. Tsuchimochi,  
 N. M. Tubman,  S. P. Veccham,  O. Vydrov,  J. Wenzel,  J. Witte,  A. Yamada,  
 Kun Yao,  S. Yeganeh,  S. R. Yost,  A. Zech,  Igor Ying Zhang,  Xing Zhang,  
 Yu Zhang,  D. Zuev,  A. Aspuru-Guzik,  A. T. Bell,  N. A. Besley,  
 K. B. Bravaya,  B. R. Brooks,  D. Casanova,  Jeng-Da Chai,  S. Coriani,  
 C. J. Cramer,  A. E. DePrince, III,  R. A. DiStasio Jr.,  A. Dreuw,  
 B. D. Dunietz,  T. R. Furlani,  W. A. Goddard III,  S. Grimme,  
 S. Hammes-Schiffer,  T. Head-Gordon,  W. J. Hehre,  Chao-Ping Hsu,  
 T.-C. Jagau,  Yousung Jung,  A. Klamt,  Jing Kong,  D. S. Lambrecht,  
 WanZhen Liang,  N. J. Mayhall,  C. W. McCurdy,  J. B. Neaton,  
 C. Ochsenfeld,  J. A. Parkhill,  R. Peverati,  V. A. Rassolov,  Yihan Shao,  
 L. V. Slipchenko,  T. Stauch,  R. P. Steele,  J. E. Subotnik,  
 A. J. W. Thom,  A. Tkatchenko,  D. G. Truhlar,  T. Van Voorhis,  
 T. A. Wesolowski,  K. B. Whaley,  H. L. Woodcock III,  P. M. Zimmerman,  
 S. Faraji,  P. M. W. Gill,  M. Head-Gordon,  J. M. Herbert,  A. I. Krylov

 Additional authors for Version 5.4.1: 
 S. Kotaru,  Shaozhi Li,  Xiangyuan Li,  F. Matz,  A. Molle,  Haisheng Ren,  
 Yingli Su,  Hung-Yi Tsai,  C. Utku,  Fang Wang

 Contributors to earlier versions of Q-Chem not listed above: 
 R. D. Adamson,  B. Austin,  R. Baer,  J. Baker,  G. J. O. Beran,  
 K. Brandhorst,  S. T. Brown,  E. F. C. Byrd,  A. K. Chakraborty,  
 G. K. L. Chan,  Chun-Min Chang,  Yunqing Chen,  C.-L. Cheng,  
 Siu Hung Chien,  D. M. Chipman,  D. L. Crittenden,  H. Dachsel,  
 R. J. Doerksen,  A. D. Dutoi,  R. G. Edgar,  J. Fosso-Tande,  
 L. Fusti-Molnar,  D. Ghosh,  A. Ghysels,  A. Golubeva-Zadorozhnaya,  
 J. Gonthier,  M. S. Gordon,  S. R. Gwaltney,  G. Hawkins,  J. E. Herr,  
 A. Heyden,  S. Hirata,  E. G. Hohenstein,  G. Kedziora,  F. J. Keil,  
 C. Kelley,  Jihan Kim,  R. A. King,  R. Z. Khaliullin,  P. P. Korambath,  
 W. Kurlancheek,  A. Laurent,  A. M. Lee,  M. S. Lee,  S. V. Levchenko,  
 Ching Yeh Lin,  D. Liotard,  E. Livshits,  R. C. Lochan,  I. Lotan,  
 L. A. Martinez-Martinez,  P. E. Maslen,  N. Nair,  D. P. O'Neill,  
 D. Neuhauser,  E. Neuscamman,  C. M. Oana,  R. Olivares-Amaya,  R. Olson,  
 T. M. Perrine,  B. Peters,  P. A. Pieniazek,  A. Prociuk,  Y. M. Rhee,  
 J. Ritchie,  M. A. Rohrdanz,  E. Rosta,  N. J. Russ,  H. F. Schaefer III,  
 M. W. Schmidt,  N. E. Schultz,  S. Sharma,  N. Shenvi,  C. D. Sherrill,  
 A. C. Simmonett,  A. Sodt,  T. Stein,  D. Stuck,  K. S. Thanthiriwatte,  
 V. Vanovschi,  L. Vogt,  Tao Wang,  A. Warshel,  M. A. Watson,  
 C. F. Williams,  Q. Wu,  X. Xu,  Jun Yang,  W. Zhang,  Yan Zhao

 Please cite Q-Chem as follows:
 Y. Shao et al., Mol. Phys. 113, 184-215 (2015)
 DOI: 10.1080/00268976.2014.952696

 Q-Chem 5.4.1 for Intel X86 EM64T Linux

 Parts of Q-Chem use Armadillo 9.800.1 (Horizon Scraper).
 http://arma.sourceforge.net/

 Q-Chem begins on Fri Feb  3 15:13:50 2023  

 Host: 
0

     Scratch files written to /scratch/ari.fischer/qChem1444726.hpc-mn1/qchem163681//
 Aug1521 |scratch|qcdevops|jenkins|workspace|build_RNUM 8249   
 Processing $rem in /usr/local/qchem-5.4.1/config/preferences:
 Processing $rem in /home/ari.fischer/.qchemrc:
 Symmetry turned off for PCM/SM12/SMD calculation


!!********************************************.
!!******************Warning*******************.
!!Desired Analytical derivatives not available.
!!Finite difference job might take a long time.
!!********************************************.
!!********************************************.


 2-order derivative to be evaluated numerically with 1-order analytical derivatives

 Checking the input file for inconsistencies... 	...done.

--------------------------------------------------------------
User input:
--------------------------------------------------------------
$molecule
0 2
C        -0.4555682440    0.1706452427    1.2665990480
C        -0.3183308534   -1.1960411094    1.3716999944
C        -1.2398457934   -2.0605062557    0.7748321156
C        -2.3405455890   -1.5221085686    0.1026703065
C        -2.5035174805   -0.1585671720   -0.0103656364
C        -1.4880521993    0.7130357809    0.4618642279
C        -0.4315104569    0.9859978319   -1.3547301712
H         0.2454540260    0.8460668155    1.7387233818
H         0.5065363300   -1.6018129493    1.9431328014
H        -1.1255371753   -3.1313334739    0.8678340280
H        -3.0913275624   -2.1804542323   -0.3150523308
H        -3.3632089816    0.2653372148   -0.5148941626
H        -1.2253105192    1.4661391868   -1.9192902330
O         0.0260336939   -0.2098440473   -1.8531582633
H         0.3785097585    1.6108456458   -1.0025160859
H        -0.7123411194   -0.6929968828   -2.2432822777
O        -1.7561226946    2.0686460521    0.6456209313
H        -2.4611611995    2.3303767298    0.0413384394
$end

$rem
BASIS = 6-311++G(2df,2p)
GUI = 2
JOB_TYPE = Frequency
METHOD = wB97M-V
SOLVENT_METHOD = SMD
SCF_ALGORITHM = DIIS_GDM
MAX_SCF_CYCLES = 400
SCF_CONVERGENCE = 7
THRESH = 12
UNRESTRICTED = 1
SYMMETRY_IGNORE = 1
$end
--------------------------------------------------------------
 ----------------------------------------------------------------
             Standard Nuclear Orientation (Angstroms)
    I     Atom           X                Y                Z
 ----------------------------------------------------------------
    1      C      -0.4555682440     0.1706452427     1.2665990480
    2      C      -0.3183308534    -1.1960411094     1.3716999944
    3      C      -1.2398457934    -2.0605062557     0.7748321156
    4      C      -2.3405455890    -1.5221085686     0.1026703065
    5      C      -2.5035174805    -0.1585671720    -0.0103656364
    6      C      -1.4880521993     0.7130357809     0.4618642279
    7      C      -0.4315104569     0.9859978319    -1.3547301712
    8      H       0.2454540260     0.8460668155     1.7387233818
    9      H       0.5065363300    -1.6018129493     1.9431328014
   10      H      -1.1255371753    -3.1313334739     0.8678340280
   11      H      -3.0913275624    -2.1804542323    -0.3150523308
   12      H      -3.3632089816     0.2653372148    -0.5148941626
   13      H      -1.2253105192     1.4661391868    -1.9192902330
   14      O       0.0260336939    -0.2098440473    -1.8531582633
   15      H       0.3785097585     1.6108456458    -1.0025160859
   16      H      -0.7123411194    -0.6929968828    -2.2432822777
   17      O      -1.7561226946     2.0686460521     0.6456209313
   18      H      -2.4611611995     2.3303767298     0.0413384394
 ----------------------------------------------------------------
 Nuclear Repulsion Energy =         445.62004645 hartrees
 There are       34 alpha and       33 beta electrons
 Requested basis set is 6-311++G(2df,2p)
 There are 126 shells and 396 basis functions

 Total QAlloc Memory Limit 288000 MB
 Mega-Array Size       188 MB
 MEM_STATIC part       192 MB
 
 Citation of the SMD model:
 Marenich, A.V.; Cramer, C.J.; Truhlar, D.G.
 J. Phys. Chem. B 2009, 113, 6378-6396.
 iSolventCode=           1
 Solvent: water                                                           
 
 vradii
            1           2           3           4           5           6
    1   1.8500000   1.8500000   1.8500000   1.8500000   1.8500000   1.8500000
            7           8           9          10          11          12
    1   1.8500000   1.2000000   1.2000000   1.2000000   1.2000000   1.2000000
           13          14          15          16          17          18
    1   1.2000000   1.5200000   1.2000000   1.2000000   1.5200000   1.2000000
 Changing PCM_VDW_RADII to SMD_RADIUS
 Discretize the solute cavity surface with Lebedev spheres
	Using 110 Lebedev grid points for each H atom
	Using 194 Lebedev grid points for other atoms
	Atomic van der Waals radii will be scaled by 1.20
 Remove points where switching function is < 1.0e-08
 Keep 1330 surface tesserae and discard 1406 interior tesserae
 Molecular Surface Area = 156.321 Angst**2
 A cutoff of  1.0D-12 yielded   7430 shell pairs
 There are     74602 function pairs (     92761 Cartesian)
 Smallest overlap matrix eigenvalue = 7.77E-07
 Linear dependence detected in AO basis
 Tighter screening thresholds may be required for diffuse basis sets
 Use S2THRESH > 14 and THRESH = 14 in case of SCF convergence issues
 Number of orthogonalized atomic orbitals = 395
 Maximum deviation from orthogonality = 2.316E-11
 Guess from superposition of atomic densities
 Warning:  Energy on first SCF cycle will be non-variational
 SAD guess density has 67.000000 electrons

 -----------------------------------------------------------------------
  General SCF calculation program by
  Eric Jon Sundstrom, Paul Horn, Yuezhi Mao, Dmitri Zuev, Alec White,
  David Stuck, Shaama M.S., Shane Yost, Joonho Lee, David Small,
  Daniel Levine, Susi Lehtola, Hugh Burton, Evgeny Epifanovsky,
  Bang C. Huynh
 -----------------------------------------------------------------------
 Exchange:     0.1500 Hartree-Fock + 1.0000 wB97M-V + LR-HF
 Correlation:  1.0000 wB97M-V
 Using SG-2 standard quadrature grid
 Nonlocal Correlation:  VV10 with C = 0.0100 and b = 6.00 and scale = 1.00000
 Grid used for NLC:  SG-1 standard quadrature
 using 8 threads for integral computing
 -------------------------------------------------------
 OpenMP Integral computing Module                
 Release: version 1.0, May 2013, Q-Chem Inc. Pittsburgh 
 -------------------------------------------------------
 
 Citation of the SMD model:
 Marenich, A.V.; Cramer, C.J.; Truhlar, D.G.
 J. Phys. Chem. B 2009, 113, 6378-6396.
 iSolventCode=           1
 Solvent: water                                                           
 
 vradii
            1           2           3           4           5           6
    1   1.8500000   1.8500000   1.8500000   1.8500000   1.8500000   1.8500000
            7           8           9          10          11          12
    1   1.8500000   1.2000000   1.2000000   1.2000000   1.2000000   1.2000000
           13          14          15          16          17          18
    1   1.2000000   1.5200000   1.2000000   1.2000000   1.5200000   1.2000000
 -------------------------------------------------------
 OpenMP BLAS3 based DFT computing Module                
 Release: version 1.0, May 2013, Q-Chem Inc. Pittsburgh 
 -------------------------------------------------------
 A unrestricted SCF calculation will be
 performed using DIIS, GDM
 SCF converges when RMS gradient is below 1.0e-07
 ---------------------------------------
  Cycle       Energy         DIIS error
 ---------------------------------------
    1    -425.0030965623      1.28e-02  
    2    -422.3998750624      1.19e-03  Done DIIS. Switching to GDM
 ---------------------------------------
  Cycle       Energy        RMS Gradient
 ---------------------------------------
    1    -422.3998750624      4.30e-02   Descent step
    2    -422.4920858965      1.62e-02   Normal BFGS step
    3    -422.5033786230      1.22e-02   Normal BFGS step
    4    -422.5052408238      5.61e-03   Normal BFGS step
    5    -422.5057388306      3.11e-03   Normal BFGS step
    6    -422.5058870958      1.89e-03   Normal BFGS step
    7    -422.5059132174      6.05e-04   Normal BFGS step
    8    -422.5059188705      2.96e-04   Normal BFGS step
    9    -422.5059198081      2.76e-04   Normal BFGS step
   10    -422.5059202053      1.00e-04   Normal BFGS step
   11    -422.5059203075      8.31e-05   Normal BFGS step
   12    -422.5059203421      4.66e-05   Normal BFGS step
   13    -422.5059203491      2.29e-05   Normal BFGS step
   14    -422.5059203520      4.96e-06   Normal BFGS step
   15    -422.5059203525      2.03e-06   Normal BFGS step
   16    -422.5059203525      9.40e-07   Normal BFGS step
   17    -422.5059203525      3.60e-07   Normal BFGS step
   18    -422.5059203526      1.89e-07   Normal BFGS step
   19    -422.5059203526      6.44e-08  Convergence criterion met
 ---------------------------------------
 SCF time:   CPU 2148.24s  wall 273.00s 
<S^2> =          0.783446933
(3)  G-ENP(liq) elect-nuc-pol free energy of system     -422.505920353 a.u.
(4)  G-CDS(liq) cavity-dispersion-solvent structure 
     free energy                                                4.2295 kcal/mol
(6)  G-S(liq) free energy of system                     -422.499180184 a.u.
 SCF   energy in the final basis set =     -422.4991801843
 Total energy in the final basis set =     -422.4991801843
 
 --------------------------------------------------------------
 
                    Orbital Energies (a.u.)
 --------------------------------------------------------------
 
 Alpha MOs
 -- Occupied --
-19.3598 -19.3528 -10.4154 -10.3917 -10.3415 -10.3407 -10.3386 -10.3371
-10.3336  -1.1825  -1.1764  -0.9768  -0.8716  -0.8600  -0.7898  -0.7321
 -0.7154  -0.6465  -0.6370  -0.6022  -0.5704  -0.5638  -0.5513  -0.5302
 -0.5220  -0.4981  -0.4798  -0.4571  -0.4510  -0.4457  -0.4286  -0.3536
 -0.3429  -0.2336
 -- Virtual --
  0.0254   0.0357   0.0368   0.0472   0.0552   0.0572   0.0629   0.0696
  0.0780   0.0833   0.0873   0.0963   0.1190   0.1260   0.1302   0.1408
  0.1463   0.1488   0.1534   0.1569   0.1596   0.1627   0.1643   0.1750
  0.1813   0.1850   0.1865   0.1994   0.2027   0.2041   0.2159   0.2179
  0.2192   0.2258   0.2427   0.2541   0.2585   0.2708   0.2740   0.2818
  0.2886   0.3065   0.3079   0.3181   0.3331   0.3375   0.3434   0.3477
  0.3570   0.3606   0.3705   0.3715   0.3799   0.3827   0.3877   0.4003
  0.4208   0.4294   0.4379   0.4456   0.4634   0.4797   0.5162   0.5467
  0.5588   0.5634   0.5816   0.5886   0.6036   0.6072   0.6126   0.6170
  0.6210   0.6402   0.6437   0.6543   0.6652   0.6721   0.6794   0.6904
  0.7024   0.7092   0.7163   0.7175   0.7275   0.7395   0.7456   0.7538
  0.7577   0.7842   0.7905   0.7943   0.8124   0.8135   0.8426   0.8544
  0.8579   0.8652   0.8761   0.8792   0.8897   0.9067   0.9101   0.9466
  0.9565   0.9717   0.9977   1.0040   1.0249   1.0455   1.0569   1.0771
  1.0960   1.1185   1.1240   1.1369   1.1470   1.1492   1.1658   1.1665
  1.1855   1.2103   1.2382   1.2466   1.2503   1.2712   1.2751   1.2854
  1.2956   1.3112   1.3155   1.3325   1.3607   1.3742   1.3915   1.3967
  1.4078   1.4127   1.4286   1.4352   1.4409   1.4509   1.4644   1.4691
  1.4835   1.4908   1.5039   1.5294   1.5426   1.5502   1.5561   1.5750
  1.5806   1.6058   1.6164   1.6405   1.6644   1.6673   1.7620   1.7840
  1.7907   1.8019   1.8248   1.8323   1.8840   1.9366   1.9523   1.9747
  1.9924   2.0384   2.0845   2.0874   2.1019   2.1353   2.1877   2.2762
  2.3497   2.3675   2.3858   2.4500   2.4736   2.5599   2.5917   2.6317
  2.6452   2.6678   2.6960   2.7301   2.7702   2.7736   2.8133   2.8217
  2.8286   2.8392   2.8456   2.8613   2.8677   2.8851   2.9163   2.9208
  2.9333   2.9368   2.9399   2.9507   2.9654   2.9921   2.9929   3.0193
  3.0266   3.0379   3.0742   3.1026   3.1335   3.1648   3.1843   3.1901
  3.1971   3.2022   3.2363   3.2475   3.2787   3.2922   3.2965   3.3142
  3.3219   3.3297   3.3336   3.3441   3.3668   3.3903   3.3975   3.4196
  3.4375   3.4524   3.4687   3.4792   3.4843   3.4979   3.5135   3.5313
  3.5489   3.5505   3.5593   3.5900   3.6026   3.6316   3.6522   3.6563
  3.6698   3.7031   3.7187   3.7810   3.8099   3.8171   3.8301   3.8367
  3.8633   3.8722   3.8869   3.9056   3.9104   3.9155   3.9322   3.9462
  3.9652   3.9747   3.9977   4.0049   4.0165   4.0490   4.0653   4.0875
  4.0969   4.1230   4.1710   4.1820   4.2064   4.2110   4.2357   4.2447
  4.2609   4.2922   4.3098   4.3419   4.3700   4.3859   4.3884   4.4471
  4.4787   4.4898   4.5040   4.5140   4.5371   4.5523   4.5685   4.5843
  4.6034   4.6296   4.6359   4.6786   4.7249   4.7714   4.7877   4.8160
  4.8195   5.0065   5.0800   5.0938   5.1400   5.1786   5.1948   5.2446
  5.2577   5.2681   5.2829   5.3218   5.3413   5.3672   5.3929   5.4380
  5.4667   5.5311   5.5958   5.6211   5.6600   5.6761   5.7103   5.7325
  5.7797   5.8347   5.8859   5.9056   5.9384   5.9506   6.1076   6.2476
  6.2924   6.6022   6.6994   6.8267   7.0713   7.1120   7.2930   7.3093
  7.3271   7.3612   7.3828   7.4312   7.6498   7.7404   7.7704   7.8419
 24.2393  24.6987  24.7294  24.8334  24.9923  25.0720  25.4820  50.5942
 50.6874
 
 Beta MOs
 -- Occupied --
-19.3572 -19.3526 -10.4176 -10.3814 -10.3429 -10.3421 -10.3356 -10.3341
-10.3301  -1.1788  -1.1730  -0.9742  -0.8688  -0.8563  -0.7724  -0.7302
 -0.7123  -0.6455  -0.6293  -0.5991  -0.5681  -0.5558  -0.5399  -0.5253
 -0.5207  -0.4951  -0.4706  -0.4543  -0.4462  -0.4326  -0.4269  -0.3431
 -0.3178
 -- Virtual --
  0.0058   0.0251   0.0351   0.0362   0.0482   0.0546   0.0565   0.0681
  0.0692   0.0774   0.0863   0.0906   0.1046   0.1179   0.1269   0.1297
  0.1390   0.1472   0.1485   0.1543   0.1584   0.1595   0.1635   0.1641
  0.1782   0.1809   0.1847   0.1864   0.1988   0.2029   0.2045   0.2155
  0.2175   0.2189   0.2256   0.2425   0.2545   0.2615   0.2720   0.2776
  0.2824   0.2900   0.3084   0.3105   0.3237   0.3341   0.3381   0.3451
  0.3490   0.3587   0.3621   0.3713   0.3729   0.3804   0.3827   0.3899
  0.4025   0.4229   0.4305   0.4399   0.4472   0.4649   0.4815   0.5198
  0.5484   0.5608   0.5660   0.5873   0.5937   0.6056   0.6115   0.6137
  0.6193   0.6240   0.6418   0.6484   0.6582   0.6716   0.6744   0.6824
  0.6946   0.7064   0.7135   0.7197   0.7251   0.7333   0.7421   0.7482
  0.7586   0.7603   0.7858   0.7919   0.7956   0.8144   0.8159   0.8431
  0.8574   0.8634   0.8688   0.8778   0.8832   0.8920   0.9084   0.9132
  0.9491   0.9593   0.9745   0.9994   1.0070   1.0269   1.0477   1.0606
  1.0794   1.0984   1.1213   1.1259   1.1384   1.1499   1.1530   1.1685
  1.1700   1.1887   1.2133   1.2394   1.2491   1.2529   1.2730   1.2771
  1.2883   1.2985   1.3139   1.3203   1.3361   1.3632   1.3773   1.3947
  1.3981   1.4124   1.4157   1.4333   1.4396   1.4444   1.4537   1.4675
  1.4722   1.4878   1.4935   1.5090   1.5339   1.5477   1.5524   1.5610
  1.5797   1.5868   1.6083   1.6213   1.6447   1.6687   1.6809   1.7674
  1.7872   1.7924   1.8052   1.8279   1.8372   1.8856   1.9388   1.9569
  1.9786   1.9967   2.0426   2.0886   2.0901   2.1041   2.1389   2.1931
  2.2783   2.3534   2.3710   2.3953   2.4518   2.4758   2.5769   2.6042
  2.6369   2.6512   2.6739   2.7014   2.7360   2.7781   2.7824   2.8181
  2.8314   2.8342   2.8451   2.8535   2.8705   2.8735   2.8948   2.9208
  2.9285   2.9401   2.9468   2.9496   2.9630   2.9759   3.0042   3.0095
  3.0300   3.0367   3.0448   3.0901   3.1174   3.1408   3.1773   3.1949
  3.1996   3.2061   3.2088   3.2537   3.2656   3.2979   3.3037   3.3169
  3.3239   3.3333   3.3361   3.3491   3.3579   3.3810   3.4043   3.4087
  3.4275   3.4442   3.4629   3.4789   3.4888   3.4913   3.5061   3.5212
  3.5417   3.5584   3.5630   3.5714   3.6058   3.6181   3.6396   3.6629
  3.6721   3.6862   3.7252   3.7445   3.7923   3.8185   3.8242   3.8357
  3.8431   3.8678   3.8778   3.8986   3.9154   3.9176   3.9267   3.9460
  3.9500   3.9704   3.9849   4.0014   4.0171   4.0233   4.0608   4.0774
  4.0979   4.1084   4.1298   4.1794   4.1896   4.2112   4.2186   4.2424
  4.2504   4.2791   4.2984   4.3185   4.3479   4.3813   4.3962   4.3989
  4.4548   4.4836   4.4950   4.5101   4.5231   4.5435   4.5595   4.5794
  4.5985   4.6102   4.6379   4.6435   4.6862   4.7279   4.7778   4.7930
  4.8185   4.8244   5.0132   5.0826   5.1014   5.1448   5.1853   5.2256
  5.2527   5.2664   5.2780   5.2915   5.3232   5.3629   5.3698   5.3949
  5.4469   5.4761   5.5348   5.6205   5.6327   5.6675   5.6782   5.7207
  5.7555   5.7834   5.8413   5.8924   5.9116   5.9496   5.9568   6.1170
  6.2523   6.2944   6.6049   6.7104   6.8278   7.0832   7.1124   7.3009
  7.3151   7.3366   7.3641   7.3834   7.4329   7.6562   7.7413   7.7750
  7.8433  24.2400  24.7090  24.7301  24.8346  24.9926  25.0730  25.4830
 50.5965  50.6876
 --------------------------------------------------------------
 
          Ground-State Mulliken Net Atomic Charges

     Atom                 Charge (a.u.)    Spin (a.u.)
  --------------------------------------------------------
      1 C                    -0.133529       0.202026
      2 C                    -0.295682      -0.101903
      3 C                    -0.489539       0.242439
      4 C                    -0.311518      -0.100204
      5 C                    -0.118100       0.187408
      6 C                    -0.165602      -0.070064
      7 C                    -0.421420       0.586470
      8 H                     0.298330      -0.003098
      9 H                     0.289984       0.002604
     10 H                     0.282607      -0.006886
     11 H                     0.291935       0.002758
     12 H                     0.285877      -0.002605
     13 H                     0.250685       0.000520
     14 O                    -0.286508       0.066815
     15 H                     0.230603      -0.006097
     16 H                     0.321575      -0.000066
     17 O                    -0.380345       0.001467
     18 H                     0.350648      -0.001584
  --------------------------------------------------------
  Sum of atomic charges =    -0.000000
  Sum of spin   charges =     1.000000

 -----------------------------------------------------------------
                    Cartesian Multipole Moments
 -----------------------------------------------------------------
    Charge (ESU x 10^10)
                 0.0000
    Dipole Moment (Debye)
         X      -2.6853      Y       0.2661      Z      -2.9480
       Tot       3.9966
    Quadrupole Moments (Debye-Ang)
        XX     -46.6598     XY      -1.6096     YY     -51.5707
        XZ      12.5577     YZ      -3.2021     ZZ     -55.4762
    Octopole Moments (Debye-Ang^2)
       XXX     163.5618    XXY      18.8245    XYY      52.3404
       YYY       9.8928    XXZ     -26.9517    XYZ       2.3453
       YYZ     -16.7753    XZZ      63.7260    YZZ       2.6983
       ZZZ     -32.2357
    Hexadecapole Moments (Debye-Ang^3)
      XXXX    -711.8342   XXXY     -69.9833   XXYY    -191.1527
      XYYY     -34.8996   YYYY    -597.7207   XXXZ      98.1646
      XXYZ      11.6029   XYYZ      43.0769   YYYZ      27.7652
      XXZZ    -219.4818   XYZZ      -9.5070   YYZZ    -185.0907
      XZZZ      89.0674   YZZZ      64.7072   ZZZZ    -462.6941
 -----------------------------------------------------------------
 Calculating analytic gradient of the SCF energy
 Gradient of CDS energy
            1           2           3           4           5           6
    1   0.0000447   0.0003406   0.0000283  -0.0003544  -0.0002414  -0.0009273
    2   0.0002412  -0.0001093  -0.0004910  -0.0001848   0.0001470   0.0046950
    3   0.0002150   0.0002589   0.0000534  -0.0000781   0.0000345   0.0006016
            7           8           9          10          11          12
    1   0.0027199   0.0001059   0.0001590   0.0000217  -0.0001447  -0.0001066
    2  -0.0034960   0.0001905  -0.0000782  -0.0002031  -0.0001269   0.0000677
    3  -0.0030674   0.0000581   0.0001102   0.0000176  -0.0000805  -0.0000870
           13          14          15          16          17          18
    1  -0.0002987  -0.0019623  -0.0002093   0.0000610   0.0010342  -0.0002705
    2  -0.0002122   0.0041359  -0.0000294  -0.0002640  -0.0046906   0.0004082
    3   0.0003205   0.0020920   0.0004734  -0.0003744  -0.0005320  -0.0000157
 Gradient of SCF Energy
            1           2           3           4           5           6
    1   0.0001248  -0.0050991   0.0035325   0.0054604   0.0095108   0.0024473
    2  -0.0078071   0.0026022   0.0047148  -0.0000574   0.0026233  -0.0031490
    3   0.0017243  -0.0027964   0.0023227   0.0040620   0.0036968   0.0012554
            7           8           9          10          11          12
    1   0.0060871   0.0000777   0.0002544  -0.0000788  -0.0045923  -0.0090849
    2  -0.0071854  -0.0008971  -0.0002572  -0.0016830  -0.0034220   0.0057509
    3   0.0037159  -0.0005765   0.0001419  -0.0001666  -0.0031766  -0.0064912
           13          14          15          16          17          18
    1  -0.0097976   0.0123370   0.0004419  -0.0117694   0.0123771  -0.0122291
    2   0.0038547   0.0045871   0.0022366  -0.0037589  -0.0014173   0.0032647
    3  -0.0045890   0.0066430   0.0005070  -0.0066416   0.0136632  -0.0132944
 Max gradient component =       1.366E-02
 RMS gradient           =       5.864E-03
 Computing fast CPCM-SWIG gradient
 Updating gradient with PCM contributions...
 -- total gradient after adding PCM contribution --
---------------------------------------------------
  Atom         X              Y              Z     
---------------------------------------------------
   1       0.000107      -0.000284       0.000043
   2       0.000060       0.000003       0.000029
   3      -0.000015      -0.000021      -0.000026
   4       0.000001       0.000003       0.000009
   5      -0.000034      -0.000002      -0.000037
   6       0.000128      -0.000124       0.000067
   7       0.000122       0.000139       0.000096
   8       0.000002      -0.000012      -0.000003
   9       0.000024      -0.000047      -0.000014
  10      -0.000020      -0.000005      -0.000008
  11      -0.000018       0.000008      -0.000001
  12      -0.000028       0.000030       0.000023
  13      -0.000055       0.000023       0.000003
  14       0.000069       0.000065       0.000010
  15      -0.000243      -0.000243      -0.000077
  16      -0.000025       0.000054      -0.000017
  17      -0.000047       0.000450       0.000056
  18      -0.000026      -0.000035      -0.000153
---------------------------------------------------
 Number of fixed atoms: 0
 Gradient time:  CPU 320.62 s  wall 46.23 s
 ######################################################
 ######################################################
 # Starting finite difference calculation for IDERIV  #
 Finite diff step size:  1.88973e-03 a.u.
 ----------------------------------------------------------------
             Standard Nuclear Orientation (Angstroms)
    I     Atom           X                Y                Z
 ----------------------------------------------------------------
    1      C      -0.4545682440     0.1706452427     1.2665990480
    2      C      -0.3183308534    -1.1960411094     1.3716999944
    3      C      -1.2398457934    -2.0605062557     0.7748321156
    4      C      -2.3405455890    -1.5221085686     0.1026703065
    5      C      -2.5035174805    -0.1585671720    -0.0103656364
    6      C      -1.4880521993     0.7130357809     0.4618642279
    7      C      -0.4315104569     0.9859978319    -1.3547301712
    8      H       0.2454540260     0.8460668155     1.7387233818
    9      H       0.5065363300    -1.6018129493     1.9431328014
   10      H      -1.1255371753    -3.1313334739     0.8678340280
   11      H      -3.0913275624    -2.1804542323    -0.3150523308
   12      H      -3.3632089816     0.2653372148    -0.5148941626
   13      H      -1.2253105192     1.4661391868    -1.9192902330
   14      O       0.0260336939    -0.2098440473    -1.8531582633
   15      H       0.3785097585     1.6108456458    -1.0025160859
   16      H      -0.7123411194    -0.6929968828    -2.2432822777
   17      O      -1.7561226946     2.0686460521     0.6456209313
   18      H      -2.4611611995     2.3303767298     0.0413384394
 ----------------------------------------------------------------
 Nuclear Repulsion Energy =         445.60817014 hartrees
 There are       34 alpha and       33 beta electrons
 Discretize the solute cavity surface with Lebedev spheres
	Using 110 Lebedev grid points for each H atom
	Using 194 Lebedev grid points for other atoms
	Atomic van der Waals radii will be scaled by 1.20
 Remove points where switching function is < 1.0e-08
 Keep 1330 surface tesserae and discard 1406 interior tesserae
 Molecular Surface Area = 156.320 Angst**2
 Requested basis set is 6-311++G(2df,2p)
 There are 126 shells and 396 basis functions
 A cutoff of  1.0D-12 yielded   7430 shell pairs
 There are     74602 function pairs (     92761 Cartesian)
 Smallest overlap matrix eigenvalue = 7.77E-07
 Linear dependence detected in AO basis
 Tighter screening thresholds may be required for diffuse basis sets
 Use S2THRESH > 14 and THRESH = 14 in case of SCF convergence issues
 Number of orthogonalized atomic orbitals = 395
 Maximum deviation from orthogonality = 6.221E-11
 Guess MOs from SCF MO coefficient file

 -----------------------------------------------------------------------
  General SCF calculation program by
  Eric Jon Sundstrom, Paul Horn, Yuezhi Mao, Dmitri Zuev, Alec White,
  David Stuck, Shaama M.S., Shane Yost, Joonho Lee, David Small,
  Daniel Levine, Susi Lehtola, Hugh Burton, Evgeny Epifanovsky,
  Bang C. Huynh
 -----------------------------------------------------------------------
 Exchange:     0.1500 Hartree-Fock + 1.0000 wB97M-V + LR-HF
 Correlation:  1.0000 wB97M-V
 Using SG-2 standard quadrature grid
 Nonlocal Correlation:  VV10 with C = 0.0100 and b = 6.00 and scale = 1.00000
 Grid used for NLC:  SG-1 standard quadrature
 
 Citation of the SMD model:
 Marenich, A.V.; Cramer, C.J.; Truhlar, D.G.
 J. Phys. Chem. B 2009, 113, 6378-6396.
 iSolventCode=           1
 Solvent: water                                                           
 
 vradii
            1           2           3           4           5           6
    1   1.8500000   1.8500000   1.8500000   1.8500000   1.8500000   1.8500000
            7           8           9          10          11          12
    1   1.8500000   1.2000000   1.2000000   1.2000000   1.2000000   1.2000000
           13          14          15          16          17          18
    1   1.2000000   1.5200000   1.2000000   1.2000000   1.5200000   1.2000000
 -------------------------------------------------------
 OpenMP BLAS3 based DFT computing Module                
 Release: version 1.0, May 2013, Q-Chem Inc. Pittsburgh 
 -------------------------------------------------------
 A unrestricted SCF calculation will be
 performed using Roothaan-Hall, DIIS, GDM
 SCF converges when RMS gradient is below 1.0e-07
 ---------------------------------------
  Cycle       Energy         DIIS error
 ---------------------------------------
    1    -422.4754855167      2.16e-04  Roothaan Step
 ---------------------------------------
  Cycle       Energy         DIIS error
 ---------------------------------------
    1    -422.4984416559      2.48e-04  
    2    -422.5037577726      1.84e-04  Done DIIS. Switching to GDM
 ---------------------------------------
  Cycle       Energy        RMS Gradient
 ---------------------------------------
    1    -422.5037577726      7.33e-03   Normal BFGS step
    2    -422.5041622501      8.59e-03   Normal BFGS step
    3    -422.5058858311      1.22e-03   Normal BFGS step
    4    -422.5059055716      5.37e-04   Normal BFGS step
    5    -422.5059185650      3.06e-04   Normal BFGS step
    6    -422.5059191866      1.04e-04   Normal BFGS step
    7    -422.5059193404      8.60e-05   Normal BFGS step
    8    -422.5059193718      3.78e-05   Normal BFGS step
    9    -422.5059193792      1.11e-05   Normal BFGS step
   10    -422.5059193805      7.58e-06   Normal BFGS step
   11    -422.5059193811      3.97e-06   Normal BFGS step
   12    -422.5059193813      2.09e-06   Normal BFGS step
   13    -422.5059193813      1.26e-06   Normal BFGS step
   14    -422.5059193813      5.55e-07   Normal BFGS step
   15    -422.5059193813      2.49e-07   Normal BFGS step
   16    -422.5059193813      1.47e-07   Normal BFGS step
   17    -422.5059193813      7.40e-08  Convergence criterion met
 ---------------------------------------
 SCF time:   CPU 2054.87s  wall 261.00s 
<S^2> =          0.783484349
(3)  G-ENP(liq) elect-nuc-pol free energy of system     -422.505919381 a.u.
(4)  G-CDS(liq) cavity-dispersion-solvent structure 
     free energy                                                4.2296 kcal/mol
(6)  G-S(liq) free energy of system                     -422.499179126 a.u.
 SCF   energy in the final basis set =     -422.4991791262
 Total energy in the final basis set =     -422.4991791262
 
 --------------------------------------------------------------
 
                    Orbital Energies (a.u.)
 --------------------------------------------------------------
 
 Alpha MOs
 -- Occupied --
-19.3598 -19.3528 -10.4154 -10.3917 -10.3415 -10.3407 -10.3386 -10.3371
-10.3336  -1.1825  -1.1764  -0.9767  -0.8716  -0.8600  -0.7898  -0.7321
 -0.7155  -0.6464  -0.6370  -0.6023  -0.5704  -0.5638  -0.5513  -0.5301
 -0.5220  -0.4981  -0.4798  -0.4571  -0.4510  -0.4457  -0.4286  -0.3536
 -0.3428  -0.2336
 -- Virtual --
  0.0254   0.0357   0.0368   0.0472   0.0552   0.0572   0.0629   0.0696
  0.0780   0.0833   0.0873   0.0963   0.1190   0.1260   0.1302   0.1408
  0.1463   0.1488   0.1534   0.1569   0.1596   0.1627   0.1642   0.1750
  0.1813   0.1849   0.1865   0.1994   0.2026   0.2041   0.2159   0.2179
  0.2192   0.2258   0.2427   0.2542   0.2586   0.2707   0.2740   0.2818
  0.2887   0.3065   0.3079   0.3181   0.3331   0.3375   0.3434   0.3477
  0.3570   0.3606   0.3705   0.3715   0.3800   0.3827   0.3877   0.4003
  0.4208   0.4294   0.4378   0.4457   0.4634   0.4797   0.5162   0.5467
  0.5587   0.5635   0.5817   0.5886   0.6036   0.6072   0.6126   0.6170
  0.6210   0.6402   0.6437   0.6543   0.6652   0.6721   0.6794   0.6904
  0.7025   0.7092   0.7164   0.7175   0.7275   0.7395   0.7456   0.7538
  0.7577   0.7842   0.7906   0.7942   0.8123   0.8135   0.8426   0.8543
  0.8579   0.8653   0.8761   0.8791   0.8897   0.9067   0.9101   0.9466
  0.9565   0.9717   0.9977   1.0040   1.0249   1.0455   1.0569   1.0771
  1.0960   1.1185   1.1240   1.1369   1.1470   1.1492   1.1659   1.1665
  1.1855   1.2103   1.2382   1.2466   1.2503   1.2711   1.2751   1.2854
  1.2955   1.3112   1.3154   1.3324   1.3607   1.3742   1.3916   1.3967
  1.4078   1.4127   1.4285   1.4353   1.4408   1.4509   1.4644   1.4690
  1.4834   1.4909   1.5039   1.5295   1.5426   1.5502   1.5561   1.5751
  1.5806   1.6058   1.6165   1.6405   1.6644   1.6673   1.7619   1.7840
  1.7907   1.8019   1.8247   1.8322   1.8839   1.9367   1.9524   1.9747
  1.9923   2.0385   2.0845   2.0874   2.1019   2.1354   2.1877   2.2760
  2.3497   2.3675   2.3859   2.4500   2.4735   2.5600   2.5917   2.6316
  2.6451   2.6677   2.6960   2.7301   2.7701   2.7734   2.8132   2.8217
  2.8285   2.8392   2.8458   2.8611   2.8678   2.8852   2.9162   2.9208
  2.9333   2.9368   2.9399   2.9509   2.9655   2.9920   2.9929   3.0193
  3.0266   3.0379   3.0742   3.1025   3.1334   3.1648   3.1842   3.1900
  3.1968   3.2022   3.2362   3.2474   3.2787   3.2921   3.2964   3.3143
  3.3216   3.3296   3.3335   3.3441   3.3668   3.3902   3.3976   3.4192
  3.4374   3.4524   3.4687   3.4792   3.4843   3.4980   3.5135   3.5313
  3.5489   3.5503   3.5593   3.5899   3.6025   3.6315   3.6523   3.6563
  3.6701   3.7031   3.7187   3.7811   3.8098   3.8170   3.8302   3.8367
  3.8633   3.8722   3.8869   3.9055   3.9104   3.9154   3.9322   3.9462
  3.9651   3.9744   3.9975   4.0050   4.0164   4.0490   4.0652   4.0874
  4.0969   4.1229   4.1709   4.1821   4.2064   4.2109   4.2357   4.2445
  4.2609   4.2921   4.3098   4.3419   4.3700   4.3861   4.3883   4.4473
  4.4786   4.4899   4.5040   4.5138   4.5370   4.5523   4.5682   4.5842
  4.6034   4.6294   4.6358   4.6786   4.7252   4.7712   4.7876   4.8158
  4.8192   5.0064   5.0800   5.0941   5.1399   5.1786   5.1948   5.2446
  5.2576   5.2681   5.2829   5.3216   5.3413   5.3671   5.3928   5.4380
  5.4668   5.5316   5.5958   5.6210   5.6599   5.6761   5.7102   5.7325
  5.7801   5.8343   5.8862   5.9058   5.9384   5.9505   6.1076   6.2478
  6.2921   6.6021   6.6994   6.8265   7.0713   7.1120   7.2930   7.3093
  7.3271   7.3611   7.3827   7.4311   7.6499   7.7404   7.7704   7.8418
 24.2396  24.6987  24.7293  24.8336  24.9916  25.0720  25.4818  50.5942
 50.6874
 
 Beta MOs
 -- Occupied --
-19.3572 -19.3526 -10.4177 -10.3814 -10.3429 -10.3421 -10.3356 -10.3341
-10.3301  -1.1788  -1.1730  -0.9742  -0.8688  -0.8562  -0.7724  -0.7302
 -0.7123  -0.6455  -0.6293  -0.5992  -0.5681  -0.5558  -0.5398  -0.5253
 -0.5207  -0.4951  -0.4706  -0.4543  -0.4462  -0.4326  -0.4269  -0.3431
 -0.3178
 -- Virtual --
  0.0058   0.0251   0.0351   0.0362   0.0482   0.0546   0.0565   0.0681
  0.0692   0.0774   0.0863   0.0906   0.1046   0.1179   0.1269   0.1297
  0.1390   0.1472   0.1485   0.1543   0.1584   0.1595   0.1635   0.1641
  0.1782   0.1809   0.1847   0.1864   0.1988   0.2029   0.2045   0.2156
  0.2175   0.2189   0.2256   0.2425   0.2546   0.2615   0.2720   0.2776
  0.2824   0.2900   0.3084   0.3105   0.3237   0.3341   0.3381   0.3451
  0.3490   0.3587   0.3621   0.3713   0.3728   0.3804   0.3827   0.3898
  0.4025   0.4228   0.4305   0.4398   0.4472   0.4649   0.4815   0.5198
  0.5484   0.5607   0.5661   0.5873   0.5937   0.6056   0.6115   0.6138
  0.6192   0.6240   0.6418   0.6484   0.6582   0.6716   0.6744   0.6824
  0.6946   0.7064   0.7134   0.7197   0.7251   0.7333   0.7421   0.7482
  0.7585   0.7603   0.7858   0.7920   0.7955   0.8144   0.8159   0.8430
  0.8574   0.8634   0.8688   0.8778   0.8831   0.8920   0.9084   0.9131
  0.9491   0.9593   0.9745   0.9994   1.0070   1.0269   1.0477   1.0607
  1.0794   1.0984   1.1213   1.1259   1.1384   1.1499   1.1531   1.1686
  1.1700   1.1887   1.2133   1.2394   1.2491   1.2529   1.2730   1.2771
  1.2883   1.2985   1.3139   1.3202   1.3361   1.3632   1.3772   1.3948
  1.3981   1.4124   1.4158   1.4333   1.4396   1.4443   1.4536   1.4675
  1.4721   1.4878   1.4935   1.5090   1.5340   1.5477   1.5524   1.5610
  1.5797   1.5868   1.6083   1.6214   1.6447   1.6686   1.6809   1.7673
  1.7872   1.7924   1.8051   1.8279   1.8371   1.8854   1.9389   1.9569
  1.9786   1.9966   2.0427   2.0887   2.0901   2.1041   2.1390   2.1931
  2.2781   2.3534   2.3709   2.3953   2.4518   2.4758   2.5769   2.6042
  2.6369   2.6511   2.6739   2.7014   2.7360   2.7779   2.7824   2.8182
  2.8313   2.8341   2.8451   2.8537   2.8704   2.8735   2.8948   2.9207
  2.9284   2.9401   2.9468   2.9497   2.9632   2.9759   3.0042   3.0095
  3.0300   3.0367   3.0448   3.0901   3.1174   3.1407   3.1772   3.1947
  3.1995   3.2060   3.2088   3.2536   3.2656   3.2980   3.3037   3.3168
  3.3239   3.3332   3.3360   3.3490   3.3579   3.3810   3.4044   3.4088
  3.4272   3.4442   3.4629   3.4790   3.4888   3.4913   3.5062   3.5212
  3.5417   3.5583   3.5630   3.5714   3.6057   3.6180   3.6394   3.6630
  3.6721   3.6863   3.7252   3.7445   3.7923   3.8184   3.8242   3.8358
  3.8431   3.8678   3.8777   3.8985   3.9153   3.9176   3.9266   3.9460
  3.9501   3.9703   3.9847   4.0013   4.0171   4.0232   4.0608   4.0773
  4.0979   4.1084   4.1297   4.1794   4.1897   4.2113   4.2185   4.2425
  4.2502   4.2791   4.2983   4.3185   4.3479   4.3812   4.3962   4.3989
  4.4550   4.4835   4.4952   4.5099   4.5230   4.5434   4.5594   4.5792
  4.5983   4.6101   4.6377   4.6434   4.6862   4.7283   4.7776   4.7929
  4.8183   4.8241   5.0132   5.0827   5.1017   5.1448   5.1853   5.2255
  5.2526   5.2664   5.2780   5.2915   5.3231   5.3629   5.3697   5.3948
  5.4470   5.4762   5.5353   5.6204   5.6327   5.6675   5.6781   5.7207
  5.7555   5.7837   5.8409   5.8929   5.9118   5.9496   5.9567   6.1170
  6.2525   6.2941   6.6049   6.7104   6.8276   7.0832   7.1124   7.3009
  7.3151   7.3366   7.3641   7.3833   7.4329   7.6562   7.7412   7.7750
  7.8432  24.2403  24.7090  24.7300  24.8348  24.9919  25.0731  25.4828
 50.5965  50.6876
 --------------------------------------------------------------
 
          Ground-State Mulliken Net Atomic Charges

     Atom                 Charge (a.u.)    Spin (a.u.)
  --------------------------------------------------------
      1 C                    -0.133779       0.202052
      2 C                    -0.295764      -0.101851
      3 C                    -0.490102       0.242622
      4 C                    -0.311044      -0.100279
      5 C                    -0.118183       0.187590
      6 C                    -0.165442      -0.070164
      7 C                    -0.421472       0.586233
      8 H                     0.298779      -0.003109
      9 H                     0.289885       0.002610
     10 H                     0.282579      -0.006892
     11 H                     0.291961       0.002759
     12 H                     0.285865      -0.002609
     13 H                     0.250706       0.000528
     14 O                    -0.286531       0.066785
     15 H                     0.230622      -0.006089
     16 H                     0.321582      -0.000065
     17 O                    -0.380322       0.001461
     18 H                     0.350661      -0.001582
  --------------------------------------------------------
  Sum of atomic charges =    -0.000000
  Sum of spin   charges =     1.000000

 -----------------------------------------------------------------
                    Cartesian Multipole Moments
 -----------------------------------------------------------------
    Charge (ESU x 10^10)
                 0.0000
    Dipole Moment (Debye)
         X      -2.6858      Y       0.2680      Z      -2.9474
       Tot       3.9966
    Quadrupole Moments (Debye-Ang)
        XX     -46.6603     XY      -1.6092     YY     -51.5706
        XZ      12.5571     YZ      -3.1989     ZZ     -55.4752
    Octopole Moments (Debye-Ang^2)
       XXX     163.5463    XXY      18.8250    XYY      52.3345
       YYY       9.9003    XXZ     -26.9527    XYZ       2.3453
       YYZ     -16.7751    XZZ      63.7196    YZZ       2.7058
       ZZZ     -32.2303
    Hexadecapole Moments (Debye-Ang^3)
      XXXX    -711.8076   XXXY     -69.9816   XXYY    -191.1493
      XYYY     -34.9022   YYYY    -597.7204   XXXZ      98.1496
      XXYZ      11.6068   XYYZ      43.0691   YYYZ      27.7781
      XXZZ    -219.4772   XYZZ      -9.5065   YYZZ    -185.0908
      XZZZ      89.0432   YZZZ      64.7238   ZZZZ    -462.6806
 -----------------------------------------------------------------
 Calculating analytic gradient of the SCF energy
 Gradient of CDS energy
            1           2           3           4           5           6
    1   0.0000475   0.0003386   0.0000283  -0.0003544  -0.0002414  -0.0009278
    2   0.0002413  -0.0001103  -0.0004909  -0.0001848   0.0001470   0.0046953
    3   0.0002163   0.0002577   0.0000534  -0.0000781   0.0000344   0.0006015
            7           8           9          10          11          12
    1   0.0027196   0.0001052   0.0001596   0.0000217  -0.0001447  -0.0001066
    2  -0.0034958   0.0001901  -0.0000771  -0.0002031  -0.0001269   0.0000677
    3  -0.0030675   0.0000578   0.0001106   0.0000176  -0.0000805  -0.0000870
           13          14          15          16          17          18
    1  -0.0002987  -0.0019622  -0.0002093   0.0000610   0.0010342  -0.0002705
    2  -0.0002122   0.0041358  -0.0000296  -0.0002640  -0.0046907   0.0004082
    3   0.0003205   0.0020920   0.0004734  -0.0003744  -0.0005321  -0.0000157
 Gradient of SCF Energy
            1           2           3           4           5           6
    1   0.0010285  -0.0052997   0.0035953   0.0054362   0.0094724   0.0020440
    2  -0.0077306   0.0025870   0.0046906  -0.0000212   0.0025974  -0.0030575
    3   0.0021843  -0.0028524   0.0023483   0.0040536   0.0036543   0.0011108
            7           8           9          10          11          12
    1   0.0061099  -0.0002388   0.0002541  -0.0000807  -0.0045926  -0.0090861
    2  -0.0071739  -0.0011116  -0.0002088  -0.0016853  -0.0034198   0.0057456
    3   0.0036818  -0.0007483   0.0001357  -0.0001753  -0.0031747  -0.0064978
           13          14          15          16          17          18
    1  -0.0097997   0.0123353   0.0004427  -0.0117687   0.0123732  -0.0122252
    2   0.0038530   0.0045858   0.0022372  -0.0037581  -0.0013959   0.0032660
    3  -0.0045859   0.0066484   0.0005094  -0.0066415   0.0136447  -0.0132955
 Max gradient component =       1.364E-02
 RMS gradient           =       5.864E-03
 Computing fast CPCM-SWIG gradient
 Updating gradient with PCM contributions...
 -- total gradient after adding PCM contribution --
---------------------------------------------------
  Atom         X              Y              Z     
---------------------------------------------------
   1       0.001014      -0.000194       0.000512
   2      -0.000150      -0.000010      -0.000040
   3       0.000046      -0.000045       0.000002
   4      -0.000027       0.000034      -0.000001
   5      -0.000073      -0.000031      -0.000079
   6      -0.000264      -0.000032      -0.000078
   7       0.000145       0.000152       0.000064
   8      -0.000320      -0.000230      -0.000176
   9       0.000027      -0.000000      -0.000018
  10      -0.000022      -0.000010      -0.000016
  11      -0.000018       0.000009       0.000001
  12      -0.000029       0.000024       0.000017
  13      -0.000057       0.000021       0.000006
  14       0.000067       0.000064       0.000015
  15      -0.000243      -0.000243      -0.000076
  16      -0.000025       0.000054      -0.000017
  17      -0.000051       0.000473       0.000039
  18      -0.000022      -0.000035      -0.000154
---------------------------------------------------
 Number of fixed atoms: 0
 Gradient time:  CPU 311.67 s  wall 44.85 s
 ----------------------------------------------------------------
             Standard Nuclear Orientation (Angstroms)
    I     Atom           X                Y                Z
 ----------------------------------------------------------------
    1      C      -0.4565682440     0.1706452427     1.2665990480
    2      C      -0.3183308534    -1.1960411094     1.3716999944
    3      C      -1.2398457934    -2.0605062557     0.7748321156
    4      C      -2.3405455890    -1.5221085686     0.1026703065
    5      C      -2.5035174805    -0.1585671720    -0.0103656364
    6      C      -1.4880521993     0.7130357809     0.4618642279
    7      C      -0.4315104569     0.9859978319    -1.3547301712
    8      H       0.2454540260     0.8460668155     1.7387233818
    9      H       0.5065363300    -1.6018129493     1.9431328014
   10      H      -1.1255371753    -3.1313334739     0.8678340280
   11      H      -3.0913275624    -2.1804542323    -0.3150523308
   12      H      -3.3632089816     0.2653372148    -0.5148941626
   13      H      -1.2253105192     1.4661391868    -1.9192902330
   14      O       0.0260336939    -0.2098440473    -1.8531582633
   15      H       0.3785097585     1.6108456458    -1.0025160859
   16      H      -0.7123411194    -0.6929968828    -2.2432822777
   17      O      -1.7561226946     2.0686460521     0.6456209313
   18      H      -2.4611611995     2.3303767298     0.0413384394
 ----------------------------------------------------------------
 Nuclear Repulsion Energy =         445.63191904 hartrees
 There are       34 alpha and       33 beta electrons
 Discretize the solute cavity surface with Lebedev spheres
	Using 110 Lebedev grid points for each H atom
	Using 194 Lebedev grid points for other atoms
	Atomic van der Waals radii will be scaled by 1.20
 Remove points where switching function is < 1.0e-08
 Keep 1330 surface tesserae and discard 1406 interior tesserae
 Molecular Surface Area = 156.321 Angst**2
 Requested basis set is 6-311++G(2df,2p)
 There are 126 shells and 396 basis functions
 A cutoff of  1.0D-12 yielded   7430 shell pairs
 There are     74602 function pairs (     92761 Cartesian)
 Smallest overlap matrix eigenvalue = 7.78E-07
 Linear dependence detected in AO basis
 Tighter screening thresholds may be required for diffuse basis sets
 Use S2THRESH > 14 and THRESH = 14 in case of SCF convergence issues
 Number of orthogonalized atomic orbitals = 395
 Maximum deviation from orthogonality = 3.751E-11
 Guess MOs from SCF MO coefficient file

 -----------------------------------------------------------------------
  General SCF calculation program by
  Eric Jon Sundstrom, Paul Horn, Yuezhi Mao, Dmitri Zuev, Alec White,
  David Stuck, Shaama M.S., Shane Yost, Joonho Lee, David Small,
  Daniel Levine, Susi Lehtola, Hugh Burton, Evgeny Epifanovsky,
  Bang C. Huynh
 -----------------------------------------------------------------------
 Exchange:     0.1500 Hartree-Fock + 1.0000 wB97M-V + LR-HF
 Correlation:  1.0000 wB97M-V
 Using SG-2 standard quadrature grid
 Nonlocal Correlation:  VV10 with C = 0.0100 and b = 6.00 and scale = 1.00000
 Grid used for NLC:  SG-1 standard quadrature
 
 Citation of the SMD model:
 Marenich, A.V.; Cramer, C.J.; Truhlar, D.G.
 J. Phys. Chem. B 2009, 113, 6378-6396.
 iSolventCode=           1
 Solvent: water                                                           
 
 vradii
            1           2           3           4           5           6
    1   1.8500000   1.8500000   1.8500000   1.8500000   1.8500000   1.8500000
            7           8           9          10          11          12
    1   1.8500000   1.2000000   1.2000000   1.2000000   1.2000000   1.2000000
           13          14          15          16          17          18
    1   1.2000000   1.5200000   1.2000000   1.2000000   1.5200000   1.2000000
 -------------------------------------------------------
 OpenMP BLAS3 based DFT computing Module                
 Release: version 1.0, May 2013, Q-Chem Inc. Pittsburgh 
 -------------------------------------------------------
 A unrestricted SCF calculation will be
 performed using Roothaan-Hall, DIIS, GDM
 SCF converges when RMS gradient is below 1.0e-07
 ---------------------------------------
  Cycle       Energy         DIIS error
 ---------------------------------------
    1    -422.4754802832      2.16e-04  Roothaan Step
 ---------------------------------------
  Cycle       Energy         DIIS error
 ---------------------------------------
    1    -422.4984358116      2.48e-04  
    2    -422.5037491769      1.84e-04  Done DIIS. Switching to GDM
 ---------------------------------------
  Cycle       Energy        RMS Gradient
 ---------------------------------------
    1    -422.5037491769      7.35e-03   Normal BFGS step
    2    -422.5041512966      8.66e-03   Normal BFGS step
    3    -422.5058859756      1.20e-03   Normal BFGS step
    4    -422.5059057683      5.39e-04   Normal BFGS step
    5    -422.5059187826      3.18e-04   Normal BFGS step
    6    -422.5059194115      1.12e-04   Normal BFGS step
    7    -422.5059195693      9.03e-05   Normal BFGS step
    8    -422.5059196030      3.96e-05   Normal BFGS step
    9    -422.5059196117      1.14e-05   Normal BFGS step
   10    -422.5059196133      8.60e-06   Normal BFGS step
   11    -422.5059196141      4.23e-06   Normal BFGS step
   12    -422.5059196143      2.59e-06   Normal BFGS step
   13    -422.5059196143      1.43e-06   Normal BFGS step
   14    -422.5059196144      6.00e-07   Normal BFGS step
   15    -422.5059196144      3.11e-07   Normal BFGS step
   16    -422.5059196144      1.60e-07   Normal BFGS step
   17    -422.5059196144      8.14e-08  Convergence criterion met
 ---------------------------------------
 SCF time:   CPU 2061.49s  wall 262.00s 
<S^2> =          0.783409536
(3)  G-ENP(liq) elect-nuc-pol free energy of system     -422.505919614 a.u.
(4)  G-CDS(liq) cavity-dispersion-solvent structure 
     free energy                                                4.2295 kcal/mol
(6)  G-S(liq) free energy of system                     -422.499179529 a.u.
 SCF   energy in the final basis set =     -422.4991795288
 Total energy in the final basis set =     -422.4991795288
 
 --------------------------------------------------------------
 
                    Orbital Energies (a.u.)
 --------------------------------------------------------------
 
 Alpha MOs
 -- Occupied --
-19.3598 -19.3528 -10.4153 -10.3917 -10.3415 -10.3407 -10.3386 -10.3371
-10.3336  -1.1825  -1.1764  -0.9768  -0.8715  -0.8601  -0.7898  -0.7321
 -0.7154  -0.6465  -0.6370  -0.6022  -0.5704  -0.5638  -0.5513  -0.5302
 -0.5219  -0.4981  -0.4798  -0.4571  -0.4510  -0.4457  -0.4286  -0.3536
 -0.3429  -0.2336
 -- Virtual --
  0.0254   0.0357   0.0368   0.0472   0.0552   0.0572   0.0628   0.0696
  0.0780   0.0833   0.0873   0.0963   0.1190   0.1260   0.1302   0.1408
  0.1463   0.1488   0.1534   0.1569   0.1596   0.1627   0.1643   0.1750
  0.1813   0.1850   0.1865   0.1994   0.2027   0.2041   0.2159   0.2179
  0.2192   0.2258   0.2427   0.2540   0.2585   0.2708   0.2740   0.2818
  0.2886   0.3065   0.3079   0.3181   0.3331   0.3375   0.3435   0.3476
  0.3570   0.3606   0.3704   0.3715   0.3799   0.3828   0.3878   0.4003
  0.4208   0.4294   0.4380   0.4456   0.4634   0.4796   0.5162   0.5467
  0.5588   0.5633   0.5816   0.5885   0.6036   0.6072   0.6126   0.6171
  0.6210   0.6402   0.6437   0.6543   0.6651   0.6721   0.6794   0.6904
  0.7024   0.7092   0.7163   0.7175   0.7274   0.7395   0.7457   0.7538
  0.7577   0.7842   0.7904   0.7943   0.8124   0.8135   0.8426   0.8544
  0.8579   0.8652   0.8761   0.8793   0.8897   0.9068   0.9102   0.9467
  0.9565   0.9718   0.9977   1.0040   1.0249   1.0455   1.0569   1.0771
  1.0959   1.1185   1.1240   1.1369   1.1470   1.1491   1.1657   1.1664
  1.1855   1.2102   1.2382   1.2466   1.2503   1.2712   1.2751   1.2854
  1.2956   1.3111   1.3156   1.3325   1.3607   1.3742   1.3914   1.3967
  1.4078   1.4126   1.4286   1.4352   1.4409   1.4510   1.4644   1.4692
  1.4835   1.4907   1.5040   1.5293   1.5426   1.5502   1.5560   1.5750
  1.5806   1.6058   1.6164   1.6404   1.6644   1.6674   1.7621   1.7840
  1.7907   1.8019   1.8248   1.8324   1.8841   1.9366   1.9523   1.9746
  1.9924   2.0384   2.0845   2.0873   2.1019   2.1351   2.1878   2.2763
  2.3497   2.3676   2.3858   2.4500   2.4736   2.5598   2.5917   2.6317
  2.6453   2.6678   2.6960   2.7301   2.7703   2.7737   2.8133   2.8217
  2.8288   2.8392   2.8454   2.8615   2.8677   2.8851   2.9163   2.9208
  2.9333   2.9368   2.9399   2.9505   2.9654   2.9921   2.9929   3.0193
  3.0266   3.0380   3.0742   3.1026   3.1336   3.1649   3.1845   3.1902
  3.1973   3.2022   3.2363   3.2475   3.2786   3.2923   3.2965   3.3141
  3.3221   3.3297   3.3337   3.3441   3.3668   3.3904   3.3974   3.4199
  3.4375   3.4524   3.4686   3.4792   3.4843   3.4978   3.5135   3.5313
  3.5490   3.5506   3.5593   3.5902   3.6027   3.6318   3.6521   3.6562
  3.6696   3.7031   3.7187   3.7810   3.8100   3.8172   3.8299   3.8367
  3.8633   3.8723   3.8870   3.9057   3.9104   3.9155   3.9323   3.9462
  3.9652   3.9749   3.9978   4.0047   4.0166   4.0490   4.0655   4.0875
  4.0969   4.1231   4.1710   4.1819   4.2063   4.2112   4.2356   4.2448
  4.2608   4.2924   4.3098   4.3419   4.3701   4.3857   4.3885   4.4469
  4.4788   4.4896   4.5041   4.5142   4.5372   4.5523   4.5687   4.5843
  4.6035   4.6298   4.6360   4.6786   4.7245   4.7716   4.7878   4.8162
  4.8197   5.0066   5.0799   5.0935   5.1400   5.1786   5.1949   5.2446
  5.2577   5.2681   5.2829   5.3219   5.3413   5.3672   5.3930   5.4379
  5.4667   5.5306   5.5958   5.6212   5.6600   5.6762   5.7103   5.7325
  5.7794   5.8350   5.8855   5.9055   5.9385   5.9507   6.1076   6.2474
  6.2928   6.6022   6.6994   6.8269   7.0713   7.1121   7.2930   7.3093
  7.3271   7.3612   7.3829   7.4312   7.6498   7.7405   7.7704   7.8419
 24.2391  24.6987  24.7296  24.8332  24.9931  25.0720  25.4822  50.5942
 50.6874
 
 Beta MOs
 -- Occupied --
-19.3572 -19.3526 -10.4175 -10.3813 -10.3429 -10.3421 -10.3357 -10.3341
-10.3301  -1.1788  -1.1730  -0.9743  -0.8688  -0.8563  -0.7724  -0.7302
 -0.7122  -0.6455  -0.6293  -0.5991  -0.5681  -0.5558  -0.5399  -0.5254
 -0.5206  -0.4950  -0.4706  -0.4543  -0.4462  -0.4326  -0.4269  -0.3431
 -0.3179
 -- Virtual --
  0.0058   0.0251   0.0351   0.0362   0.0482   0.0546   0.0565   0.0681
  0.0692   0.0774   0.0863   0.0906   0.1046   0.1179   0.1269   0.1297
  0.1390   0.1472   0.1485   0.1543   0.1584   0.1595   0.1635   0.1641
  0.1782   0.1808   0.1847   0.1864   0.1988   0.2029   0.2045   0.2155
  0.2175   0.2189   0.2256   0.2425   0.2545   0.2615   0.2720   0.2776
  0.2824   0.2900   0.3084   0.3106   0.3238   0.3341   0.3382   0.3452
  0.3489   0.3587   0.3621   0.3713   0.3729   0.3804   0.3827   0.3899
  0.4025   0.4229   0.4305   0.4400   0.4472   0.4649   0.4815   0.5198
  0.5484   0.5608   0.5659   0.5872   0.5937   0.6056   0.6115   0.6137
  0.6194   0.6241   0.6419   0.6484   0.6582   0.6716   0.6744   0.6823
  0.6947   0.7064   0.7135   0.7197   0.7251   0.7333   0.7421   0.7483
  0.7586   0.7603   0.7859   0.7917   0.7956   0.8144   0.8160   0.8431
  0.8575   0.8634   0.8688   0.8778   0.8833   0.8920   0.9085   0.9133
  0.9492   0.9593   0.9745   0.9994   1.0070   1.0269   1.0477   1.0606
  1.0794   1.0983   1.1213   1.1260   1.1384   1.1499   1.1530   1.1683
  1.1700   1.1888   1.2133   1.2394   1.2491   1.2529   1.2731   1.2771
  1.2883   1.2986   1.3138   1.3204   1.3362   1.3632   1.3773   1.3946
  1.3981   1.4124   1.4157   1.4334   1.4396   1.4444   1.4537   1.4675
  1.4723   1.4878   1.4934   1.5090   1.5338   1.5477   1.5524   1.5609
  1.5797   1.5868   1.6083   1.6213   1.6446   1.6688   1.6809   1.7675
  1.7872   1.7924   1.8052   1.8279   1.8373   1.8857   1.9388   1.9569
  1.9786   1.9967   2.0425   2.0885   2.0900   2.1041   2.1387   2.1932
  2.2784   2.3534   2.3711   2.3952   2.4518   2.4758   2.5768   2.6042
  2.6369   2.6512   2.6740   2.7014   2.7360   2.7783   2.7825   2.8181
  2.8315   2.8343   2.8451   2.8532   2.8707   2.8734   2.8948   2.9208
  2.9285   2.9401   2.9468   2.9496   2.9627   2.9759   3.0042   3.0094
  3.0301   3.0367   3.0449   3.0902   3.1174   3.1409   3.1774   3.1951
  3.1996   3.2063   3.2088   3.2537   3.2656   3.2978   3.3038   3.3170
  3.3239   3.3334   3.3361   3.3493   3.3578   3.3810   3.4043   3.4087
  3.4279   3.4442   3.4629   3.4788   3.4888   3.4914   3.5061   3.5211
  3.5417   3.5585   3.5631   3.5714   3.6060   3.6182   3.6398   3.6628
  3.6720   3.6860   3.7251   3.7445   3.7923   3.8186   3.8243   3.8356
  3.8430   3.8678   3.8779   3.8987   3.9155   3.9176   3.9267   3.9460
  3.9500   3.9704   3.9851   4.0015   4.0171   4.0234   4.0608   4.0775
  4.0979   4.1084   4.1299   4.1794   4.1895   4.2112   4.2188   4.2423
  4.2506   4.2791   4.2986   4.3186   4.3480   4.3814   4.3962   4.3988
  4.4546   4.4837   4.4948   4.5102   4.5233   4.5436   4.5596   4.5797
  4.5986   4.6102   4.6380   4.6436   4.6862   4.7276   4.7780   4.7931
  4.8186   4.8246   5.0133   5.0826   5.1011   5.1448   5.1854   5.2256
  5.2527   5.2664   5.2780   5.2916   5.3233   5.3628   5.3698   5.3950
  5.4468   5.4761   5.5343   5.6205   5.6328   5.6676   5.6782   5.7207
  5.7555   5.7830   5.8417   5.8918   5.9115   5.9497   5.9569   6.1170
  6.2520   6.2948   6.6050   6.7104   6.8280   7.0832   7.1125   7.3009
  7.3151   7.3366   7.3642   7.3835   7.4329   7.6562   7.7413   7.7750
  7.8433  24.2398  24.7090  24.7303  24.8344  24.9934  25.0730  25.4832
 50.5965  50.6877
 --------------------------------------------------------------
 
          Ground-State Mulliken Net Atomic Charges

     Atom                 Charge (a.u.)    Spin (a.u.)
  --------------------------------------------------------
      1 C                    -0.133280       0.202001
      2 C                    -0.295598      -0.101955
      3 C                    -0.488975       0.242255
      4 C                    -0.311992      -0.100129
      5 C                    -0.118012       0.187225
      6 C                    -0.165766      -0.069964
      7 C                    -0.421368       0.586706
      8 H                     0.297880      -0.003088
      9 H                     0.290083       0.002599
     10 H                     0.282634      -0.006880
     11 H                     0.291909       0.002756
     12 H                     0.285888      -0.002600
     13 H                     0.250663       0.000513
     14 O                    -0.286486       0.066845
     15 H                     0.230585      -0.006106
     16 H                     0.321568      -0.000068
     17 O                    -0.380368       0.001473
     18 H                     0.350634      -0.001585
  --------------------------------------------------------
  Sum of atomic charges =    -0.000000
  Sum of spin   charges =     1.000000

 -----------------------------------------------------------------
                    Cartesian Multipole Moments
 -----------------------------------------------------------------
    Charge (ESU x 10^10)
                -0.0000
    Dipole Moment (Debye)
         X      -2.6849      Y       0.2643      Z      -2.9485
       Tot       3.9965
    Quadrupole Moments (Debye-Ang)
        XX     -46.6594     XY      -1.6099     YY     -51.5708
        XZ      12.5584     YZ      -3.2054     ZZ     -55.4772
    Octopole Moments (Debye-Ang^2)
       XXX     163.5773    XXY      18.8239    XYY      52.3463
       YYY       9.8852    XXZ     -26.9507    XYZ       2.3454
       YYZ     -16.7756    XZZ      63.7324    YZZ       2.6907
       ZZZ     -32.2411
    Hexadecapole Moments (Debye-Ang^3)
      XXXX    -711.8607   XXXY     -69.9850   XXYY    -191.1561
      XYYY     -34.8970   YYYY    -597.7210   XXXZ      98.1795
      XXYZ      11.5990   XYYZ      43.0846   YYYZ      27.7523
      XXZZ    -219.4863   XYZZ      -9.5074   YYZZ    -185.0905
      XZZZ      89.0916   YZZZ      64.6906   ZZZZ    -462.7077
 -----------------------------------------------------------------
 Calculating analytic gradient of the SCF energy
 Gradient of CDS energy
            1           2           3           4           5           6
    1   0.0000428   0.0003411   0.0000282  -0.0003544  -0.0002413  -0.0009268
    2   0.0002409  -0.0001091  -0.0004910  -0.0001848   0.0001471   0.0046946
    3   0.0002144   0.0002590   0.0000533  -0.0000781   0.0000345   0.0006017
            7           8           9          10          11          12
    1   0.0027201   0.0001067   0.0001590   0.0000217  -0.0001447  -0.0001066
    2  -0.0034962   0.0001909  -0.0000782  -0.0002031  -0.0001269   0.0000677
    3  -0.0030672   0.0000584   0.0001102   0.0000176  -0.0000805  -0.0000870
           13          14          15          16          17          18
    1  -0.0002987  -0.0019624  -0.0002094   0.0000610   0.0010341  -0.0002705
    2  -0.0002122   0.0041360  -0.0000293  -0.0002640  -0.0046905   0.0004082
    3   0.0003205   0.0020919   0.0004734  -0.0003744  -0.0005320  -0.0000157
 Gradient of SCF Energy
            1           2           3           4           5           6
    1  -0.0007787  -0.0048998   0.0034697   0.0054847   0.0095492   0.0028517
    2  -0.0078816   0.0026164   0.0047390  -0.0000937   0.0026493  -0.0032414
    3   0.0012645  -0.0027413   0.0022970   0.0040705   0.0037393   0.0014013
            7           8           9          10          11          12
    1   0.0060643   0.0003937   0.0002555  -0.0000768  -0.0045920  -0.0090837
    2  -0.0071969  -0.0006837  -0.0003044  -0.0016807  -0.0034242   0.0057562
    3   0.0037500  -0.0004056   0.0001485  -0.0001578  -0.0031786  -0.0064847
           13          14          15          16          17          18
    1  -0.0097954   0.0123386   0.0004412  -0.0117702   0.0123811  -0.0122330
    2   0.0038564   0.0045883   0.0022360  -0.0037597  -0.0014387   0.0032634
    3  -0.0045921   0.0066377   0.0005046  -0.0066418   0.0136818  -0.0132934
 Max gradient component =       1.368E-02
 RMS gradient           =       5.869E-03
 Computing fast CPCM-SWIG gradient
 Updating gradient with PCM contributions...
 -- total gradient after adding PCM contribution --
---------------------------------------------------
  Atom         X              Y              Z     
---------------------------------------------------
   1      -0.000800      -0.000371      -0.000427
   2       0.000268       0.000015       0.000097
   3      -0.000076       0.000003      -0.000055
   4       0.000029      -0.000029       0.000019
   5       0.000006       0.000027       0.000005
   6       0.000522      -0.000217       0.000214
   7       0.000098       0.000127       0.000128
   8       0.000322       0.000204       0.000169
   9       0.000021      -0.000093      -0.000009
  10      -0.000019      -0.000000      -0.000000
  11      -0.000017       0.000007      -0.000003
  12      -0.000027       0.000035       0.000029
  13      -0.000054       0.000024       0.000001
  14       0.000070       0.000065       0.000005
  15      -0.000243      -0.000242      -0.000079
  16      -0.000026       0.000054      -0.000017
  17      -0.000043       0.000426       0.000074
  18      -0.000030      -0.000035      -0.000152
---------------------------------------------------
 Number of fixed atoms: 0
 Gradient time:  CPU 319.80 s  wall 45.96 s
 ----------------------------------------------------------------
             Standard Nuclear Orientation (Angstroms)
    I     Atom           X                Y                Z
 ----------------------------------------------------------------
    1      C      -0.4555682440     0.1716452427     1.2665990480
    2      C      -0.3183308534    -1.1960411094     1.3716999944
    3      C      -1.2398457934    -2.0605062557     0.7748321156
    4      C      -2.3405455890    -1.5221085686     0.1026703065
    5      C      -2.5035174805    -0.1585671720    -0.0103656364
    6      C      -1.4880521993     0.7130357809     0.4618642279
    7      C      -0.4315104569     0.9859978319    -1.3547301712
    8      H       0.2454540260     0.8460668155     1.7387233818
    9      H       0.5065363300    -1.6018129493     1.9431328014
   10      H      -1.1255371753    -3.1313334739     0.8678340280
   11      H      -3.0913275624    -2.1804542323    -0.3150523308
   12      H      -3.3632089816     0.2653372148    -0.5148941626
   13      H      -1.2253105192     1.4661391868    -1.9192902330
   14      O       0.0260336939    -0.2098440473    -1.8531582633
   15      H       0.3785097585     1.6108456458    -1.0025160859
   16      H      -0.7123411194    -0.6929968828    -2.2432822777
   17      O      -1.7561226946     2.0686460521     0.6456209313
   18      H      -2.4611611995     2.3303767298     0.0413384394
 ----------------------------------------------------------------
 Nuclear Repulsion Energy =         445.61397113 hartrees
 There are       34 alpha and       33 beta electrons
 Discretize the solute cavity surface with Lebedev spheres
	Using 110 Lebedev grid points for each H atom
	Using 194 Lebedev grid points for other atoms
	Atomic van der Waals radii will be scaled by 1.20
 Remove points where switching function is < 1.0e-08
 Keep 1330 surface tesserae and discard 1406 interior tesserae
 Molecular Surface Area = 156.321 Angst**2
 Requested basis set is 6-311++G(2df,2p)
 There are 126 shells and 396 basis functions
 A cutoff of  1.0D-12 yielded   7430 shell pairs
 There are     74602 function pairs (     92761 Cartesian)
 Smallest overlap matrix eigenvalue = 7.78E-07
 Linear dependence detected in AO basis
 Tighter screening thresholds may be required for diffuse basis sets
 Use S2THRESH > 14 and THRESH = 14 in case of SCF convergence issues
 Number of orthogonalized atomic orbitals = 395
 Maximum deviation from orthogonality = 4.054E-11
 Guess MOs from SCF MO coefficient file

 -----------------------------------------------------------------------
  General SCF calculation program by
  Eric Jon Sundstrom, Paul Horn, Yuezhi Mao, Dmitri Zuev, Alec White,
  David Stuck, Shaama M.S., Shane Yost, Joonho Lee, David Small,
  Daniel Levine, Susi Lehtola, Hugh Burton, Evgeny Epifanovsky,
  Bang C. Huynh
 -----------------------------------------------------------------------
 Exchange:     0.1500 Hartree-Fock + 1.0000 wB97M-V + LR-HF
 Correlation:  1.0000 wB97M-V
 Using SG-2 standard quadrature grid
 Nonlocal Correlation:  VV10 with C = 0.0100 and b = 6.00 and scale = 1.00000
 Grid used for NLC:  SG-1 standard quadrature
 
 Citation of the SMD model:
 Marenich, A.V.; Cramer, C.J.; Truhlar, D.G.
 J. Phys. Chem. B 2009, 113, 6378-6396.
 iSolventCode=           1
 Solvent: water                                                           
 
 vradii
            1           2           3           4           5           6
    1   1.8500000   1.8500000   1.8500000   1.8500000   1.8500000   1.8500000
            7           8           9          10          11          12
    1   1.8500000   1.2000000   1.2000000   1.2000000   1.2000000   1.2000000
           13          14          15          16          17          18
    1   1.2000000   1.5200000   1.2000000   1.2000000   1.5200000   1.2000000
 -------------------------------------------------------
 OpenMP BLAS3 based DFT computing Module                
 Release: version 1.0, May 2013, Q-Chem Inc. Pittsburgh 
 -------------------------------------------------------
 A unrestricted SCF calculation will be
 performed using Roothaan-Hall, DIIS, GDM
 SCF converges when RMS gradient is below 1.0e-07
 ---------------------------------------
  Cycle       Energy         DIIS error
 ---------------------------------------
    1    -422.4754857814      2.16e-04  Roothaan Step
 ---------------------------------------
  Cycle       Energy         DIIS error
 ---------------------------------------
    1    -422.4984344186      2.48e-04  
    2    -422.5037529327      1.84e-04  Done DIIS. Switching to GDM
 ---------------------------------------
  Cycle       Energy        RMS Gradient
 ---------------------------------------
    1    -422.5037529327      7.31e-03   Normal BFGS step
    2    -422.5041578116      8.65e-03   Normal BFGS step
    3    -422.5058864230      1.20e-03   Normal BFGS step
    4    -422.5059061961      5.40e-04   Normal BFGS step
    5    -422.5059192229      3.19e-04   Normal BFGS step
    6    -422.5059198498      1.13e-04   Normal BFGS step
    7    -422.5059200065      9.09e-05   Normal BFGS step
    8    -422.5059200394      4.03e-05   Normal BFGS step
    9    -422.5059200475      1.14e-05   Normal BFGS step
   10    -422.5059200490      8.25e-06   Normal BFGS step
   11    -422.5059200497      4.14e-06   Normal BFGS step
   12    -422.5059200498      2.29e-06   Normal BFGS step
   13    -422.5059200499      1.31e-06   Normal BFGS step
   14    -422.5059200499      5.77e-07   Normal BFGS step
   15    -422.5059200499      2.77e-07   Normal BFGS step
   16    -422.5059200499      1.53e-07   Normal BFGS step
   17    -422.5059200499      8.02e-08  Convergence criterion met
 ---------------------------------------
 SCF time:   CPU 2068.50s  wall 269.00s 
<S^2> =          0.783416523
(3)  G-ENP(liq) elect-nuc-pol free energy of system     -422.505920050 a.u.
(4)  G-CDS(liq) cavity-dispersion-solvent structure 
     free energy                                                4.2298 kcal/mol
(6)  G-S(liq) free energy of system                     -422.499179424 a.u.
 SCF   energy in the final basis set =     -422.4991794240
 Total energy in the final basis set =     -422.4991794240
 
 --------------------------------------------------------------
 
                    Orbital Energies (a.u.)
 --------------------------------------------------------------
 
 Alpha MOs
 -- Occupied --
-19.3598 -19.3528 -10.4154 -10.3917 -10.3415 -10.3408 -10.3386 -10.3371
-10.3336  -1.1825  -1.1764  -0.9767  -0.8715  -0.8601  -0.7898  -0.7321
 -0.7154  -0.6465  -0.6370  -0.6023  -0.5703  -0.5638  -0.5513  -0.5302
 -0.5220  -0.4981  -0.4798  -0.4570  -0.4510  -0.4457  -0.4287  -0.3535
 -0.3429  -0.2336
 -- Virtual --
  0.0254   0.0357   0.0368   0.0472   0.0552   0.0572   0.0628   0.0696
  0.0780   0.0833   0.0873   0.0963   0.1190   0.1260   0.1302   0.1408
  0.1464   0.1488   0.1534   0.1569   0.1596   0.1627   0.1642   0.1750
  0.1813   0.1850   0.1865   0.1993   0.2026   0.2041   0.2159   0.2179
  0.2192   0.2258   0.2427   0.2541   0.2585   0.2708   0.2740   0.2818
  0.2886   0.3065   0.3079   0.3181   0.3331   0.3375   0.3435   0.3477
  0.3570   0.3606   0.3704   0.3715   0.3799   0.3827   0.3877   0.4003
  0.4208   0.4294   0.4379   0.4456   0.4634   0.4797   0.5162   0.5467
  0.5587   0.5634   0.5816   0.5885   0.6036   0.6073   0.6126   0.6170
  0.6210   0.6402   0.6437   0.6543   0.6652   0.6721   0.6794   0.6905
  0.7024   0.7092   0.7163   0.7175   0.7275   0.7395   0.7456   0.7537
  0.7577   0.7842   0.7905   0.7943   0.8124   0.8135   0.8426   0.8544
  0.8579   0.8651   0.8761   0.8791   0.8896   0.9067   0.9101   0.9466
  0.9565   0.9717   0.9977   1.0040   1.0249   1.0455   1.0569   1.0771
  1.0960   1.1185   1.1240   1.1369   1.1470   1.1492   1.1658   1.1664
  1.1855   1.2103   1.2382   1.2466   1.2503   1.2712   1.2751   1.2855
  1.2955   1.3112   1.3155   1.3325   1.3606   1.3742   1.3914   1.3966
  1.4078   1.4126   1.4286   1.4353   1.4408   1.4509   1.4644   1.4690
  1.4835   1.4908   1.5039   1.5294   1.5426   1.5502   1.5561   1.5750
  1.5806   1.6058   1.6165   1.6405   1.6644   1.6673   1.7620   1.7840
  1.7909   1.8018   1.8246   1.8323   1.8841   1.9366   1.9523   1.9747
  1.9924   2.0384   2.0844   2.0874   2.1018   2.1353   2.1877   2.2761
  2.3497   2.3674   2.3859   2.4500   2.4735   2.5599   2.5917   2.6316
  2.6451   2.6677   2.6959   2.7301   2.7702   2.7736   2.8133   2.8217
  2.8285   2.8392   2.8456   2.8614   2.8676   2.8852   2.9163   2.9209
  2.9334   2.9368   2.9400   2.9508   2.9654   2.9920   2.9928   3.0191
  3.0266   3.0379   3.0743   3.1026   3.1334   3.1648   3.1844   3.1902
  3.1969   3.2022   3.2362   3.2475   3.2786   3.2922   3.2966   3.3142
  3.3218   3.3297   3.3335   3.3441   3.3668   3.3903   3.3975   3.4196
  3.4373   3.4523   3.4686   3.4793   3.4843   3.4980   3.5134   3.5313
  3.5489   3.5505   3.5594   3.5900   3.6026   3.6317   3.6522   3.6564
  3.6698   3.7031   3.7188   3.7809   3.8098   3.8171   3.8299   3.8367
  3.8633   3.8722   3.8869   3.9055   3.9104   3.9154   3.9321   3.9461
  3.9652   3.9744   3.9977   4.0048   4.0166   4.0490   4.0652   4.0874
  4.0967   4.1231   4.1710   4.1820   4.2064   4.2110   4.2357   4.2447
  4.2609   4.2923   4.3098   4.3420   4.3699   4.3861   4.3884   4.4468
  4.4786   4.4898   4.5041   4.5140   4.5367   4.5522   4.5684   4.5844
  4.6029   4.6292   4.6358   4.6784   4.7246   4.7717   4.7875   4.8156
  4.8196   5.0061   5.0799   5.0936   5.1401   5.1785   5.1948   5.2447
  5.2576   5.2681   5.2829   5.3218   5.3413   5.3673   5.3929   5.4381
  5.4667   5.5310   5.5958   5.6211   5.6600   5.6761   5.7103   5.7325
  5.7799   5.8347   5.8862   5.9052   5.9385   5.9506   6.1076   6.2473
  6.2926   6.6016   6.6994   6.8268   7.0713   7.1121   7.2930   7.3093
  7.3271   7.3612   7.3828   7.4312   7.6499   7.7405   7.7704   7.8419
 24.2396  24.6987  24.7300  24.8328  24.9928  25.0707  25.4813  50.5942
 50.6874
 
 Beta MOs
 -- Occupied --
-19.3572 -19.3525 -10.4176 -10.3813 -10.3429 -10.3422 -10.3357 -10.3341
-10.3301  -1.1788  -1.1730  -0.9742  -0.8688  -0.8563  -0.7723  -0.7302
 -0.7123  -0.6455  -0.6293  -0.5991  -0.5680  -0.5558  -0.5399  -0.5254
 -0.5207  -0.4950  -0.4706  -0.4543  -0.4462  -0.4325  -0.4270  -0.3430
 -0.3179
 -- Virtual --
  0.0058   0.0251   0.0351   0.0362   0.0482   0.0546   0.0565   0.0680
  0.0692   0.0774   0.0863   0.0906   0.1046   0.1179   0.1269   0.1297
  0.1390   0.1472   0.1485   0.1543   0.1584   0.1595   0.1635   0.1641
  0.1782   0.1809   0.1847   0.1864   0.1988   0.2029   0.2045   0.2155
  0.2175   0.2189   0.2256   0.2425   0.2545   0.2615   0.2720   0.2776
  0.2824   0.2900   0.3084   0.3105   0.3237   0.3341   0.3381   0.3452
  0.3490   0.3587   0.3621   0.3713   0.3729   0.3804   0.3827   0.3899
  0.4025   0.4229   0.4304   0.4400   0.4472   0.4649   0.4815   0.5198
  0.5484   0.5607   0.5660   0.5872   0.5937   0.6056   0.6115   0.6137
  0.6193   0.6240   0.6419   0.6484   0.6582   0.6717   0.6744   0.6823
  0.6947   0.7064   0.7135   0.7197   0.7251   0.7334   0.7421   0.7482
  0.7585   0.7602   0.7858   0.7919   0.7956   0.8144   0.8159   0.8431
  0.8574   0.8634   0.8687   0.8778   0.8831   0.8919   0.9084   0.9132
  0.9491   0.9593   0.9745   0.9994   1.0070   1.0269   1.0477   1.0606
  1.0794   1.0983   1.1213   1.1259   1.1384   1.1499   1.1530   1.1684
  1.1700   1.1887   1.2133   1.2395   1.2491   1.2529   1.2730   1.2771
  1.2884   1.2985   1.3139   1.3203   1.3361   1.3632   1.3772   1.3946
  1.3981   1.4123   1.4157   1.4334   1.4396   1.4443   1.4536   1.4675
  1.4721   1.4878   1.4934   1.5090   1.5339   1.5477   1.5524   1.5610
  1.5797   1.5868   1.6083   1.6214   1.6447   1.6687   1.6810   1.7675
  1.7872   1.7925   1.8051   1.8278   1.8372   1.8856   1.9388   1.9569
  1.9787   1.9967   2.0425   2.0885   2.0900   2.1040   2.1389   2.1931
  2.2782   2.3534   2.3709   2.3953   2.4518   2.4757   2.5769   2.6042
  2.6368   2.6511   2.6739   2.7013   2.7360   2.7782   2.7823   2.8182
  2.8313   2.8341   2.8451   2.8534   2.8705   2.8734   2.8949   2.9208
  2.9286   2.9402   2.9468   2.9497   2.9631   2.9758   3.0041   3.0094
  3.0299   3.0367   3.0448   3.0902   3.1174   3.1406   3.1773   3.1950
  3.1997   3.2060   3.2088   3.2536   3.2656   3.2979   3.3037   3.3170
  3.3239   3.3333   3.3361   3.3492   3.3579   3.3810   3.4043   3.4088
[...]
 C          0.168 -0.053  0.080    0.034 -0.018  0.049   -0.011 -0.064 -0.012
 C         -0.019  0.003  0.034   -0.007 -0.002  0.014    0.011 -0.004 -0.011
 C         -0.062  0.028  0.096   -0.020  0.008  0.030    0.008  0.005 -0.011
 H         -0.316  0.006 -0.001    0.134 -0.041 -0.280    0.177 -0.369  0.204
 H          0.280  0.004 -0.302   -0.361  0.010  0.536   -0.243 -0.342 -0.211
 H         -0.138  0.176  0.183    0.207  0.056 -0.338   -0.012  0.206 -0.004
 H          0.017 -0.008 -0.157   -0.220 -0.006  0.385    0.380 -0.274  0.168
 H          0.189  0.045  0.142    0.144 -0.017 -0.135   -0.156 -0.366 -0.006
 H          0.279  0.127 -0.339    0.097  0.044 -0.118   -0.057 -0.028  0.060
 O          0.017 -0.026 -0.023    0.005 -0.006 -0.007    0.001 -0.006 -0.000
 H          0.155  0.075 -0.428    0.057  0.021 -0.150   -0.044  0.006  0.095
 H          0.024 -0.023 -0.034    0.011 -0.012 -0.010   -0.020  0.017  0.010
 O          0.007  0.009 -0.005    0.002  0.002 -0.000   -0.002  0.014  0.003
 H         -0.006 -0.052 -0.019   -0.003 -0.021 -0.005   -0.002 -0.005 -0.006
 TransDip  -0.094 -0.081  0.181   -0.031 -0.073  0.070    0.012 -0.140  0.024

 Mode:                25                     26                     27
 Frequency:      1076.46                1093.35                1133.69
 Force Cnst:      0.9025                 1.0676                 1.8628
 Red. Mass:       1.3219                 1.5159                 2.4600
 IR Active:          YES                    YES                    YES
 IR Intens:      249.310                 19.652                125.352
 Raman Active:       YES                    YES                    YES
               X      Y      Z        X      Y      Z        X      Y      Z
 C          0.003  0.008  0.006   -0.039 -0.086 -0.034    0.004  0.005  0.010
 C          0.006 -0.004  0.002   -0.050  0.032 -0.030    0.002  0.002 -0.001
 C         -0.001 -0.009 -0.001    0.088  0.006  0.054   -0.001 -0.013 -0.001
 C         -0.001  0.002 -0.002   -0.053 -0.042 -0.035    0.002 -0.007 -0.000
 C          0.001 -0.000  0.003   -0.065  0.072 -0.031   -0.011  0.011  0.001
 C         -0.005  0.005 -0.003    0.058  0.007  0.034    0.003  0.003 -0.009
 C          0.014  0.085  0.051    0.000  0.001 -0.001   -0.103  0.246  0.025
 H          0.001  0.023 -0.010    0.157 -0.429  0.143    0.023 -0.009  0.003
 H          0.000 -0.010  0.007    0.037  0.275  0.004    0.008  0.022  0.005
 H         -0.013 -0.011 -0.008    0.499  0.073  0.316   -0.019 -0.017 -0.007
 H         -0.019  0.023 -0.003    0.032 -0.194  0.032    0.021 -0.039  0.015
 H          0.004 -0.008 -0.009    0.078  0.440  0.010    0.013  0.051 -0.008
 H          0.004 -0.319 -0.275    0.004 -0.018 -0.023   -0.272  0.559  0.545
 O          0.037 -0.098 -0.048    0.001 -0.003 -0.002    0.072 -0.191 -0.043
 H         -0.369  0.451  0.264   -0.025  0.018  0.026    0.111 -0.085  0.107
 H         -0.424  0.431  0.146   -0.022  0.024  0.006    0.204 -0.311 -0.148
 O          0.002 -0.005 -0.002   -0.001  0.010  0.006   -0.000 -0.007 -0.007
 H          0.003  0.017  0.007   -0.012 -0.211 -0.081    0.008  0.041  0.005
 TransDip  -0.237  0.302  0.329    0.115 -0.065  0.053   -0.181  0.132  0.280

 Mode:                28                     29                     30
 Frequency:      1145.97                1171.82                1186.45
 Force Cnst:      0.8891                 0.9288                 1.1615
 Red. Mass:       1.1491                 1.1481                 1.4005
 IR Active:          YES                    YES                    YES
 IR Intens:       11.319                 44.055                194.386
 Raman Active:       YES                    YES                    YES
               X      Y      Z        X      Y      Z        X      Y      Z
 C         -0.008  0.016 -0.006   -0.013  0.038 -0.005    0.038 -0.011  0.027
 C         -0.021 -0.056 -0.015   -0.028 -0.037 -0.019    0.018 -0.003  0.012
 C          0.059  0.009  0.037    0.000 -0.021  0.002   -0.003  0.006 -0.002
 C         -0.026  0.046 -0.015    0.034 -0.034  0.020    0.005 -0.032  0.004
 C         -0.008 -0.016 -0.003   -0.006  0.050  0.000    0.043  0.040  0.023
 C          0.010 -0.006  0.003    0.021 -0.036 -0.003   -0.109  0.042 -0.052
 C         -0.001  0.007  0.001   -0.003 -0.005  0.008    0.001 -0.009  0.004
 H         -0.137  0.229 -0.116   -0.240  0.417 -0.205    0.155 -0.201  0.133
 H         -0.175 -0.468 -0.087   -0.143 -0.369 -0.090   -0.058 -0.232 -0.037
 H          0.518  0.083  0.325   -0.016 -0.023 -0.009    0.190  0.037  0.119
 H         -0.225  0.364 -0.157    0.275 -0.404  0.167   -0.036  0.022 -0.009
 H         -0.086 -0.209 -0.030    0.175  0.495  0.057    0.154  0.286  0.046
 H         -0.011  0.019  0.026    0.016 -0.009 -0.025    0.007 -0.010 -0.004
 O          0.002 -0.005 -0.001   -0.000  0.002 -0.001   -0.002  0.007  0.003
 H          0.009 -0.005 -0.002   -0.000  0.004 -0.012    0.014  0.001 -0.035
 H          0.010 -0.014 -0.005   -0.003  0.005  0.001    0.001  0.006 -0.000
 O          0.002  0.007  0.003   -0.006  0.027  0.007   -0.022 -0.075 -0.046
 H         -0.005 -0.052 -0.015   -0.013 -0.036 -0.014    0.026  0.765  0.279
 TransDip  -0.081 -0.054 -0.046    0.055 -0.205 -0.009   -0.059  0.433  0.090

 Mode:                31                     32                     33
 Frequency:      1269.10                1323.47                1362.60
 Force Cnst:      3.7706                 3.2728                 1.4475
 Red. Mass:       3.9734                 3.1713                 1.3232
 IR Active:          YES                    YES                    YES
 IR Intens:      140.709                 25.333                 50.857
 Raman Active:       YES                    YES                    YES
               X      Y      Z        X      Y      Z        X      Y      Z
 C         -0.064  0.094 -0.049    0.070 -0.158  0.064    0.027 -0.039  0.017
 C          0.054 -0.105  0.041    0.062  0.138  0.039   -0.043 -0.063 -0.028
 C          0.035  0.002  0.020   -0.194 -0.035 -0.122   -0.015  0.005 -0.009
 C         -0.094 -0.057 -0.050    0.072 -0.132  0.046   -0.038  0.057 -0.023
 C         -0.014  0.047 -0.005    0.055  0.207  0.014    0.007  0.011  0.005
 C          0.028  0.407  0.060   -0.093  0.033 -0.059    0.081 -0.011  0.054
 C          0.002 -0.012 -0.006   -0.002  0.000 -0.003   -0.025 -0.015 -0.015
 H          0.048 -0.038  0.004   -0.162  0.225 -0.130   -0.193  0.308 -0.149
 H         -0.024 -0.334  0.012    0.024 -0.010 -0.010    0.130  0.453  0.085
 H         -0.084 -0.025 -0.053    0.483  0.073  0.304    0.209  0.043  0.131
 H          0.202 -0.528  0.128    0.038 -0.101  0.052    0.184 -0.277  0.108
 H         -0.188 -0.363 -0.093   -0.185 -0.386 -0.081   -0.111 -0.301 -0.044
 H         -0.023  0.003  0.039   -0.010 -0.014 -0.002   -0.003  0.087  0.036
 O         -0.002  0.006  0.003   -0.001 -0.001 -0.001    0.022  0.001  0.008
 H         -0.016 -0.017  0.044   -0.015  0.010  0.014    0.049 -0.098 -0.043
 H          0.008  0.001 -0.009    0.010 -0.014 -0.006   -0.126  0.180  0.057
 O          0.042 -0.188 -0.011    0.012 -0.002  0.018   -0.027 -0.013 -0.029
 H          0.058 -0.303 -0.075    0.010 -0.384 -0.157   -0.003  0.447  0.157
 TransDip  -0.110  0.363  0.026    0.145 -0.036  0.061   -0.067  0.214  0.045

 Mode:                34                     35                     36
 Frequency:      1365.61                1459.73                1495.12
 Force Cnst:      1.3908                 1.4067                 3.1275
 Red. Mass:       1.2658                 1.1205                 2.3746
 IR Active:          YES                    YES                    YES
 IR Intens:       31.411                  9.086                 99.029
 Raman Active:       YES                    YES                    YES
               X      Y      Z        X      Y      Z        X      Y      Z
 C         -0.008  0.006 -0.005    0.002 -0.005  0.001   -0.044  0.155 -0.033
 C          0.012  0.020  0.007   -0.002  0.000 -0.001    0.069 -0.048  0.046
 C          0.003 -0.000  0.002   -0.000  0.002  0.000   -0.061 -0.078 -0.039
 C          0.012 -0.018  0.008    0.003 -0.001  0.002   -0.079  0.159 -0.049
 C         -0.001 -0.002 -0.003   -0.001 -0.004 -0.001    0.096 -0.001  0.049
 C         -0.021  0.004 -0.012   -0.002  0.003  0.003   -0.088 -0.126 -0.065
 C         -0.079 -0.052 -0.054    0.026 -0.093 -0.025   -0.002 -0.005  0.008
 H          0.045 -0.076  0.034   -0.009  0.011 -0.006    0.274 -0.345  0.218
 H         -0.037 -0.125 -0.024    0.000  0.008  0.001    0.069 -0.102  0.046
 H         -0.058 -0.010 -0.037   -0.002  0.003 -0.002    0.340 -0.028  0.216
 H         -0.054  0.083 -0.031   -0.005  0.010 -0.002    0.334 -0.459  0.201
 H          0.030  0.083  0.012    0.006  0.013  0.003    0.032 -0.220  0.025
 H         -0.058  0.294  0.192    0.225  0.603  0.260    0.010  0.032  0.019
 O          0.080  0.001  0.026   -0.006 -0.003  0.007    0.003 -0.001 -0.000
 H          0.179 -0.337 -0.163   -0.430  0.557 -0.107   -0.004  0.020 -0.034
 H         -0.435  0.620  0.195    0.004 -0.016 -0.002   -0.013  0.013  0.010
 O          0.007  0.004  0.008   -0.000  0.001  0.000    0.014  0.039  0.023
 H          0.003 -0.125 -0.047    0.000 -0.001 -0.001   -0.005 -0.184 -0.061
 TransDip  -0.122  0.127  0.037    0.049 -0.012 -0.082    0.034 -0.317 -0.013

 Mode:                37                     38                     39
 Frequency:      1509.15                1600.09                1626.34
 Force Cnst:      3.0627                 7.7250                 8.6590
 Red. Mass:       2.2824                 5.1211                 5.5564
 IR Active:          YES                    YES                    YES
 IR Intens:       37.786                 24.500                101.816
 Raman Active:       YES                    YES                    YES
               X      Y      Z        X      Y      Z        X      Y      Z
 C         -0.068 -0.035 -0.051   -0.160  0.063 -0.122    0.083 -0.285  0.062
 C          0.026  0.163  0.015    0.156  0.104  0.105    0.019  0.305  0.007
 C          0.092 -0.054  0.057   -0.262 -0.065 -0.164    0.040 -0.136  0.028
 C         -0.075 -0.042 -0.045    0.144  0.025  0.083   -0.116  0.292 -0.074
 C          0.027  0.157  0.010   -0.145 -0.156 -0.070    0.012 -0.274  0.011
 C          0.107 -0.115  0.060    0.268  0.028  0.173   -0.073  0.144  0.003
 C         -0.008 -0.003  0.008   -0.004  0.000 -0.002    0.016  0.013 -0.028
 H          0.003 -0.188  0.009    0.040 -0.266  0.017   -0.225  0.177 -0.170
 H         -0.199 -0.473 -0.128    0.029 -0.304  0.032   -0.204 -0.311 -0.132
 H         -0.308 -0.133 -0.192    0.379  0.035  0.239   -0.015 -0.163 -0.006
 H         -0.013 -0.169 -0.008    0.056  0.193  0.024    0.269 -0.284  0.165
 H         -0.219 -0.468 -0.093    0.003  0.250  0.011    0.215  0.211  0.104
 H          0.030  0.023 -0.021    0.023  0.008 -0.034   -0.031 -0.017  0.014
 O          0.000 -0.001 -0.001   -0.001 -0.000 -0.000   -0.000 -0.002  0.001
 H         -0.017  0.020 -0.010   -0.015 -0.003  0.028    0.010 -0.009  0.026
 H         -0.000 -0.001 -0.002    0.003 -0.005 -0.001   -0.000 -0.005  0.003
 O         -0.030  0.016 -0.019   -0.028 -0.016 -0.029    0.013 -0.012 -0.005
 H         -0.011  0.319  0.105   -0.006  0.365  0.131    0.005 -0.087 -0.037
 TransDip   0.020 -0.195  0.018    0.102  0.090  0.081   -0.039  0.316 -0.056

 Mode:                40                     41                     42
 Frequency:      3095.53                3178.80                3184.56
 Force Cnst:      5.9194                 6.4703                 6.4961
 Red. Mass:       1.0485                 1.0868                 1.0872
 IR Active:          YES                    YES                    YES
 IR Intens:       37.868                 11.712                  5.432
 Raman Active:       YES                    YES                    YES
               X      Y      Z        X      Y      Z        X      Y      Z
 C          0.000 -0.000  0.000    0.004  0.003  0.003    0.025  0.021  0.017
 C          0.000  0.000 -0.000   -0.012  0.005 -0.008   -0.053  0.026 -0.036
 C          0.000 -0.000 -0.000    0.001 -0.016  0.001    0.004 -0.022  0.003
 C         -0.000  0.000 -0.000    0.035  0.029  0.020   -0.002 -0.000 -0.001
 C          0.000 -0.000  0.000   -0.052  0.024 -0.030    0.020 -0.009  0.011
 C          0.000  0.001 -0.001    0.001  0.002  0.001   -0.001 -0.000 -0.001
 C         -0.019  0.055 -0.017    0.001  0.000 -0.000   -0.001 -0.000 -0.000
 H          0.001  0.001  0.001   -0.042 -0.039 -0.028   -0.285 -0.269 -0.192
 H          0.001 -0.000  0.000    0.139 -0.068  0.096    0.613 -0.302  0.425
 H         -0.000  0.001  0.000   -0.021  0.196 -0.017   -0.031  0.271 -0.024
 H          0.000  0.000  0.000   -0.408 -0.356 -0.227    0.016  0.013  0.009
 H         -0.003  0.002 -0.002    0.603 -0.290  0.352   -0.226  0.109 -0.132
 H          0.624 -0.350  0.416   -0.001  0.000 -0.000    0.002 -0.001  0.002
 O          0.000  0.000 -0.001   -0.000 -0.000 -0.000    0.000 -0.000 -0.000
 H         -0.414 -0.313 -0.203   -0.005 -0.004 -0.002    0.006  0.005  0.002
 H          0.007  0.003  0.006    0.000  0.000  0.000   -0.001 -0.000 -0.000
 O          0.000 -0.000  0.000   -0.000 -0.000 -0.000    0.000  0.000  0.000
 H          0.001 -0.001 -0.001    0.002 -0.005  0.001   -0.001  0.001 -0.001
 TransDip  -0.077  0.181  0.018    0.004  0.108 -0.016   -0.042  0.033 -0.052

 Mode:                43                     44                     45
 Frequency:      3193.96                3201.64                3212.80
 Force Cnst:      6.5710                 6.6059                 6.6734
 Red. Mass:       1.0932                 1.0938                 1.0973
 IR Active:          YES                    YES                    YES
 IR Intens:       20.110                 24.544                 16.583
 Raman Active:       YES                    YES                    YES
               X      Y      Z        X      Y      Z        X      Y      Z
 C          0.012  0.010  0.008   -0.047 -0.047 -0.032    0.014  0.016  0.010
 C         -0.013  0.005 -0.009   -0.024  0.016 -0.017    0.027 -0.012  0.019
 C         -0.001  0.030 -0.001    0.005 -0.027  0.004    0.008 -0.072  0.006
 C         -0.041 -0.040 -0.023   -0.015 -0.013 -0.008   -0.023 -0.018 -0.013
 C         -0.040  0.022 -0.023   -0.006  0.004 -0.003   -0.009  0.006 -0.005
 C          0.001  0.002  0.000    0.002 -0.002  0.002   -0.001  0.001 -0.000
 C          0.000  0.000 -0.000    0.000  0.000  0.001   -0.000  0.000 -0.001
 H         -0.131 -0.123 -0.089    0.541  0.517  0.366   -0.164 -0.158 -0.111
 H          0.145 -0.070  0.101    0.277 -0.141  0.192   -0.287  0.139 -0.199
 H          0.035 -0.349  0.028   -0.036  0.317 -0.029   -0.086  0.802 -0.069
 H          0.477  0.423  0.265    0.164  0.143  0.091    0.237  0.205  0.132
 H          0.447 -0.218  0.261    0.064 -0.033  0.037    0.097 -0.049  0.057
 H          0.002 -0.002  0.002   -0.003  0.002 -0.003    0.001 -0.001  0.002
 O         -0.000  0.000  0.000    0.000 -0.000 -0.000   -0.000  0.000  0.000
 H         -0.001 -0.001  0.000   -0.004 -0.003 -0.002    0.002  0.001  0.001
 H          0.001  0.000 -0.000   -0.000 -0.000 -0.000    0.000  0.000 -0.000
 O         -0.000 -0.000 -0.000   -0.000  0.000 -0.000    0.000 -0.000 -0.000
 H          0.002 -0.003  0.002   -0.000  0.002  0.000    0.001 -0.001  0.001
 TransDip  -0.126  0.040 -0.055   -0.101 -0.098 -0.074    0.020 -0.126  0.028

 Mode:                46                     47                     48
 Frequency:      3230.94                3807.19                3814.50
 Force Cnst:      6.8945                 9.1030                 9.1409
 Red. Mass:       1.1210                 1.0659                 1.0663
 IR Active:          YES                    YES                    YES
 IR Intens:       19.799                132.631                167.338
 Raman Active:       YES                    YES                    YES
               X      Y      Z        X      Y      Z        X      Y      Z
 C         -0.001 -0.000 -0.000   -0.000 -0.000  0.000    0.000 -0.000  0.000
 C          0.000 -0.000  0.000   -0.000  0.000 -0.000   -0.000 -0.000 -0.000
 C          0.000  0.000  0.000    0.000 -0.000  0.000    0.000 -0.000  0.000
 C          0.000  0.000  0.000    0.000  0.000 -0.000   -0.000  0.000 -0.000
 C         -0.000  0.000 -0.000   -0.000  0.000 -0.000    0.001 -0.001  0.000
 C          0.000 -0.000  0.000    0.000 -0.000 -0.000   -0.001 -0.000 -0.001
 C         -0.087 -0.021 -0.048   -0.002 -0.001 -0.001   -0.000 -0.000 -0.000
 H          0.007  0.006  0.005    0.000  0.000  0.000    0.001  0.000  0.000
 H         -0.001  0.001 -0.001    0.000 -0.000  0.000    0.001 -0.000  0.000
 H          0.000 -0.001  0.000   -0.000  0.000  0.000    0.000 -0.000 -0.000
 H         -0.003 -0.002 -0.001   -0.000 -0.000 -0.000   -0.000 -0.001 -0.000
 H          0.005 -0.002  0.003   -0.000 -0.000 -0.000   -0.003  0.003 -0.002
 H          0.399 -0.236  0.283    0.001  0.003  0.004   -0.000  0.000  0.001
 O          0.002  0.001  0.001   -0.047 -0.032 -0.026   -0.003 -0.002 -0.002
 H          0.622  0.478  0.280    0.013  0.010  0.009    0.001  0.001  0.001
 H         -0.020 -0.004 -0.002    0.752  0.507  0.412    0.045  0.030  0.025
 O          0.000  0.000  0.000    0.003 -0.001  0.002   -0.045  0.018 -0.038
 H          0.001 -0.001 -0.001   -0.043  0.017 -0.037    0.728 -0.283  0.619
 TransDip  -0.116 -0.023 -0.080    0.162  0.208  0.258    0.288 -0.222  0.199

 STANDARD THERMODYNAMIC QUANTITIES AT   298.15 K  AND     1.00 ATM

   This Molecule has  1 Imaginary Frequencies
   Zero point vibrational energy:       90.468 kcal/mol

   Atom    1 Element C  Has Mass   12.00000
   Atom    2 Element C  Has Mass   12.00000
   Atom    3 Element C  Has Mass   12.00000
   Atom    4 Element C  Has Mass   12.00000
   Atom    5 Element C  Has Mass   12.00000
   Atom    6 Element C  Has Mass   12.00000
   Atom    7 Element C  Has Mass   12.00000
   Atom    8 Element H  Has Mass    1.00783
   Atom    9 Element H  Has Mass    1.00783
   Atom   10 Element H  Has Mass    1.00783
   Atom   11 Element H  Has Mass    1.00783
   Atom   12 Element H  Has Mass    1.00783
   Atom   13 Element H  Has Mass    1.00783
   Atom   14 Element O  Has Mass   15.99491
   Atom   15 Element H  Has Mass    1.00783
   Atom   16 Element H  Has Mass    1.00783
   Atom   17 Element O  Has Mass   15.99491
   Atom   18 Element H  Has Mass    1.00783
   Molecular Mass:   125.060290 amu
   Principal axes and moments of inertia in amu*Bohr^2:
                             1           2           3
    Eigenvalues --      880.18320  1128.31697  1351.51516
          X               0.08274    -0.46646     0.88066
          Y               0.91468     0.38635     0.11871
          Z              -0.39562     0.79570     0.45863
   Rotational Symmetry Number is   1
   The Molecule is an Asymmetric Top
   Translational Enthalpy:        0.889 kcal/mol
   Rotational Enthalpy:           0.889 kcal/mol
   Vibrational Enthalpy:         94.177 kcal/mol
   gas constant (RT):             0.592 kcal/mol
   Translational Entropy:        40.384  cal/mol.K
   Rotational Entropy:           28.686  cal/mol.K
   Vibrational Entropy:          20.968  cal/mol.K

   Total Enthalpy:               96.547 kcal/mol
   Total Entropy:                90.038  cal/mol.K
 Total job time:  33675.79s(wall), 259238.57s(cpu) 
 Sat Feb  4 00:35:05 2023

        *************************************************************
        *                                                           *
        *  Thank you very much for using Q-Chem.  Have a nice day.  *
        *                                                           *
        *************************************************************


