
Running Job 1 of 2 Q_in.in
qchem Q_in.in_438065.0 /scratch/ari.fischer/qChem1423098.hpc-mn1/qchem438065/ 0
/usr/local/qchem-5.4.1/exe/qcprog.exe_s Q_in.in_438065.0 /scratch/ari.fischer/qChem1423098.hpc-mn1/qchem438065/
                  Welcome to Q-Chem
     A Quantum Leap Into The Future Of Chemistry


 Q-Chem 5.4, Q-Chem, Inc., Pleasanton, CA (2021)

 License issued to: Nanyang Technological University (site)

 E. Epifanovsky,  A. T. B. Gilbert,  Xintian Feng,  Joonho Lee,  Yuezhi Mao,  
 N. Mardirossian,  P. Pokhilko,  A. White,  M. Wormit,  M. P. Coons,  
 A. L. Dempwolff,  Zhengting Gan,  D. Hait,  P. R. Horn,  L. D. Jacobson,  
 I. Kaliman,  J. Kussmann,  A. W. Lange,  Ka Un Lao,  D. S. Levine,  Jie Liu,  
 S. C. McKenzie,  A. F. Morrison,  K. Nanda,  F. Plasser,  D. R. Rehn,  
 M. L. Vidal,  Zhi-Qiang You,  Ying Zhu,  B. Alam,  B. Albrecht,  
 A. Aldossary,  E. Alguire,  J. H. Andersen,  D. Barton,  K. Begam,  A. Behn,  
 Y. A. Bernard,  E. J. Berquist,  H. Burton,  A. Carreras,  K. Carter-Fenk,  
 R. Chakraborty,  A. D. Chien,  K. D. Closser,  V. Cofer-Shabica,  
 S. Dasgupta,  Jia Deng,  M. de Wergifosse,  M. Diedenhofen,  Hainam Do,  
 S. Ehlert,  Po-Tung Fang,  S. Fatehi,  Qingguo Feng,  T. Friedhoff,  
 J. Gayvert,  Qinghui Ge,  G. Gidofalvi,  M. Goldey,  J. Gomes,  
 C. Gonzalez-Espinoza,  S. Gulania,  A. Gunina,  M. W. D. Hanson-Heine,  
 P. H. P. Harbach,  A. W. Hauser,  M. F. Herbst,  M. Hernandez Vera,  
 M. Hodecker,  Z. C. Holden,  S. Houck,  Xunkun Huang,  Kerwin Hui,  
 B. C. Huynh,  M. Ivanov,  Hyunjun Ji,  Hanjie Jiang,  B. Kaduk,  S. Kaehler,  
 K. Khistyaev,  Jaehoon Kim,  P. Klunzinger,  Z. Koczor-Benda,  
 Joong Hoon Koh,  D. Kosenkov,  L. Koulias,  T. Kowalczyk,  C. M. Krauter,  
 K. Kue,  A. Kunitsa,  T. Kus,  A. Landau,  K. V. Lawler,  D. Lefrancois,  
 S. Lehtola,  Rain Li,  Yi-Pei Li,  Jiashu Liang,  M. Liebenthal,  
 Hung-Hsuan Lin,  You-Sheng Lin,  Fenglai Liu,  Kuan-Yu Liu,  
 M. Loipersberger,  A. Luenser,  A. Manjanath,  P. Manohar,  E. Mansoor,  
 S. F. Manzer,  Shan-Ping Mao,  A. V. Marenich,  T. Markovich,  S. Mason,  
 S. A. Maurer,  P. F. McLaughlin,  M. F. S. J. Menger,  J.-M. Mewes,  
 S. A. Mewes,  P. Morgante,  J. W. Mullinax,  K. J. Oosterbaan,  G. Paran,  
 Alexander C. Paul,  Suranjan K. Paul,  F. Pavosevic,  Zheng Pei,  S. Prager,  
 E. I. Proynov,  E. Ramos,  B. Rana,  A. E. Rask,  A. Rettig,  R. M. Richard,  
 F. Rob,  E. Rossomme,  T. Scheele,  M. Scheurer,  M. Schneider,  
 N. Sergueev,  S. M. Sharada,  W. Skomorowski,  D. W. Small,  C. J. Stein,  
 Yu-Chuan Su,  E. J. Sundstrom,  Zhen Tao,  J. Thirman,  T. Tsuchimochi,  
 N. M. Tubman,  S. P. Veccham,  O. Vydrov,  J. Wenzel,  J. Witte,  A. Yamada,  
 Kun Yao,  S. Yeganeh,  S. R. Yost,  A. Zech,  Igor Ying Zhang,  Xing Zhang,  
 Yu Zhang,  D. Zuev,  A. Aspuru-Guzik,  A. T. Bell,  N. A. Besley,  
 K. B. Bravaya,  B. R. Brooks,  D. Casanova,  Jeng-Da Chai,  S. Coriani,  
 C. J. Cramer,  A. E. DePrince, III,  R. A. DiStasio Jr.,  A. Dreuw,  
 B. D. Dunietz,  T. R. Furlani,  W. A. Goddard III,  S. Grimme,  
 S. Hammes-Schiffer,  T. Head-Gordon,  W. J. Hehre,  Chao-Ping Hsu,  
 T.-C. Jagau,  Yousung Jung,  A. Klamt,  Jing Kong,  D. S. Lambrecht,  
 WanZhen Liang,  N. J. Mayhall,  C. W. McCurdy,  J. B. Neaton,  
 C. Ochsenfeld,  J. A. Parkhill,  R. Peverati,  V. A. Rassolov,  Yihan Shao,  
 L. V. Slipchenko,  T. Stauch,  R. P. Steele,  J. E. Subotnik,  
 A. J. W. Thom,  A. Tkatchenko,  D. G. Truhlar,  T. Van Voorhis,  
 T. A. Wesolowski,  K. B. Whaley,  H. L. Woodcock III,  P. M. Zimmerman,  
 S. Faraji,  P. M. W. Gill,  M. Head-Gordon,  J. M. Herbert,  A. I. Krylov

 Additional authors for Version 5.4.1: 
 S. Kotaru,  Shaozhi Li,  Xiangyuan Li,  F. Matz,  A. Molle,  Haisheng Ren,  
 Yingli Su,  Hung-Yi Tsai,  C. Utku,  Fang Wang

 Contributors to earlier versions of Q-Chem not listed above: 
 R. D. Adamson,  B. Austin,  R. Baer,  J. Baker,  G. J. O. Beran,  
 K. Brandhorst,  S. T. Brown,  E. F. C. Byrd,  A. K. Chakraborty,  
 G. K. L. Chan,  Chun-Min Chang,  Yunqing Chen,  C.-L. Cheng,  
 Siu Hung Chien,  D. M. Chipman,  D. L. Crittenden,  H. Dachsel,  
 R. J. Doerksen,  A. D. Dutoi,  R. G. Edgar,  J. Fosso-Tande,  
 L. Fusti-Molnar,  D. Ghosh,  A. Ghysels,  A. Golubeva-Zadorozhnaya,  
 J. Gonthier,  M. S. Gordon,  S. R. Gwaltney,  G. Hawkins,  J. E. Herr,  
 A. Heyden,  S. Hirata,  E. G. Hohenstein,  G. Kedziora,  F. J. Keil,  
 C. Kelley,  Jihan Kim,  R. A. King,  R. Z. Khaliullin,  P. P. Korambath,  
 W. Kurlancheek,  A. Laurent,  A. M. Lee,  M. S. Lee,  S. V. Levchenko,  
 Ching Yeh Lin,  D. Liotard,  E. Livshits,  R. C. Lochan,  I. Lotan,  
 L. A. Martinez-Martinez,  P. E. Maslen,  N. Nair,  D. P. O'Neill,  
 D. Neuhauser,  E. Neuscamman,  C. M. Oana,  R. Olivares-Amaya,  R. Olson,  
 T. M. Perrine,  B. Peters,  P. A. Pieniazek,  A. Prociuk,  Y. M. Rhee,  
 J. Ritchie,  M. A. Rohrdanz,  E. Rosta,  N. J. Russ,  H. F. Schaefer III,  
 M. W. Schmidt,  N. E. Schultz,  S. Sharma,  N. Shenvi,  C. D. Sherrill,  
 A. C. Simmonett,  A. Sodt,  T. Stein,  D. Stuck,  K. S. Thanthiriwatte,  
 V. Vanovschi,  L. Vogt,  Tao Wang,  A. Warshel,  M. A. Watson,  
 C. F. Williams,  Q. Wu,  X. Xu,  Jun Yang,  W. Zhang,  Yan Zhao

 Please cite Q-Chem as follows:
 Y. Shao et al., Mol. Phys. 113, 184-215 (2015)
 DOI: 10.1080/00268976.2014.952696

 Q-Chem 5.4.1 for Intel X86 EM64T Linux

 Parts of Q-Chem use Armadillo 9.800.1 (Horizon Scraper).
 http://arma.sourceforge.net/

 Q-Chem begins on Fri Jan 27 15:20:03 2023  

 Host: 
0

     Scratch files written to /scratch/ari.fischer/qChem1423098.hpc-mn1/qchem438065//
 Aug1521 |scratch|qcdevops|jenkins|workspace|build_RNUM 8249   
 Processing $rem in /usr/local/qchem-5.4.1/config/preferences:
 Processing $rem in /home/ari.fischer/.qchemrc:
 Now reading second FSM geometry
 Symmetry turned off for PCM/SM12/SMD calculation

 Checking the input file for inconsistencies... 	...done.

--------------------------------------------------------------
User input:
--------------------------------------------------------------
$molecule
0 2
C        -0.3078310227   -0.1644196543    0.8268813898
C        -0.4614953476   -1.4475241448    1.2368322324
C        -1.6342088633   -2.1764041516    0.9313925925
C        -2.6831758041   -1.5459870036    0.2222149615
C        -2.5761197590   -0.2619514340   -0.1983901968
C        -1.3411895213    0.5530839377    0.0102954824
C        -0.7705979294    0.9417319298   -1.3678783904
H         0.5877298026    0.3929082172    1.0755982680
H         0.3194227059   -1.9229921808    1.8159840550
H        -1.7405915389   -3.1993800117    1.2616018488
H        -3.5920840748   -2.0992055524    0.0243966821
H        -3.3853628211    0.2227058277   -0.7303132190
H        -0.4141564047    0.0502950539   -1.8856057985
O         0.2602172607    1.9156834194   -1.2505439927
H        -1.5657596448    1.4003337908   -1.9543855575
H         1.0629493795    1.4816124218   -0.9419391430
O        -1.7283520013    1.7771363819    0.6750258395
H        -1.0042368153    2.4033961530    0.5360118459
****
C    0.0653276    0.4726431    1.5038380
C    0.1824204   -0.9073444    1.5692109
C   -0.7238511   -1.7282507    0.9070677
C   -1.7566848   -1.1527492    0.1763433
C   -1.8855817    0.2295823    0.1028568
C   -0.9707275    1.0354721    0.7694293
C    0.7478080    0.8772265   -2.2380580
H    0.7685018    1.1192853    2.0111200
H    0.9911596   -1.3445362    2.1391571
H   -0.6250941   -2.8034714    0.9573431
H   -2.4677426   -1.7793199   -0.3450248
H   -2.6852968    0.6844155   -0.4681950
H   -0.1653208    1.4290388   -2.0693307
O    0.7803205   -0.4497109   -1.9038578
H    1.4781553    1.1659322   -2.9765045
H    0.0403010   -0.6504106   -1.3136108
O   -1.0453926    2.4053276    0.7246017
H   -1.7907241    2.6689028    0.1716630
$end

$rem
BASIS = 6-311++G(2df,2p)
GUI = 2
JOB_TYPE = FSM
FSM_MODE = 2
METHOD = wB97M-v
MAX_SCF_CYCLES = 120
FSM_NGRAD = 6
FSM_NNODE = 20
SCF_CONVERGENCE = 7
THRESH = 12
SCF_ALGORITHM = DIIS_GDM
UNRESTRICTED = 1
solvent_method = SMD
$end

--------------------------------------------------------------
 ----------------------------------------------------------------
             Standard Nuclear Orientation (Angstroms)
    I     Atom           X                Y                Z
 ----------------------------------------------------------------
    1      C      -0.3078310227    -0.1644196543     0.8268813898
    2      C      -0.4614953476    -1.4475241448     1.2368322324
    3      C      -1.6342088633    -2.1764041516     0.9313925925
    4      C      -2.6831758041    -1.5459870036     0.2222149615
    5      C      -2.5761197590    -0.2619514340    -0.1983901968
    6      C      -1.3411895213     0.5530839377     0.0102954824
    7      C      -0.7705979294     0.9417319298    -1.3678783904
    8      H       0.5877298026     0.3929082172     1.0755982680
    9      H       0.3194227059    -1.9229921808     1.8159840550
   10      H      -1.7405915389    -3.1993800117     1.2616018488
   11      H      -3.5920840748    -2.0992055524     0.0243966821
   12      H      -3.3853628211     0.2227058277    -0.7303132190
   13      H      -0.4141564047     0.0502950539    -1.8856057985
   14      O       0.2602172607     1.9156834194    -1.2505439927
   15      H      -1.5657596448     1.4003337908    -1.9543855575
   16      H       1.0629493795     1.4816124218    -0.9419391430
   17      O      -1.7283520013     1.7771363819     0.6750258395
   18      H      -1.0042368153     2.4033961530     0.5360118459
 ----------------------------------------------------------------
 Nuclear Repulsion Energy =         447.25157844 hartrees
 There are       34 alpha and       33 beta electrons
 Requested basis set is 6-311++G(2df,2p)
 There are 126 shells and 396 basis functions

 Total QAlloc Memory Limit 288000 MB
 Mega-Array Size       188 MB
 MEM_STATIC part       192 MB
 beginning FSman 

*******************************************
*******************************************
******** Starting FSM Calculation *********
*******************************************
*******************************************
-FSM parameters:
 Maximum displacement of each coordinate during optimization (Angstrom)      0.05
 Maximum optimization steps for each new node                                6
 The scaling factor for optimization (hartrees/Angstrom^2)                   1.75
 The number of LST interpolations used for reparameterization                100
-Aligning product structure to maximum coincidence with the reactant structure
 Total R --> P Distance 5.482833
 New node interpolation distace (Angstroms): 0.27
-Performing force calculation on reactant structure in state:0
 ----------------------------------------------------------------
             Standard Nuclear Orientation (Angstroms)
    I     Atom           X                Y                Z
 ----------------------------------------------------------------
    1      C      -0.3078310227    -0.1644196543     0.8268813898
    2      C      -0.4614953476    -1.4475241448     1.2368322324
    3      C      -1.6342088633    -2.1764041516     0.9313925925
    4      C      -2.6831758041    -1.5459870036     0.2222149615
    5      C      -2.5761197590    -0.2619514340    -0.1983901968
    6      C      -1.3411895213     0.5530839377     0.0102954824
    7      C      -0.7705979294     0.9417319298    -1.3678783904
    8      H       0.5877298026     0.3929082172     1.0755982680
    9      H       0.3194227059    -1.9229921808     1.8159840550
   10      H      -1.7405915389    -3.1993800117     1.2616018488
   11      H      -3.5920840748    -2.0992055524     0.0243966821
   12      H      -3.3853628211     0.2227058277    -0.7303132190
   13      H      -0.4141564047     0.0502950539    -1.8856057985
   14      O       0.2602172607     1.9156834194    -1.2505439927
   15      H      -1.5657596448     1.4003337908    -1.9543855575
   16      H       1.0629493795     1.4816124218    -0.9419391430
   17      O      -1.7283520013     1.7771363819     0.6750258395
   18      H      -1.0042368153     2.4033961530     0.5360118459
 ----------------------------------------------------------------
 Nuclear Repulsion Energy =         447.25157844 hartrees
 There are       34 alpha and       33 beta electrons
 
 Citation of the SMD model:
 Marenich, A.V.; Cramer, C.J.; Truhlar, D.G.
 J. Phys. Chem. B 2009, 113, 6378-6396.
 iSolventCode=           1
 Solvent: water                                                           
 
 vradii
            1           2           3           4           5           6
    1   1.8500000   1.8500000   1.8500000   1.8500000   1.8500000   1.8500000
            7           8           9          10          11          12
    1   1.8500000   1.2000000   1.2000000   1.2000000   1.2000000   1.2000000
           13          14          15          16          17          18
    1   1.2000000   1.5200000   1.2000000   1.2000000   1.5200000   1.2000000
 Changing PCM_VDW_RADII to SMD_RADIUS
 Discretize the solute cavity surface with Lebedev spheres
	Using 110 Lebedev grid points for each H atom
	Using 194 Lebedev grid points for other atoms
	Atomic van der Waals radii will be scaled by 1.20
 Remove points where switching function is < 1.0e-08
 Keep 1306 surface tesserae and discard 1430 interior tesserae
 Molecular Surface Area = 151.693 Angst**2
 Requested basis set is 6-311++G(2df,2p)
 There are 126 shells and 396 basis functions
 A cutoff of  1.0D-12 yielded   7366 shell pairs
 There are     73534 function pairs (     91283 Cartesian)
 Smallest overlap matrix eigenvalue = 7.47E-07
 Linear dependence detected in AO basis
 Tighter screening thresholds may be required for diffuse basis sets
 Use S2THRESH > 14 and THRESH = 14 in case of SCF convergence issues
 Number of orthogonalized atomic orbitals = 395
 Maximum deviation from orthogonality = 4.257E-11

 Scale SEOQF with 1.000000e-01/1.000000e-01/1.000000e-01

 Standard Electronic Orientation quadrupole field applied
 Nucleus-field energy     =     0.0000000100 hartrees
 Guess from superposition of atomic densities
 Warning:  Energy on first SCF cycle will be non-variational
 SAD guess density has 67.000000 electrons

 -----------------------------------------------------------------------
  General SCF calculation program by
  Eric Jon Sundstrom, Paul Horn, Yuezhi Mao, Dmitri Zuev, Alec White,
  David Stuck, Shaama M.S., Shane Yost, Joonho Lee, David Small,
  Daniel Levine, Susi Lehtola, Hugh Burton, Evgeny Epifanovsky,
  Bang C. Huynh
 -----------------------------------------------------------------------
 Exchange:     0.1500 Hartree-Fock + 1.0000 wB97M-V + LR-HF
 Correlation:  1.0000 wB97M-V
 Using SG-2 standard quadrature grid
 Nonlocal Correlation:  VV10 with C = 0.0100 and b = 6.00 and scale = 1.00000
 Grid used for NLC:  SG-1 standard quadrature
 
 Citation of the SMD model:
 Marenich, A.V.; Cramer, C.J.; Truhlar, D.G.
 J. Phys. Chem. B 2009, 113, 6378-6396.
 iSolventCode=           1
 Solvent: water                                                           
 
 vradii
            1           2           3           4           5           6
    1   1.8500000   1.8500000   1.8500000   1.8500000   1.8500000   1.8500000
            7           8           9          10          11          12
    1   1.8500000   1.2000000   1.2000000   1.2000000   1.2000000   1.2000000
           13          14          15          16          17          18
    1   1.2000000   1.5200000   1.2000000   1.2000000   1.5200000   1.2000000
 using 8 threads for integral computing
 -------------------------------------------------------
 OpenMP Integral computing Module                
 Release: version 1.0, May 2013, Q-Chem Inc. Pittsburgh 
 -------------------------------------------------------
 -------------------------------------------------------
 OpenMP BLAS3 based DFT computing Module                
 Release: version 1.0, May 2013, Q-Chem Inc. Pittsburgh 
 -------------------------------------------------------
 A unrestricted SCF calculation will be
 performed using DIIS, GDM
 SCF converges when RMS gradient is below 1.0e-07
 ---------------------------------------
  Cycle       Energy         DIIS error
 ---------------------------------------
    1    -425.1294200492      1.28e-02  
    2    -422.4305909129      1.21e-03  Done DIIS. Switching to GDM
 ---------------------------------------
  Cycle       Energy        RMS Gradient
 ---------------------------------------
    1    -422.4305909129      3.44e-02   Descent step
    2    -422.5220811176      1.76e-02   Normal BFGS step
    3    -422.5341382078      8.99e-03   Normal BFGS step
    4    -422.5360521523      5.85e-03   Normal BFGS step
    5    -422.5365276771      4.05e-03   Normal BFGS step
    6    -422.5366792024      1.12e-03   Normal BFGS step
    7    -422.5366952499      5.66e-04   Normal BFGS step
    8    -422.5367005978      3.74e-04   Normal BFGS step
    9    -422.5367013695      2.82e-04   Normal BFGS step
   10    -422.5367017276      8.07e-05   Normal BFGS step
   11    -422.5367018040      3.58e-05   Normal BFGS step
   12    -422.5367018137      1.66e-05   Normal BFGS step
   13    -422.5367018161      4.25e-06   Normal BFGS step
   14    -422.5367018163      2.82e-06   Normal BFGS step
   15    -422.5367018163      2.26e-06   Normal BFGS step
   16    -422.5367018163      1.04e-06   Normal BFGS step
   17    -422.5367018163      4.38e-07   Normal BFGS step
   18    -422.5367018163      1.59e-07   Normal BFGS step
   19    -422.5367018164      3.98e-08  Convergence criterion met
 ---------------------------------------
 SCF time:   CPU 2092.92s  wall 266.00s 
<S^2> =          0.788752974
(3)  G-ENP(liq) elect-nuc-pol free energy of system     -422.536701816 a.u.
(4)  G-CDS(liq) cavity-dispersion-solvent structure 
     free energy                                                3.5127 kcal/mol
(6)  G-S(liq) free energy of system                     -422.531104050 a.u.
 SCF   energy in the final basis set =     -422.5311040495
 Total energy in the final basis set =     -422.5311040495
 
 --------------------------------------------------------------
 
                    Orbital Energies (a.u.)
 --------------------------------------------------------------
 
 Alpha MOs
 -- Occupied --
-19.3436 -19.3375 -10.4068 -10.3873 -10.3521 -10.3479 -10.3475 -10.3439
-10.3429  -1.1731  -1.1461  -0.9772  -0.8835  -0.8765  -0.7987  -0.7230
 -0.7209  -0.6372  -0.6308  -0.6067  -0.5843  -0.5776  -0.5290  -0.5282
 -0.5240  -0.4845  -0.4682  -0.4635  -0.4420  -0.4382  -0.4103  -0.3869
 -0.3627  -0.2704
 -- Virtual --
  0.0253   0.0349   0.0371   0.0481   0.0543   0.0561   0.0639   0.0730
  0.0791   0.0872   0.1036   0.1133   0.1229   0.1298   0.1416   0.1427
  0.1470   0.1523   0.1548   0.1607   0.1620   0.1648   0.1708   0.1764
  0.1796   0.1877   0.1947   0.2051   0.2062   0.2160   0.2164   0.2195
  0.2204   0.2292   0.2491   0.2523   0.2547   0.2723   0.2770   0.2822
  0.2972   0.3048   0.3118   0.3233   0.3293   0.3355   0.3364   0.3412
  0.3520   0.3590   0.3644   0.3802   0.3871   0.3944   0.3965   0.4138
  0.4206   0.4289   0.4422   0.4623   0.4630   0.4824   0.5258   0.5376
  0.5520   0.5677   0.5878   0.5906   0.5970   0.6018   0.6051   0.6136
  0.6274   0.6317   0.6342   0.6517   0.6561   0.6735   0.6880   0.6967
  0.6977   0.7060   0.7208   0.7232   0.7272   0.7376   0.7417   0.7513
  0.7618   0.7673   0.7811   0.7901   0.8003   0.8223   0.8324   0.8381
  0.8488   0.8575   0.8628   0.8716   0.8856   0.9029   0.9035   0.9189
  0.9619   1.0061   1.0126   1.0282   1.0326   1.0529   1.0760   1.1051
  1.1085   1.1193   1.1265   1.1460   1.1511   1.1598   1.1827   1.1962
  1.2106   1.2195   1.2316   1.2379   1.2622   1.2696   1.2894   1.2963
  1.2988   1.3204   1.3523   1.3695   1.3719   1.3814   1.3949   1.4028
  1.4164   1.4208   1.4276   1.4415   1.4528   1.4765   1.4886   1.4911
  1.5074   1.5133   1.5349   1.5414   1.5540   1.5615   1.5803   1.5837
  1.6035   1.6194   1.6321   1.6699   1.6893   1.7189   1.7222   1.7637
  1.7789   1.8029   1.8275   1.8537   1.8671   1.9082   1.9635   1.9914
  2.0011   2.0566   2.0915   2.0966   2.1093   2.1391   2.2094   2.2558
  2.3228   2.3810   2.4248   2.4423   2.4677   2.5769   2.5943   2.6336
  2.6483   2.6651   2.6901   2.7396   2.7631   2.7803   2.8023   2.8059
  2.8184   2.8293   2.8428   2.8548   2.8693   2.8857   2.8864   2.9067
  2.9213   2.9356   2.9438   2.9602   2.9820   2.9904   2.9988   3.0299
  3.0507   3.0782   3.0873   3.1305   3.1584   3.1873   3.1894   3.2062
  3.2109   3.2329   3.2348   3.2619   3.2727   3.2774   3.2969   3.3145
  3.3218   3.3366   3.3645   3.3855   3.4133   3.4350   3.4418   3.4541
  3.4786   3.4794   3.4907   3.4944   3.5007   3.5216   3.5449   3.5563
  3.5890   3.5962   3.6440   3.6582   3.6677   3.6715   3.7085   3.7265
  3.7343   3.7512   3.7898   3.8014   3.8166   3.8449   3.8530   3.8557
  3.8734   3.8803   3.8993   3.9240   3.9260   3.9447   3.9680   3.9876
  3.9996   4.0088   4.0270   4.0615   4.0831   4.1094   4.1309   4.1619
  4.1676   4.1831   4.1994   4.2130   4.2245   4.2549   4.2571   4.2728
  4.3193   4.3373   4.3431   4.3673   4.3935   4.4249   4.4449   4.4651
  4.4797   4.4879   4.4950   4.5088   4.5341   4.5428   4.5919   4.6318
  4.6537   4.6578   4.6657   4.7045   4.7225   4.7299   4.7893   4.8217
  4.9014   4.9933   5.0486   5.1301   5.1554   5.1601   5.2173   5.2458
  5.2775   5.3157   5.3172   5.3651   5.3896   5.3983   5.4617   5.4843
  5.4967   5.5703   5.5837   5.6017   5.6417   5.6784   5.6970   5.7248
  5.7715   5.7799   5.8474   5.8786   5.9223   5.9556   6.0155   6.0675
  6.1843   6.4525   6.5869   6.6489   7.1196   7.1610   7.2908   7.3189
  7.3389   7.3785   7.4263   7.4984   7.6617   7.6866   7.7921   7.8472
 24.2497  24.6246  24.6958  24.8147  24.8727  25.0983  25.4008  50.6021
 50.6693
 
 Beta MOs
 -- Occupied --
-19.3434 -19.3361 -10.4075 -10.3861 -10.3465 -10.3455 -10.3444 -10.3425
-10.3421  -1.1715  -1.1442  -0.9705  -0.8770  -0.8709  -0.7901  -0.7180
 -0.7152  -0.6336  -0.6275  -0.6044  -0.5783  -0.5741  -0.5264  -0.5254
 -0.5210  -0.4784  -0.4637  -0.4519  -0.4359  -0.4276  -0.4047  -0.3790
 -0.3469
 -- Virtual --
 -0.0234   0.0250   0.0346   0.0368   0.0482   0.0543   0.0559   0.0711
  0.0761   0.0839   0.0876   0.1032   0.1132   0.1221   0.1322   0.1423
  0.1440   0.1462   0.1541   0.1558   0.1607   0.1621   0.1661   0.1708
  0.1767   0.1795   0.1890   0.1984   0.2047   0.2074   0.2161   0.2162
  0.2200   0.2269   0.2301   0.2488   0.2525   0.2538   0.2725   0.2775
  0.2826   0.2982   0.3077   0.3148   0.3247   0.3322   0.3383   0.3406
  0.3421   0.3539   0.3600   0.3664   0.3813   0.3876   0.3955   0.3992
  0.4158   0.4228   0.4303   0.4431   0.4634   0.4653   0.4833   0.5272
  0.5396   0.5548   0.5734   0.5911   0.5945   0.5996   0.6067   0.6093
  0.6174   0.6296   0.6329   0.6385   0.6546   0.6600   0.6769   0.6913
  0.7001   0.7013   0.7097   0.7242   0.7277   0.7296   0.7401   0.7478
  0.7561   0.7633   0.7700   0.7840   0.7946   0.8028   0.8256   0.8361
  0.8374   0.8536   0.8619   0.8668   0.8748   0.8904   0.9069   0.9074
  0.9202   0.9636   1.0083   1.0143   1.0304   1.0346   1.0534   1.0781
  1.1062   1.1103   1.1203   1.1275   1.1479   1.1531   1.1624   1.1860
  1.1997   1.2116   1.2195   1.2327   1.2389   1.2641   1.2712   1.2919
  1.2975   1.3007   1.3233   1.3546   1.3712   1.3768   1.3848   1.3975
  1.4075   1.4191   1.4255   1.4322   1.4448   1.4566   1.4793   1.4902
  1.4964   1.5100   1.5152   1.5390   1.5456   1.5568   1.5678   1.5845
  1.5872   1.6057   1.6214   1.6343   1.6729   1.6912   1.7231   1.7261
  1.7675   1.7837   1.8072   1.8358   1.8592   1.8704   1.9125   1.9677
  1.9947   2.0045   2.0640   2.0952   2.1012   2.1116   2.1423   2.2111
  2.2592   2.3247   2.3822   2.4265   2.4434   2.4695   2.5851   2.6008
  2.6462   2.6561   2.6700   2.6995   2.7489   2.7674   2.7937   2.8118
  2.8192   2.8281   2.8357   2.8496   2.8637   2.8802   2.8974   2.8999
  2.9163   2.9365   2.9541   2.9609   2.9697   2.9989   2.9996   3.0146
  3.0510   3.0645   3.0918   3.1048   3.1389   3.1666   3.1951   3.1987
  3.2129   3.2181   3.2415   3.2426   3.2727   3.2818   3.2867   3.3009
  3.3191   3.3322   3.3475   3.3809   3.3958   3.4222   3.4419   3.4515
  3.4593   3.4864   3.4887   3.5011   3.5036   3.5118   3.5330   3.5530
  3.5690   3.6022   3.6083   3.6548   3.6727   3.6781   3.6835   3.7132
  3.7359   3.7430   3.7633   3.7990   3.8088   3.8241   3.8506   3.8611
  3.8634   3.8817   3.8898   3.9072   3.9319   3.9335   3.9562   3.9779
  3.9952   4.0094   4.0185   4.0367   4.0690   4.0917   4.1171   4.1365
  4.1680   4.1746   4.1891   4.2035   4.2219   4.2318   4.2603   4.2629
  4.2802   4.3252   4.3467   4.3491   4.3748   4.3989   4.4300   4.4504
  4.4770   4.4889   4.4966   4.5043   4.5185   4.5424   4.5535   4.6014
  4.6419   4.6606   4.6707   4.6796   4.7134   4.7345   4.7402   4.7987
  4.8318   4.9116   5.0083   5.0617   5.1397   5.1680   5.1713   5.2296
  5.2551   5.2795   5.3169   5.3192   5.3697   5.3935   5.4061   5.4672
  5.4866   5.5017   5.5780   5.5873   5.6058   5.6500   5.6800   5.7048
  5.7275   5.7796   5.7824   5.8646   5.8915   5.9266   5.9632   6.0191
  6.0693   6.1978   6.4627   6.5904   6.6503   7.1205   7.1633   7.2929
  7.3194   7.3403   7.3803   7.4296   7.5014   7.6627   7.6899   7.7931
  7.8515  24.2516  24.6264  24.6967  24.8179  24.8756  25.0999  25.4034
 50.6026  50.6703
 --------------------------------------------------------------
 
          Ground-State Mulliken Net Atomic Charges

     Atom                 Charge (a.u.)    Spin (a.u.)
  --------------------------------------------------------
      1 C                    -0.145024       0.383984
      2 C                    -0.391335      -0.156083
      3 C                    -0.459639       0.529335
      4 C                    -0.311699      -0.153112
      5 C                    -0.171677       0.377003
      6 C                     0.200000      -0.023630
      7 C                    -0.498852       0.026618
      8 H                     0.278717      -0.008156
      9 H                     0.293440       0.004638
     10 H                     0.283922      -0.009276
     11 H                     0.294420       0.004731
     12 H                     0.297385      -0.007708
     13 H                     0.224598       0.002901
     14 O                    -0.422157       0.006535
     15 H                     0.240763       0.002036
     16 H                     0.334558      -0.000403
     17 O                    -0.399746       0.018747
     18 H                     0.352326       0.001839
  --------------------------------------------------------
  Sum of atomic charges =     0.000000
  Sum of spin   charges =     1.000000

 -----------------------------------------------------------------
                    Cartesian Multipole Moments
 -----------------------------------------------------------------
    Charge (ESU x 10^10)
                 0.0000
    Dipole Moment (Debye)
         X       2.4056      Y      -2.8211      Z      -0.9280
       Tot       3.8219
    Quadrupole Moments (Debye-Ang)
        XX     -53.8961     XY       6.7418     YY     -55.9497
        XZ       6.3214     YZ      -1.0719     ZZ     -57.6303
    Octopole Moments (Debye-Ang^2)
       XXX     201.1540    XXY     -14.0770    XYY      65.3914
       YYY     -16.9992    XXZ     -21.3085    XYZ       8.7538
       YYZ      10.5195    XZZ      73.0562    YZZ      -6.2167
       ZZZ     -19.9742
    Hexadecapole Moments (Debye-Ang^3)
      XXXX    -871.0234   XXXY     -33.2379   XXYY    -266.8462
      XYYY     -59.3028   YYYY    -713.9977   XXXZ      80.5097
      XXYZ      22.9284   XYYZ      18.8763   YYYZ     129.5337
      XXZZ    -222.5354   XYZZ     -38.6683   YYZZ    -193.0078
      XZZZ      59.3759   YZZZ     132.1838   ZZZZ    -373.5775
 -----------------------------------------------------------------
 Calculating analytic gradient of the SCF energy
 Gradient of CDS energy
            1           2           3           4           5           6
    1   0.0001339   0.0003998  -0.0000483  -0.0004297  -0.0002270   0.0000063
    2   0.0002202  -0.0001082  -0.0005539  -0.0001489   0.0001992   0.0002170
    3   0.0001695   0.0002372   0.0001597  -0.0001443   0.0000108  -0.0000188
            7           8           9          10          11          12
    1   0.0001699   0.0000634   0.0001507  -0.0000198  -0.0001753  -0.0000927
    2   0.0001555   0.0000659  -0.0000917  -0.0001904  -0.0001067   0.0001745
    3  -0.0010089   0.0000048   0.0001117   0.0000615  -0.0000382  -0.0001141
           13          14          15          16          17          18
    1   0.0000407  -0.0002317  -0.0002177   0.0004819  -0.0000434   0.0000392
    2  -0.0002198  -0.0001013   0.0001388   0.0001606  -0.0002730   0.0004623
    3   0.0001953   0.0001995   0.0001700  -0.0000707  -0.0001176   0.0001926
 Gradient of SCF Energy
            1           2           3           4           5           6
    1  -0.0085729  -0.0041578  -0.0007945   0.0045154   0.0041843  -0.0036744
    2  -0.0030013  -0.0014643   0.0077409   0.0023271  -0.0022575   0.0021422
    3  -0.0035606  -0.0012600  -0.0015139   0.0002051   0.0018266  -0.0005867
            7           8           9          10          11          12
    1   0.0023191   0.0089923   0.0051944  -0.0005229  -0.0039515  -0.0013334
    2   0.0040947   0.0050177  -0.0031015  -0.0060813  -0.0029718   0.0002980
    3   0.0077049   0.0006565   0.0033182   0.0018405  -0.0010287  -0.0021962
           13          14          15          16          17          18
    1   0.0033592  -0.0133245  -0.0031600   0.0124400  -0.0075165   0.0060036
    2  -0.0055261   0.0102338  -0.0002290  -0.0086566   0.0000503   0.0013849
    3  -0.0031637  -0.0097856  -0.0022852   0.0068431   0.0036155  -0.0006298
 Max gradient component =       1.332E-02
 RMS gradient           =       5.069E-03
 Computing fast CPCM-SWIG gradient
 Updating gradient with PCM contributions...
 -- total gradient after adding PCM contribution --
---------------------------------------------------
  Atom         X              Y              Z     
---------------------------------------------------
   1      -0.000003      -0.000034       0.000017
   2      -0.000003       0.000009      -0.000017
   3      -0.000004       0.000015       0.000000
   4       0.000002       0.000029       0.000007
   5      -0.000041      -0.000031       0.000001
   6       0.000039       0.000049       0.000004
   7       0.000067       0.000083       0.000035
   8       0.000010       0.000001      -0.000010
   9      -0.000000      -0.000015      -0.000001
  10      -0.000010       0.000002       0.000006
  11      -0.000016       0.000008       0.000013
  12      -0.000000       0.000018       0.000011
  13      -0.000017      -0.000035      -0.000019
  14      -0.000081      -0.000065      -0.000071
  15      -0.000008       0.000012       0.000001
  16       0.000021      -0.000023       0.000021
  17       0.000011      -0.000041       0.000005
  18       0.000034       0.000018      -0.000004
---------------------------------------------------
 Number of fixed atoms: 0
 Gradient time:  CPU 336.16 s  wall 48.20 s
-Performing force calculation on product structure in state0
 ----------------------------------------------------------------
             Standard Nuclear Orientation (Angstroms)
    I     Atom           X                Y                Z
 ----------------------------------------------------------------
    1      C      -0.4282528775     0.0511378652     1.5092559897
    2      C      -0.3093497372    -1.3175716865     1.3225850322
    3      C      -1.2870052398    -2.0270749909     0.6337863810
    4      C      -2.3932764059    -1.3512943893     0.1323980458
    5      C      -2.5248109580     0.0209277347     0.3128423760
    6      C      -1.5381822264     0.7150159716     1.0024369961
    7      C      -0.1683531104     1.1023118806    -2.1593593076
    8      H       0.3296156050     0.6123079663     2.0390282036
    9      H       0.5566893561    -1.8331029964     1.7153167369
   10      H      -1.1869592530    -3.0932754431     0.4868594916
   11      H      -3.1604889743    -1.8904026118    -0.4068291161
   12      H      -3.3819458072     0.5541700814    -0.0789357364
   13      H      -1.0548793867     1.6023988684    -1.7977599607
   14      O      -0.1031619424    -0.2615936490    -2.0643776370
   15      H       0.4755617556     1.5249822062    -2.9135375586
   16      H      -0.7730042806    -0.5723097179    -1.4390237233
   17      O      -1.6126564626     2.0708968079     1.2027598050
   18      H      -2.4143824540     2.4134991026     0.7897328818
 ----------------------------------------------------------------
 Nuclear Repulsion Energy =         427.45699608 hartrees
 There are       34 alpha and       33 beta electrons
 Discretize the solute cavity surface with Lebedev spheres
	Using 110 Lebedev grid points for each H atom
	Using 194 Lebedev grid points for other atoms
	Atomic van der Waals radii will be scaled by 1.20
 Remove points where switching function is < 1.0e-08
 Keep 1388 surface tesserae and discard 1348 interior tesserae
 Molecular Surface Area = 166.878 Angst**2
 Applying Cartesian multipole field
    Component          Value
    ---------          -----
     (2,0,0)        1.00000E-11
     (0,2,0)        2.00000E-11
     (0,0,2)       -3.00000E-11
 Nucleus-field energy     =     0.0000000001 hartrees
 Requested basis set is 6-311++G(2df,2p)
 There are 126 shells and 396 basis functions
 A cutoff of  1.0D-12 yielded   7258 shell pairs
 There are     72436 function pairs (     89870 Cartesian)
 Smallest overlap matrix eigenvalue = 8.27E-07
 Linear dependence detected in AO basis
 Tighter screening thresholds may be required for diffuse basis sets
 Use S2THRESH > 14 and THRESH = 14 in case of SCF convergence issues
 Number of orthogonalized atomic orbitals = 395
 Maximum deviation from orthogonality = 3.031E-11
 Guess from superposition of atomic densities
 Warning:  Energy on first SCF cycle will be non-variational
 SAD guess density has 67.000000 electrons

 -----------------------------------------------------------------------
  General SCF calculation program by
  Eric Jon Sundstrom, Paul Horn, Yuezhi Mao, Dmitri Zuev, Alec White,
  David Stuck, Shaama M.S., Shane Yost, Joonho Lee, David Small,
  Daniel Levine, Susi Lehtola, Hugh Burton, Evgeny Epifanovsky,
  Bang C. Huynh
 -----------------------------------------------------------------------
 Exchange:     0.1500 Hartree-Fock + 1.0000 wB97M-V + LR-HF
 Correlation:  1.0000 wB97M-V
 Using SG-2 standard quadrature grid
 Nonlocal Correlation:  VV10 with C = 0.0100 and b = 6.00 and scale = 1.00000
 Grid used for NLC:  SG-1 standard quadrature
 
 Citation of the SMD model:
 Marenich, A.V.; Cramer, C.J.; Truhlar, D.G.
 J. Phys. Chem. B 2009, 113, 6378-6396.
 iSolventCode=           1
 Solvent: water                                                           
 
 vradii
            1           2           3           4           5           6
    1   1.8500000   1.8500000   1.8500000   1.8500000   1.8500000   1.8500000
            7           8           9          10          11          12
    1   1.8500000   1.2000000   1.2000000   1.2000000   1.2000000   1.2000000
           13          14          15          16          17          18
    1   1.2000000   1.5200000   1.2000000   1.2000000   1.5200000   1.2000000
 -------------------------------------------------------
 OpenMP BLAS3 based DFT computing Module                
 Release: version 1.0, May 2013, Q-Chem Inc. Pittsburgh 
 -------------------------------------------------------
 A unrestricted SCF calculation will be
 performed using DIIS, GDM
 SCF converges when RMS gradient is below 1.0e-07
 ---------------------------------------
  Cycle       Energy         DIIS error
 ---------------------------------------
    1    -424.9513864838      1.28e-02  
    2    -422.4417616987      1.11e-03  Done DIIS. Switching to GDM
 ---------------------------------------
  Cycle       Energy        RMS Gradient
 ---------------------------------------
    1    -422.4417616987      3.71e-02   Descent step
    2    -422.5189143892      1.79e-02   Normal BFGS step
    3    -422.5286138728      5.24e-03   Normal BFGS step
    4    -422.5297242969      2.74e-03   Normal BFGS step
    5    -422.5299636697      7.47e-04   Normal BFGS step
    6    -422.5299774415      5.88e-04   Normal BFGS step
    7    -422.5299817058      1.74e-04   Normal BFGS step
    8    -422.5299823580      9.36e-05   Normal BFGS step
    9    -422.5299824391      3.30e-05   Normal BFGS step
   10    -422.5299824599      1.05e-05   Normal BFGS step
   11    -422.5299824619      6.34e-06   Normal BFGS step
   12    -422.5299824623      1.83e-06   Normal BFGS step
   13    -422.5299824624      7.89e-07   Normal BFGS step
   14    -422.5299824624      5.08e-07   Normal BFGS step
   15    -422.5299824624      2.69e-07   Normal BFGS step
   16    -422.5299824624      1.56e-07   Normal BFGS step
   17    -422.5299824624      1.31e-07   Normal BFGS step
   18    -422.5299824623      4.30e-08  Convergence criterion met
 ---------------------------------------
 SCF time:   CPU 1815.28s  wall 230.00s 
<S^2> =          0.753095815
(3)  G-ENP(liq) elect-nuc-pol free energy of system     -422.529982462 a.u.
(4)  G-CDS(liq) cavity-dispersion-solvent structure 
     free energy                                                5.7553 kcal/mol
(6)  G-S(liq) free energy of system                     -422.520810861 a.u.
 SCF   energy in the final basis set =     -422.5208108610
 Total energy in the final basis set =     -422.5208108610
 
 --------------------------------------------------------------
 
                    Orbital Energies (a.u.)
 --------------------------------------------------------------
 
 Alpha MOs
 -- Occupied --
-19.3651 -19.3624 -10.4114 -10.3799 -10.3504 -10.3485 -10.3454 -10.3423
-10.3402  -1.1901  -1.1847  -0.9858  -0.8771  -0.8652  -0.7852  -0.7416
 -0.7201  -0.6561  -0.6393  -0.6089  -0.5767  -0.5607  -0.5426  -0.5313
 -0.5272  -0.5104  -0.5003  -0.4696  -0.4597  -0.4502  -0.4388  -0.3537
 -0.3229  -0.2697
 -- Virtual --
  0.0255   0.0351   0.0377   0.0453   0.0546   0.0553   0.0601   0.0649
  0.0750   0.0793   0.0881   0.0961   0.1110   0.1216   0.1305   0.1379
  0.1398   0.1528   0.1532   0.1582   0.1590   0.1612   0.1633   0.1754
  0.1801   0.1819   0.1869   0.1878   0.1918   0.2018   0.2121   0.2174
  0.2227   0.2255   0.2421   0.2444   0.2523   0.2650   0.2763   0.2805
  0.2808   0.2848   0.3060   0.3204   0.3284   0.3327   0.3397   0.3425
  0.3520   0.3555   0.3586   0.3642   0.3687   0.3704   0.3769   0.3919
  0.4180   0.4259   0.4319   0.4548   0.4674   0.4760   0.5343   0.5389
  0.5458   0.5496   0.5668   0.5913   0.6037   0.6063   0.6182   0.6263
  0.6328   0.6421   0.6468   0.6485   0.6515   0.6599   0.6758   0.6791
  0.6880   0.7081   0.7137   0.7210   0.7302   0.7320   0.7383   0.7514
  0.7607   0.7738   0.7792   0.8014   0.8060   0.8168   0.8266   0.8422
  0.8485   0.8507   0.8633   0.8697   0.8760   0.8938   0.9050   0.9134
  0.9191   0.9265   0.9337   0.9481   0.9650   0.9867   0.9945   1.0457
  1.0588   1.0713   1.0877   1.0995   1.1084   1.1141   1.1390   1.1435
  1.1641   1.1683   1.1814   1.1903   1.2091   1.2191   1.2309   1.2448
  1.2497   1.2680   1.2744   1.2895   1.3070   1.3329   1.3588   1.3713
  1.3774   1.3984   1.4034   1.4144   1.4357   1.4400   1.4444   1.4503
  1.4640   1.4667   1.4858   1.5106   1.5193   1.5637   1.5678   1.5795
  1.5874   1.6025   1.6185   1.6295   1.6416   1.6540   1.7531   1.7608
  1.7835   1.8079   1.8229   1.8385   1.8772   1.9342   1.9473   1.9760
  1.9861   2.0185   2.0774   2.0807   2.0891   2.1052   2.2027   2.2373
  2.3672   2.4024   2.4286   2.4586   2.5024   2.5120   2.5535   2.6095
  2.6297   2.6645   2.6796   2.7230   2.7571   2.7893   2.7926   2.8196
  2.8308   2.8337   2.8397   2.8500   2.8599   2.8873   2.8943   2.9163
  2.9225   2.9333   2.9468   2.9557   2.9698   2.9771   2.9905   3.0215
  3.0232   3.0402   3.0500   3.0568   3.0696   3.0791   3.1009   3.1405
  3.1731   3.1823   3.1886   3.1956   3.2039   3.2316   3.2569   3.2651
  3.2687   3.2753   3.3129   3.3143   3.3303   3.3432   3.3579   3.3723
  3.3929   3.4010   3.4124   3.4217   3.4445   3.4568   3.4742   3.4828
  3.4952   3.5010   3.5192   3.5372   3.5508   3.5698   3.5811   3.5965
  3.6170   3.6286   3.6549   3.6666   3.6986   3.7663   3.7843   3.8155
  3.8184   3.8282   3.8477   3.8637   3.8991   3.9086   3.9181   3.9250
  3.9316   3.9410   3.9481   3.9536   3.9649   3.9746   4.0204   4.0343
  4.0967   4.1151   4.1201   4.1645   4.1751   4.1892   4.2156   4.2167
  4.2463   4.2592   4.2860   4.3088   4.3590   4.3652   4.3889   4.4206
  4.4490   4.4928   4.5166   4.5240   4.5400   4.5540   4.5677   4.5734
  4.5811   4.5984   4.6601   4.6814   4.7121   4.7737   4.7760   4.8121
  4.8216   5.0264   5.0520   5.1162   5.1734   5.1884   5.2027   5.2209
  5.2305   5.2498   5.2598   5.3228   5.3351   5.3479   5.3759   5.4317
  5.4540   5.5288   5.5750   5.6632   5.6747   5.6858   5.7308   5.7635
  5.8150   5.8605   5.8679   5.8884   5.9215   5.9289   6.1624   6.2104
  6.3972   6.6834   6.7399   6.9200   7.0587   7.0682   7.2285   7.2880
  7.3229   7.3403   7.3669   7.4583   7.6243   7.7492   7.7560   7.8421
 24.2344  24.6944  24.7931  24.8107  25.0536  25.0618  25.5394  50.5489
 50.6608
 
 Beta MOs
 -- Occupied --
-19.3624 -19.3601 -10.4114 -10.3676 -10.3504 -10.3485 -10.3453 -10.3423
-10.3402  -1.1900  -1.1730  -0.9858  -0.8771  -0.8652  -0.7595  -0.7416
 -0.7201  -0.6561  -0.6278  -0.6089  -0.5767  -0.5488  -0.5426  -0.5296
 -0.5272  -0.5003  -0.4739  -0.4604  -0.4586  -0.4472  -0.4388  -0.3536
 -0.3226
 -- Virtual --
  0.0243   0.0289   0.0345   0.0402   0.0452   0.0552   0.0564   0.0632
  0.0647   0.0748   0.0790   0.0881   0.0967   0.1174   0.1217   0.1294
  0.1376   0.1426   0.1529   0.1538   0.1574   0.1588   0.1605   0.1629
  0.1749   0.1796   0.1814   0.1870   0.1878   0.1916   0.2030   0.2119
  0.2175   0.2226   0.2253   0.2426   0.2472   0.2533   0.2648   0.2768
  0.2804   0.2807   0.2860   0.3095   0.3208   0.3310   0.3332   0.3410
  0.3431   0.3521   0.3559   0.3591   0.3647   0.3704   0.3723   0.3847
  0.3918   0.4209   0.4259   0.4320   0.4548   0.4670   0.4756   0.5360
  0.5395   0.5494   0.5604   0.5673   0.5940   0.6050   0.6071   0.6194
  0.6296   0.6347   0.6450   0.6508   0.6566   0.6618   0.6674   0.6785
  0.6847   0.6909   0.7093   0.7170   0.7235   0.7310   0.7365   0.7402
  0.7517   0.7626   0.7755   0.7843   0.8049   0.8146   0.8193   0.8280
  0.8431   0.8514   0.8543   0.8654   0.8727   0.8800   0.8951   0.9085
  0.9173   0.9225   0.9272   0.9359   0.9536   0.9695   0.9890   0.9965
  1.0485   1.0608   1.0724   1.0928   1.1005   1.1115   1.1170   1.1411
  1.1480   1.1652   1.1710   1.1835   1.1960   1.2103   1.2227   1.2321
  1.2478   1.2501   1.2693   1.2750   1.2928   1.3120   1.3395   1.3625
  1.3722   1.3805   1.3992   1.4045   1.4156   1.4364   1.4413   1.4457
  1.4515   1.4647   1.4671   1.4885   1.5151   1.5234   1.5645   1.5686
  1.5875   1.5910   1.6078   1.6239   1.6299   1.6443   1.6675   1.7540
  1.7646   1.7838   1.8082   1.8245   1.8390   1.8778   1.9474   1.9523
  1.9764   1.9863   2.0250   2.0774   2.0811   2.0894   2.1057   2.2089
  2.2382   2.3834   2.4062   2.4298   2.4600   2.5103   2.5271   2.5536
  2.6251   2.6420   2.6658   2.6869   2.7243   2.7574   2.7919   2.7935
  2.8217   2.8322   2.8349   2.8421   2.8649   2.8753   2.8936   2.9103
  2.9230   2.9316   2.9489   2.9503   2.9697   2.9778   2.9821   2.9958
  3.0229   3.0307   3.0500   3.0589   3.0764   3.0845   3.1097   3.1255
  3.1757   3.1817   3.1858   3.1961   3.2017   3.2323   3.2580   3.2653
  3.2720   3.2777   3.3109   3.3298   3.3366   3.3485   3.3640   3.3700
  3.3818   3.4014   3.4088   3.4140   3.4274   3.4622   3.4713   3.4797
  3.4968   3.5070   3.5114   3.5288   3.5495   3.5656   3.5740   3.5842
  3.6017   3.6218   3.6520   3.6650   3.6702   3.7113   3.7674   3.7870
  3.8159   3.8190   3.8287   3.8503   3.8651   3.9122   3.9127   3.9214
  3.9289   3.9335   3.9457   3.9542   3.9739   3.9747   3.9907   4.0219
  4.0348   4.0975   4.1155   4.1218   4.1687   4.1847   4.1930   4.2186
  4.2405   4.2522   4.2864   4.3083   4.3238   4.3598   4.3657   4.3891
  4.4213   4.4497   4.4929   4.5185   4.5273   4.5402   4.5542   4.5680
  4.5735   4.5818   4.5986   4.6612   4.7022   4.7146   4.7738   4.7761
  4.8122   4.8217   5.0265   5.0522   5.1167   5.1757   5.2039   5.2193
  5.2301   5.2472   5.2688   5.2836   5.3229   5.3478   5.3601   5.3807
  5.4325   5.4666   5.5292   5.6250   5.6748   5.6838   5.6936   5.7596
  5.7640   5.8150   5.8678   5.8810   5.8887   5.9216   5.9290   6.1742
  6.2104   6.3972   6.6964   6.7400   6.9202   7.0594   7.0905   7.2493
  7.2891   7.3333   7.3569   7.3670   7.4584   7.6369   7.7496   7.7625
  7.8421  24.2344  24.7068  24.7931  24.8108  25.0536  25.0618  25.5394
 50.5532  50.6608
 --------------------------------------------------------------
 
          Ground-State Mulliken Net Atomic Charges

     Atom                 Charge (a.u.)    Spin (a.u.)
  --------------------------------------------------------
      1 C                    -0.243417      -0.009873
      2 C                    -0.203667       0.004320
      3 C                    -0.533626      -0.000987
      4 C                    -0.252921       0.001286
      5 C                    -0.035178       0.007925
      6 C                    -0.169159      -0.006604
      7 C                    -0.441560       0.925213
      8 H                     0.286865      -0.000777
      9 H                     0.296862       0.000363
     10 H                     0.278610      -0.000092
     11 H                     0.297732       0.000404
     12 H                     0.278573      -0.000336
     13 H                     0.189190      -0.013988
     14 O                    -0.343639       0.103127
     15 H                     0.215900      -0.011992
     16 H                     0.397030      -0.000981
     17 O                    -0.369633       0.003173
     18 H                     0.352040      -0.000182
  --------------------------------------------------------
  Sum of atomic charges =    -0.000000
  Sum of spin   charges =     1.000000

 -----------------------------------------------------------------
                    Cartesian Multipole Moments
 -----------------------------------------------------------------
    Charge (ESU x 10^10)
                -0.0000
    Dipole Moment (Debye)
         X      -3.5500      Y       0.0390      Z       0.2282
       Tot       3.5576
    Quadrupole Moments (Debye-Ang)
        XX     -42.6092     XY      -4.3199     YY     -50.0774
        XZ       5.7142     YZ      -3.8791     ZZ     -61.9360
    Octopole Moments (Debye-Ang^2)
       XXX     147.2237    XXY      21.9859    XYY      44.6085
       YYY       6.7828    XXZ     -15.7832    XYZ      -5.3696
       YYZ     -14.6116    XZZ      75.5410    YZZ       9.9341
       ZZZ     -20.8955
    Hexadecapole Moments (Debye-Ang^3)
      XXXX    -666.6905   XXXY     -80.2435   XXYY    -174.6351
      XYYY     -51.0026   YYYY    -569.3205   XXXZ     110.8798
      XXYZ      31.0266   XYYZ      41.0344   YYYZ      29.1859
      XXZZ    -258.5597   XYZZ      -2.8069   YYZZ    -228.2433
      XZZZ      97.3657   YZZZ      21.5019   ZZZZ    -728.6260
 -----------------------------------------------------------------
 Calculating analytic gradient of the SCF energy
 Gradient of CDS energy
            1           2           3           4           5           6
    1   0.0001319   0.0003389  -0.0000207  -0.0003291  -0.0002445  -0.0004571
    2   0.0001833  -0.0002260  -0.0004458  -0.0001705   0.0001241   0.0056201
    3   0.0003529   0.0002074   0.0000022  -0.0001000  -0.0000012   0.0009277
            7           8           9          10          11          12
    1   0.0006941   0.0001177   0.0001662   0.0000191  -0.0001470  -0.0001171
    2  -0.0047106   0.0001504  -0.0000989  -0.0002034  -0.0001033   0.0000672
    3  -0.0008616   0.0000936   0.0000754  -0.0000280  -0.0001033  -0.0000545
           13          14          15          16          17          18
    1   0.0001518  -0.0003924  -0.0000716  -0.0000201   0.0004270  -0.0002471
    2  -0.0003671   0.0054651  -0.0000470  -0.0001567  -0.0054819   0.0004011
    3   0.0003175  -0.0001144   0.0000838  -0.0001024  -0.0007230   0.0000279
 Gradient of SCF Energy
            1           2           3           4           5           6
    1  -0.0005418  -0.0041335   0.0038268   0.0052495   0.0097875  -0.0003805
    2  -0.0056330   0.0043584   0.0045321   0.0021173   0.0003168  -0.0030955
    3  -0.0010768  -0.0018073   0.0022215   0.0041776   0.0082253  -0.0028359
            7           8           9          10          11          12
    1   0.0051748   0.0012781   0.0031809   0.0002962  -0.0068910  -0.0112367
    2  -0.0006959  -0.0002285  -0.0021699  -0.0057774  -0.0042472   0.0080658
    3  -0.0012001   0.0009752   0.0015701  -0.0008615  -0.0048645  -0.0052587
           13          14          15          16          17          18
    1  -0.0048268   0.0055690  -0.0012827  -0.0058890   0.0167341  -0.0159148
    2   0.0013478  -0.0012704   0.0005125   0.0004355  -0.0037888   0.0052205
    3   0.0016176  -0.0033355   0.0004129   0.0017875   0.0090504  -0.0087978
 Max gradient component =       1.673E-02
 RMS gradient           =       5.410E-03
 Computing fast CPCM-SWIG gradient
 Updating gradient with PCM contributions...
 -- total gradient after adding PCM contribution --
---------------------------------------------------
  Atom         X              Y              Z     
---------------------------------------------------
   1      -0.000095      -0.000100      -0.000015
   2      -0.000122       0.000017       0.000071
   3       0.000052      -0.000021       0.000152
   4       0.000083       0.000027      -0.000123
   5      -0.000061       0.000117      -0.000014
   6       0.000099      -0.000007      -0.000114
   7       0.000042      -0.000126      -0.000051
   8       0.000031       0.000044       0.000030
   9       0.000035      -0.000031      -0.000033
  10       0.000043       0.000064       0.000001
  11       0.000007      -0.000052      -0.000049
  12      -0.000016      -0.000008       0.000077
  13      -0.000052       0.000004      -0.000178
  14      -0.000046      -0.000034      -0.000118
  15      -0.000020       0.000065       0.000018
  16       0.000087       0.000250       0.000348
  17       0.000051      -0.000101       0.000047
  18      -0.000121      -0.000109      -0.000048
---------------------------------------------------
 Number of fixed atoms: 0
 Gradient time:  CPU 289.84 s  wall 42.46 s

STARTING FREEZING STRING ITERATION # 1
 The distance between the innermost nodes (Angstroms): 5.483
-Adding two new nodes
 The distance between the previous and current R_nodes (Angstroms): 0.2897
 The distance between the previous and current P_nodes (Angstroms): 0.2589
-Optimizing new reactant side node
 Using BFGS, step: 2 E_tol 0.0103
 max_steps 6, node_spacing 0.2741, sigma 0.7000
 ----------------------------------------------------------------
             Standard Nuclear Orientation (Angstroms)
    I     Atom           X                Y                Z
 ----------------------------------------------------------------
    1      C      -0.3245428664    -0.1495362097     0.8775927791
    2      C      -0.4544634396    -1.4490056157     1.2458946927
    3      C      -1.6153160019    -2.1809789336     0.9155664041
    4      C      -2.6705754841    -1.5478007108     0.2232082078
    5      C      -2.5858433030    -0.2468206303    -0.1533773886
    6      C      -1.3592462100     0.5600319963     0.0745784434
    7      C      -0.7807733260     0.9537659538    -1.4400646752
    8      H       0.5529779154     0.4134956758     1.1713842666
    9      H       0.3324128831    -1.9289326709     1.8129257382
   10      H      -1.7073126513    -3.2146810818     1.2148238870
   11      H      -3.5692379869    -2.1079734006     0.0004989283
   12      H      -3.4047301864     0.2400767132    -0.6681453675
   13      H      -0.4607177054     0.0251111335    -1.9074906705
   14      O       0.2965086854     1.8601093312    -1.3102732070
   15      H      -1.5256909947     1.4380503885    -2.0675965433
   16      H       1.0574445041     1.3760086463    -0.9727307413
   17      O      -1.7568426611     1.7799712397     0.7213057694
   18      H      -1.0660737274     2.4342565193     0.5563237365
 ----------------------------------------------------------------
 Nuclear Repulsion Energy =         444.19196461 hartrees
 There are       34 alpha and       33 beta electrons
 Discretize the solute cavity surface with Lebedev spheres
	Using 110 Lebedev grid points for each H atom
	Using 194 Lebedev grid points for other atoms
	Atomic van der Waals radii will be scaled by 1.20
 Remove points where switching function is < 1.0e-08
 Keep 1319 surface tesserae and discard 1417 interior tesserae
 Molecular Surface Area = 153.557 Angst**2
 Applying Cartesian multipole field
    Component          Value
    ---------          -----
     (2,0,0)        1.00000E-11
     (0,2,0)        2.00000E-11
     (0,0,2)       -3.00000E-11
 Nucleus-field energy     =     0.0000000095 hartrees
 Requested basis set is 6-311++G(2df,2p)
 There are 126 shells and 396 basis functions
 A cutoff of  1.0D-12 yielded   7359 shell pairs
 There are     73477 function pairs (     91211 Cartesian)
 Smallest overlap matrix eigenvalue = 7.88E-07
 Linear dependence detected in AO basis
 Tighter screening thresholds may be required for diffuse basis sets
 Use S2THRESH > 14 and THRESH = 14 in case of SCF convergence issues
 Number of orthogonalized atomic orbitals = 395
 Maximum deviation from orthogonality = 1.935E-11
 Guess from superposition of atomic densities
 Warning:  Energy on first SCF cycle will be non-variational
 SAD guess density has 67.000000 electrons

 -----------------------------------------------------------------------
  General SCF calculation program by
  Eric Jon Sundstrom, Paul Horn, Yuezhi Mao, Dmitri Zuev, Alec White,
  David Stuck, Shaama M.S., Shane Yost, Joonho Lee, David Small,
  Daniel Levine, Susi Lehtola, Hugh Burton, Evgeny Epifanovsky,
  Bang C. Huynh
 -----------------------------------------------------------------------
 Exchange:     0.1500 Hartree-Fock + 1.0000 wB97M-V + LR-HF
 Correlation:  1.0000 wB97M-V
 Using SG-2 standard quadrature grid
 Nonlocal Correlation:  VV10 with C = 0.0100 and b = 6.00 and scale = 1.00000
 Grid used for NLC:  SG-1 standard quadrature
 
 Citation of the SMD model:
 Marenich, A.V.; Cramer, C.J.; Truhlar, D.G.
 J. Phys. Chem. B 2009, 113, 6378-6396.
 iSolventCode=           1
 Solvent: water                                                           
 
 vradii
            1           2           3           4           5           6
    1   1.8500000   1.8500000   1.8500000   1.8500000   1.8500000   1.8500000
            7           8           9          10          11          12
    1   1.8500000   1.2000000   1.2000000   1.2000000   1.2000000   1.2000000
           13          14          15          16          17          18
    1   1.2000000   1.5200000   1.2000000   1.2000000   1.5200000   1.2000000
 -------------------------------------------------------
 OpenMP BLAS3 based DFT computing Module                
 Release: version 1.0, May 2013, Q-Chem Inc. Pittsburgh 
 -------------------------------------------------------
 A unrestricted SCF calculation will be
 performed using DIIS, GDM
 SCF converges when RMS gradient is below 1.0e-07
 ---------------------------------------
  Cycle       Energy         DIIS error
 ---------------------------------------
    1    -425.0167854557      1.27e-02  
    2    -422.4209229883      1.23e-03  Done DIIS. Switching to GDM
 ---------------------------------------
  Cycle       Energy        RMS Gradient
 ---------------------------------------
    1    -422.4209229883      3.41e-02   Descent step
    2    -422.5150653580      2.35e-02   Normal BFGS step
    3    -422.5272120715      1.09e-02   Normal BFGS step
    4    -422.5291969166      7.84e-03   Normal BFGS step
    5    -422.5297169866      3.77e-03   Normal BFGS step
    6    -422.5298912863      1.14e-03   Normal BFGS step
    7    -422.5299086077      5.87e-04   Normal BFGS step
    8    -422.5299132719      4.35e-04   Normal BFGS step
    9    -422.5299139201      1.99e-04   Normal BFGS step
   10    -422.5299142125      7.34e-05   Normal BFGS step
   11    -422.5299142784      4.36e-05   Normal BFGS step
   12    -422.5299142895      1.59e-05   Normal BFGS step
   13    -422.5299142920      4.58e-06   Normal BFGS step
   14    -422.5299142923      3.57e-06   Normal BFGS step
   15    -422.5299142924      2.89e-06   Normal BFGS step
   16    -422.5299142924      1.32e-06   Normal BFGS step
   17    -422.5299142924      5.94e-07   Normal BFGS step
   18    -422.5299142924      1.02e-07   Normal BFGS step
   19    -422.5299142925      8.73e-08  Convergence criterion met
 ---------------------------------------
 SCF time:   CPU 2088.61s  wall 266.00s 
<S^2> =          0.788479762
(3)  G-ENP(liq) elect-nuc-pol free energy of system     -422.529914292 a.u.
(4)  G-CDS(liq) cavity-dispersion-solvent structure 
     free energy                                                3.5767 kcal/mol
(6)  G-S(liq) free energy of system                     -422.524214443 a.u.
 SCF   energy in the final basis set =     -422.5242144435
 Total energy in the final basis set =     -422.5242144435
 
 --------------------------------------------------------------
 
                    Orbital Energies (a.u.)
 --------------------------------------------------------------
 
 Alpha MOs
 -- Occupied --
-19.3441 -19.3389 -10.4115 -10.3937 -10.3504 -10.3469 -10.3466 -10.3430
-10.3423  -1.1714  -1.1510  -0.9764  -0.8785  -0.8702  -0.7940  -0.7251
 -0.7195  -0.6371  -0.6300  -0.6048  -0.5798  -0.5719  -0.5347  -0.5269
 -0.5254  -0.4834  -0.4681  -0.4646  -0.4446  -0.4398  -0.4110  -0.3787
 -0.3602  -0.2665
 -- Virtual --
  0.0253   0.0349   0.0369   0.0478   0.0543   0.0559   0.0640   0.0730
  0.0773   0.0869   0.1031   0.1133   0.1229   0.1298   0.1406   0.1415
  0.1466   0.1521   0.1546   0.1603   0.1622   0.1649   0.1701   0.1767
  0.1794   0.1874   0.1939   0.2040   0.2059   0.2143   0.2158   0.2192
  0.2214   0.2288   0.2442   0.2517   0.2564   0.2729   0.2745   0.2772
  0.2940   0.3035   0.3072   0.3222   0.3253   0.3333   0.3370   0.3409
  0.3538   0.3560   0.3605   0.3795   0.3920   0.3934   0.3946   0.4138
  0.4201   0.4272   0.4416   0.4541   0.4607   0.4813   0.5230   0.5388
  0.5487   0.5656   0.5854   0.5888   0.5971   0.5999   0.6057   0.6118
  0.6260   0.6277   0.6330   0.6487   0.6532   0.6709   0.6867   0.6919
  0.6977   0.7014   0.7210   0.7234   0.7262   0.7373   0.7388   0.7535
  0.7661   0.7665   0.7803   0.7904   0.7983   0.8187   0.8314   0.8389
  0.8481   0.8543   0.8612   0.8726   0.8848   0.8947   0.9020   0.9235
  0.9677   0.9927   1.0115   1.0211   1.0279   1.0474   1.0753   1.1063
  1.1092   1.1207   1.1212   1.1453   1.1523   1.1593   1.1798   1.1835
  1.2090   1.2182   1.2356   1.2424   1.2566   1.2695   1.2845   1.2934
  1.2985   1.3147   1.3463   1.3678   1.3723   1.3783   1.3843   1.3983
  1.4126   1.4177   1.4225   1.4345   1.4451   1.4588   1.4787   1.4864
  1.4982   1.5129   1.5255   1.5310   1.5414   1.5623   1.5767   1.5827
  1.5988   1.6099   1.6287   1.6500   1.6743   1.7109   1.7213   1.7623
  1.7807   1.8063   1.8227   1.8448   1.8598   1.9037   1.9638   1.9766
  1.9996   2.0576   2.0764   2.0874   2.1104   2.1291   2.2150   2.2189
  2.3097   2.3810   2.4107   2.4293   2.4572   2.5669   2.5868   2.6254
  2.6374   2.6641   2.6805   2.7185   2.7445   2.7753   2.7900   2.8084
  2.8107   2.8311   2.8376   2.8448   2.8651   2.8832   2.8945   2.9013
  2.9185   2.9228   2.9369   2.9556   2.9784   2.9875   2.9973   3.0317
  3.0470   3.0673   3.0826   3.1005   3.1548   3.1778   3.1848   3.2070
  3.2112   3.2302   3.2365   3.2653   3.2729   3.2749   3.2911   3.3170
  3.3176   3.3329   3.3645   3.3792   3.4004   3.4212   3.4383   3.4544
  3.4717   3.4798   3.4888   3.4941   3.4965   3.5019   3.5499   3.5609
  3.5723   3.5875   3.6233   3.6346   3.6583   3.6670   3.6869   3.6980
  3.7262   3.7512   3.7864   3.7954   3.7980   3.8376   3.8468   3.8539
  3.8604   3.8745   3.8970   3.9065   3.9136   3.9345   3.9486   3.9726
  4.0078   4.0115   4.0143   4.0464   4.0590   4.0737   4.1225   4.1335
  4.1498   4.1712   4.1842   4.2010   4.2136   4.2361   4.2422   4.2766
  4.3134   4.3376   4.3482   4.3689   4.3807   4.3944   4.4137   4.4566
  4.4632   4.4702   4.4762   4.5075   4.5266   4.5451   4.5736   4.6148
  4.6257   4.6445   4.6614   4.6959   4.7124   4.7256   4.7813   4.7952
  4.8784   4.9846   5.0548   5.0977   5.1543   5.1561   5.2143   5.2532
  5.2715   5.2787   5.3173   5.3518   5.3688   5.3804   5.4331   5.4567
  5.4825   5.5336   5.5752   5.5978   5.6467   5.6734   5.7052   5.7250
  5.7442   5.7872   5.8400   5.8799   5.9087   5.9587   6.0221   6.0596
  6.1915   6.4622   6.6007   6.6538   7.1200   7.1509   7.2988   7.3204
  7.3397   7.3688   7.4107   7.4640   7.6483   7.6908   7.7848   7.8350
 24.2445  24.6215  24.6595  24.7757  24.8551  25.0960  25.4103  50.6000
 50.6572
 
 Beta MOs
 -- Occupied --
-19.3437 -19.3376 -10.4123 -10.3920 -10.3456 -10.3449 -10.3429 -10.3415
-10.3412  -1.1697  -1.1490  -0.9698  -0.8731  -0.8625  -0.7873  -0.7189
 -0.7145  -0.6336  -0.6266  -0.6018  -0.5744  -0.5677  -0.5320  -0.5242
 -0.5224  -0.4778  -0.4624  -0.4553  -0.4385  -0.4293  -0.4047  -0.3667
 -0.3454
 -- Virtual --
 -0.0228   0.0249   0.0345   0.0366   0.0479   0.0543   0.0556   0.0715
  0.0746   0.0828   0.0872   0.1027   0.1129   0.1219   0.1313   0.1408
  0.1437   0.1460   0.1539   0.1549   0.1607   0.1622   0.1663   0.1701
  0.1771   0.1794   0.1886   0.1979   0.2039   0.2067   0.2146   0.2157
  0.2203   0.2253   0.2312   0.2438   0.2514   0.2554   0.2733   0.2751
  0.2778   0.2948   0.3050   0.3099   0.3247   0.3299   0.3372   0.3398
  0.3419   0.3561   0.3579   0.3614   0.3804   0.3921   0.3943   0.3976
  0.4155   0.4229   0.4284   0.4428   0.4557   0.4626   0.4826   0.5244
  0.5410   0.5516   0.5704   0.5873   0.5939   0.6006   0.6048   0.6088
  0.6168   0.6270   0.6314   0.6351   0.6520   0.6577   0.6733   0.6906
  0.6949   0.7014   0.7052   0.7240   0.7263   0.7294   0.7395   0.7454
  0.7583   0.7680   0.7688   0.7828   0.7950   0.8013   0.8215   0.8358
  0.8374   0.8524   0.8598   0.8648   0.8758   0.8900   0.8985   0.9062
  0.9246   0.9703   0.9940   1.0144   1.0227   1.0301   1.0480   1.0771
  1.1087   1.1105   1.1219   1.1222   1.1471   1.1542   1.1610   1.1838
  1.1864   1.2105   1.2182   1.2362   1.2434   1.2584   1.2707   1.2873
  1.2947   1.3004   1.3178   1.3478   1.3713   1.3752   1.3816   1.3881
  1.4027   1.4151   1.4221   1.4272   1.4381   1.4482   1.4616   1.4804
  1.4915   1.5017   1.5147   1.5292   1.5360   1.5445   1.5687   1.5816
  1.5857   1.6013   1.6126   1.6304   1.6527   1.6762   1.7147   1.7258
  1.7665   1.7848   1.8106   1.8301   1.8498   1.8654   1.9072   1.9661
  1.9807   2.0037   2.0638   2.0804   2.0922   2.1137   2.1318   2.2167
  2.2226   2.3119   2.3826   2.4121   2.4303   2.4594   2.5739   2.5930
  2.6371   2.6450   2.6685   2.6890   2.7291   2.7496   2.7828   2.8110
  2.8162   2.8235   2.8336   2.8468   2.8519   2.8750   2.8973   2.9033
  2.9128   2.9295   2.9363   2.9577   2.9681   2.9964   2.9973   3.0129
  3.0507   3.0605   3.0805   3.0996   3.1102   3.1637   3.1861   3.1939
  3.2134   3.2199   3.2396   3.2478   3.2756   3.2791   3.2848   3.2958
  3.3239   3.3276   3.3404   3.3827   3.3873   3.4127   3.4301   3.4434
  3.4627   3.4800   3.4899   3.4999   3.5007   3.5043   3.5132   3.5570
  3.5720   3.5837   3.6009   3.6326   3.6512   3.6726   3.6761   3.6956
  3.7104   3.7332   3.7616   3.7951   3.8051   3.8061   3.8436   3.8533
  3.8599   3.8695   3.8839   3.9065   3.9168   3.9195   3.9457   3.9583
  3.9798   4.0168   4.0174   4.0248   4.0545   4.0678   4.0831   4.1265
  4.1400   4.1566   4.1788   4.1923   4.2057   4.2207   4.2417   4.2497
  4.2847   4.3207   4.3429   4.3533   4.3790   4.3894   4.3998   4.4179
  4.4665   4.4726   4.4773   4.4840   4.5167   4.5375   4.5555   4.5839
  4.6215   4.6354   4.6602   4.6728   4.7051   4.7268   4.7354   4.7917
  4.8050   4.8873   4.9999   5.0676   5.1071   5.1669   5.1695   5.2240
  5.2617   5.2769   5.2819   5.3185   5.3549   5.3743   5.3847   5.4390
  5.4627   5.4863   5.5432   5.5783   5.6009   5.6534   5.6757   5.7118
  5.7280   5.7498   5.7956   5.8577   5.8920   5.9135   5.9657   6.0254
  6.0620   6.2047   6.4722   6.6039   6.6557   7.1211   7.1531   7.3007
  7.3214   7.3413   7.3707   7.4135   7.4673   7.6495   7.6939   7.7859
  7.8390  24.2463  24.6233  24.6611  24.7757  24.8607  25.0976  25.4129
 50.6005  50.6581
 --------------------------------------------------------------
 
          Ground-State Mulliken Net Atomic Charges

     Atom                 Charge (a.u.)    Spin (a.u.)
  --------------------------------------------------------
      1 C                    -0.189279       0.382753
      2 C                    -0.400956      -0.155719
      3 C                    -0.458532       0.518259
      4 C                    -0.319498      -0.154005
      5 C                    -0.169911       0.371246
      6 C                     0.222459      -0.027859
      7 C                    -0.473952       0.051266
      8 H                     0.285069      -0.008279
      9 H                     0.291473       0.004544
     10 H                     0.283578      -0.009207
     11 H                     0.292144       0.004542
     12 H                     0.297838      -0.007758
     13 H                     0.225581       0.002076
     14 O                    -0.410902       0.009565
     15 H                     0.238553       0.001982
     16 H                     0.335417      -0.000684
     17 O                    -0.397968       0.015904
     18 H                     0.348886       0.001373
  --------------------------------------------------------
  Sum of atomic charges =    -0.000000
  Sum of spin   charges =     1.000000

 -----------------------------------------------------------------
                    Cartesian Multipole Moments
 -----------------------------------------------------------------
    Charge (ESU x 10^10)
                 0.0000
    Dipole Moment (Debye)
         X       2.2670      Y      -2.5954      Z      -1.0129
       Tot       3.5918
    Quadrupole Moments (Debye-Ang)
        XX     -54.4039     XY       5.6339     YY     -55.3576
        XZ       6.9528     YZ      -1.0121     ZZ     -57.6566
    Octopole Moments (Debye-Ang^2)
       XXX     202.7858    XXY     -13.2481    XYY      64.0073
       YYY     -13.8688    XXZ     -22.3371    XYZ       9.1450
       YYZ       9.2102    XZZ      72.9572    YZZ      -5.4102
       ZZZ     -21.9613
    Hexadecapole Moments (Debye-Ang^3)
      XXXX    -880.0778   XXXY     -34.0995   XXYY    -268.5106
      XYYY     -63.2229   YYYY    -700.2293   XXXZ      87.1408
      XXYZ      24.0762   XYYZ      23.9544   YYYZ     129.3423
      XXZZ    -227.4021   XYZZ     -39.8366   YYZZ    -195.6482
      XZZZ      67.5174   YZZZ     130.9103   ZZZZ    -391.6061
 -----------------------------------------------------------------
 Calculating analytic gradient of the SCF energy
 Gradient of CDS energy
            1           2           3           4           5           6
    1   0.0001019   0.0004022  -0.0000410  -0.0004189  -0.0002271  -0.0000160
    2   0.0002291  -0.0001103  -0.0005514  -0.0001520   0.0002038   0.0001869
    3   0.0001830   0.0002322   0.0001410  -0.0001496   0.0000468   0.0000533
            7           8           9          10          11          12
    1   0.0007278   0.0000777   0.0001518  -0.0000171  -0.0001748  -0.0001004
    2   0.0006530   0.0000735  -0.0000926  -0.0001927  -0.0001061   0.0001788
    3  -0.0010869   0.0000182   0.0001094   0.0000558  -0.0000442  -0.0001094
           13          14          15          16          17          18
    1   0.0000367  -0.0007933  -0.0001951   0.0004869  -0.0000336   0.0000323
    2  -0.0002064  -0.0005611   0.0001366   0.0001306  -0.0002848   0.0004651
    3   0.0002414   0.0001452   0.0001371  -0.0000725  -0.0000968   0.0001960
 Gradient of SCF Energy
            1           2           3           4           5           6
    1  -0.0119786  -0.0034626  -0.0014144   0.0061269   0.0042965  -0.0018807
    2  -0.0029369  -0.0022459   0.0105244   0.0011946   0.0013754  -0.0089100
    3  -0.0014877  -0.0004894  -0.0010427   0.0015975   0.0004893   0.0353202
            7           8           9          10          11          12
    1   0.0035772   0.0082294   0.0055148  -0.0002628  -0.0036061  -0.0017730
    2   0.0148943   0.0034620  -0.0033611  -0.0055523  -0.0024229  -0.0002391
    3  -0.0286206   0.0020839   0.0027691   0.0015797  -0.0015788  -0.0022400
           13          14          15          16          17          18
    1   0.0030288  -0.0131482   0.0017758   0.0103408  -0.0098514   0.0044875
    2  -0.0038307   0.0077837   0.0013719  -0.0097892  -0.0033716   0.0020535
    3  -0.0015117  -0.0088763  -0.0096043   0.0066057   0.0060871  -0.0010809
 Max gradient component =       3.532E-02
 RMS gradient           =       8.368E-03
 Computing fast CPCM-SWIG gradient
 Updating gradient with PCM contributions...
 -- total gradient after adding PCM contribution --
---------------------------------------------------
  Atom         X              Y              Z     
---------------------------------------------------
   1      -0.003578      -0.000256       0.001822
   2       0.000659      -0.000721       0.000759
   3      -0.000365       0.002617       0.000336
   4       0.001859      -0.000734       0.001181
   5      -0.000106       0.003817      -0.001070
   6       0.000742      -0.011136       0.036012
   7       0.001730       0.011022      -0.036165
   8      -0.000114      -0.001182       0.001159
   9       0.000270      -0.000242      -0.000482
  10       0.000105       0.000257       0.000015
  11       0.000069       0.000426      -0.000443
  12      -0.000546      -0.000392      -0.000153
  13      -0.000079       0.001672       0.001213
  14      -0.001688      -0.002605       0.000633
  15       0.005210       0.000940      -0.006634
  16      -0.000838      -0.000701      -0.000123
  17      -0.001907      -0.002481       0.001880
  18      -0.001422      -0.000303       0.000060
---------------------------------------------------
 Number of fixed atoms: 0
 Gradient time:  CPU 327.20 s  wall 46.77 s
 ----------------------------------------------------------------
             Standard Nuclear Orientation (Angstroms)
    I     Atom           X                Y                Z
 ----------------------------------------------------------------
    1      C      -0.3206084843    -0.1470570698     0.8807217670
    2      C      -0.4545254897    -1.4477091856     1.2454289616
    3      C      -1.6122957577    -2.1853351873     0.9127112911
    4      C      -2.6717525273    -1.5461937745     0.2211320099
    5      C      -2.5862456857    -0.2505445700    -0.1464919513
    6      C      -1.3620303877     0.5792024879     0.0245784434
    7      C      -0.7841547758     0.9385653574    -1.3909428513
    8      H       0.5490906198     0.4180904581     1.1810375265
    9      H       0.3336672248    -1.9290056699     1.8129354895
   10      H      -1.7032700737    -3.2165828785     1.2084580958
   11      H      -3.5662909245    -2.1089411200    -0.0022088737
   12      H      -3.4054552748     0.2436883292    -0.6604834334
   13      H      -0.4662645531     0.0205402940    -1.9121847938
   14      O       0.3047062259     1.8574603108    -1.3180261405
   15      H      -1.5282378009     1.4421450254    -2.0703315152
   16      H       1.0585221235     1.3640536828    -0.9753867797
   17      O      -1.7563568378     1.7847911213     0.7239370403
   18      H      -1.0706112908     2.4388315112     0.5580702039
 ----------------------------------------------------------------
 Nuclear Repulsion Energy =         444.34979031 hartrees
 There are       34 alpha and       33 beta electrons
 Discretize the solute cavity surface with Lebedev spheres
	Using 110 Lebedev grid points for each H atom
	Using 194 Lebedev grid points for other atoms
	Atomic van der Waals radii will be scaled by 1.20
 Remove points where switching function is < 1.0e-08
 Keep 1311 surface tesserae and discard 1425 interior tesserae
 Molecular Surface Area = 153.532 Angst**2
 Applying Cartesian multipole field
    Component          Value
    ---------          -----
     (2,0,0)        1.00000E-11
     (0,2,0)        2.00000E-11
     (0,0,2)       -3.00000E-11
 Nucleus-field energy     =     0.0000000096 hartrees
 Requested basis set is 6-311++G(2df,2p)
 There are 126 shells and 396 basis functions
 A cutoff of  1.0D-12 yielded   7355 shell pairs
 There are     73405 function pairs (     91085 Cartesian)
 Smallest overlap matrix eigenvalue = 8.91E-07
 Linear dependence detected in AO basis
 Tighter screening thresholds may be required for diffuse basis sets
 Use S2THRESH > 14 and THRESH = 14 in case of SCF convergence issues
 Number of orthogonalized atomic orbitals = 395
 Maximum deviation from orthogonality = 2.499E-11
 Guess from superposition of atomic densities
 Warning:  Energy on first SCF cycle will be non-variational
 SAD guess density has 67.000000 electrons

 -----------------------------------------------------------------------
  General SCF calculation program by
  Eric Jon Sundstrom, Paul Horn, Yuezhi Mao, Dmitri Zuev, Alec White,
  David Stuck, Shaama M.S., Shane Yost, Joonho Lee, David Small,
  Daniel Levine, Susi Lehtola, Hugh Burton, Evgeny Epifanovsky,
  Bang C. Huynh
 -----------------------------------------------------------------------
 Exchange:     0.1500 Hartree-Fock + 1.0000 wB97M-V + LR-HF
 Correlation:  1.0000 wB97M-V
 Using SG-2 standard quadrature grid
 Nonlocal Correlation:  VV10 with C = 0.0100 and b = 6.00 and scale = 1.00000
 Grid used for NLC:  SG-1 standard quadrature
 
 Citation of the SMD model:
 Marenich, A.V.; Cramer, C.J.; Truhlar, D.G.
 J. Phys. Chem. B 2009, 113, 6378-6396.
 iSolventCode=           1
 Solvent: water                                                           
 
 vradii
            1           2           3           4           5           6
    1   1.8500000   1.8500000   1.8500000   1.8500000   1.8500000   1.8500000
            7           8           9          10          11          12
    1   1.8500000   1.2000000   1.2000000   1.2000000   1.2000000   1.2000000
           13          14          15          16          17          18
    1   1.2000000   1.5200000   1.2000000   1.2000000   1.5200000   1.2000000
 -------------------------------------------------------
 OpenMP BLAS3 based DFT computing Module                
 Release: version 1.0, May 2013, Q-Chem Inc. Pittsburgh 
 -------------------------------------------------------
 A unrestricted SCF calculation will be
 performed using DIIS, GDM
 SCF converges when RMS gradient is below 1.0e-07
 ---------------------------------------
  Cycle       Energy         DIIS error
 ---------------------------------------
    1    -425.0093230378      1.26e-02  
    2    -422.4228140338      1.24e-03  Done DIIS. Switching to GDM
 ---------------------------------------
  Cycle       Energy        RMS Gradient
 ---------------------------------------
    1    -422.4228140338      4.10e-02   Descent step
    2    -422.5176241897      1.75e-02   Normal BFGS step
    3    -422.5298900102      8.87e-03   Normal BFGS step
    4    -422.5317977161      5.96e-03   Normal BFGS step
    5    -422.5322734211      3.95e-03   Normal BFGS step
    6    -422.5324231658      1.22e-03   Normal BFGS step
    7    -422.5324398640      4.99e-04   Normal BFGS step
    8    -422.5324446989      4.13e-04   Normal BFGS step
    9    -422.5324454913      2.71e-04   Normal BFGS step
   10    -422.5324458588      8.05e-05   Normal BFGS step
   11    -422.5324459347      3.54e-05   Normal BFGS step
   12    -422.5324459447      1.71e-05   Normal BFGS step
   13    -422.5324459471      8.05e-06   Normal BFGS step
   14    -422.5324459475      6.12e-06   Normal BFGS step
   15    -422.5324459476      3.73e-06   Normal BFGS step
   16    -422.5324459476      1.02e-06   Normal BFGS step
   17    -422.5324459476      5.34e-07   Normal BFGS step
   18    -422.5324459476      1.78e-07   Normal BFGS step
   19    -422.5324459477      4.49e-08  Convergence criterion met
 ---------------------------------------
 SCF time:   CPU 2079.66s  wall 264.00s 
<S^2> =          0.788543107
(3)  G-ENP(liq) elect-nuc-pol free energy of system     -422.532445948 a.u.
(4)  G-CDS(liq) cavity-dispersion-solvent structure 
     free energy                                                3.5181 kcal/mol
(6)  G-S(liq) free energy of system                     -422.526839527 a.u.
 SCF   energy in the final basis set =     -422.5268395271
 Total energy in the final basis set =     -422.5268395271
 
 --------------------------------------------------------------
 
                    Orbital Energies (a.u.)
 --------------------------------------------------------------
 
 Alpha MOs
 -- Occupied --
-19.3437 -19.3394 -10.4137 -10.3952 -10.3521 -10.3497 -10.3473 -10.3435
-10.3432  -1.1701  -1.1487  -0.9761  -0.8817  -0.8734  -0.7950  -0.7253
 -0.7172  -0.6371  -0.6298  -0.6029  -0.5853  -0.5733  -0.5285  -0.5266
 -0.5225  -0.4846  -0.4685  -0.4644  -0.4418  -0.4393  -0.4080  -0.3885
 -0.3606  -0.2713
 -- Virtual --
  0.0251   0.0348   0.0369   0.0476   0.0542   0.0560   0.0642   0.0729
  0.0770   0.0869   0.1028   0.1135   0.1229   0.1294   0.1410   0.1421
  0.1465   0.1520   0.1548   0.1602   0.1624   0.1640   0.1700   0.1769
  0.1792   0.1872   0.1935   0.2040   0.2057   0.2149   0.2161   0.2197
  0.2208   0.2284   0.2457   0.2495   0.2558   0.2711   0.2760   0.2783
  0.2896   0.2981   0.3081   0.3199   0.3266   0.3319   0.3380   0.3420
  0.3538   0.3570   0.3625   0.3787   0.3892   0.3928   0.3950   0.4127
  0.4184   0.4274   0.4416   0.4575   0.4601   0.4806   0.5185   0.5367
  0.5539   0.5664   0.5848   0.5876   0.5966   0.5989   0.6059   0.6134
  0.6229   0.6264   0.6346   0.6467   0.6520   0.6696   0.6859   0.6901
  0.6969   0.7012   0.7201   0.7228   0.7263   0.7368   0.7378   0.7514
  0.7643   0.7673   0.7811   0.7901   0.7999   0.8114   0.8298   0.8383
  0.8461   0.8542   0.8589   0.8707   0.8843   0.8941   0.9035   0.9223
  0.9689   0.9953   1.0118   1.0194   1.0292   1.0475   1.0759   1.1029
  1.1130   1.1205   1.1232   1.1459   1.1482   1.1577   1.1787   1.1849
  1.2094   1.2186   1.2354   1.2460   1.2577   1.2675   1.2868   1.2942
  1.2997   1.3131   1.3462   1.3652   1.3745   1.3766   1.3845   1.3942
  1.4127   1.4154   1.4233   1.4348   1.4437   1.4631   1.4788   1.4895
  1.4958   1.5132   1.5290   1.5328   1.5398   1.5626   1.5784   1.5814
  1.5997   1.6018   1.6337   1.6604   1.6845   1.7145   1.7220   1.7617
  1.7772   1.8073   1.8233   1.8458   1.8561   1.9031   1.9631   1.9739
  1.9957   2.0559   2.0737   2.0841   2.1078   2.1262   2.2050   2.2235
[...]
 -----------------------------------------------------------------
    Charge (ESU x 10^10)
                 0.0000
    Dipole Moment (Debye)
         X      -2.6853      Y       0.2661      Z      -2.9480
       Tot       3.9966
    Quadrupole Moments (Debye-Ang)
        XX     -46.6598     XY      -1.6096     YY     -51.5707
        XZ      12.5577     YZ      -3.2021     ZZ     -55.4762
    Octopole Moments (Debye-Ang^2)
       XXX     163.5618    XXY      18.8245    XYY      52.3404
       YYY       9.8928    XXZ     -26.9517    XYZ       2.3453
       YYZ     -16.7753    XZZ      63.7260    YZZ       2.6983
       ZZZ     -32.2356
    Hexadecapole Moments (Debye-Ang^3)
      XXXX    -711.8342   XXXY     -69.9833   XXYY    -191.1527
      XYYY     -34.8996   YYYY    -597.7207   XXXZ      98.1646
      XXYZ      11.6029   XYYZ      43.0769   YYYZ      27.7652
      XXZZ    -219.4818   XYZZ      -9.5070   YYZZ    -185.0907
      XZZZ      89.0674   YZZZ      64.7072   ZZZZ    -462.6941
 -----------------------------------------------------------------
 Calculating analytic gradient of the SCF energy
 Gradient of CDS energy
            1           2           3           4           5           6
    1   0.0000447   0.0003406   0.0000283  -0.0003544  -0.0002414  -0.0009273
    2   0.0002412  -0.0001093  -0.0004910  -0.0001848   0.0001470   0.0046950
    3   0.0002150   0.0002589   0.0000534  -0.0000781   0.0000345   0.0006016
            7           8           9          10          11          12
    1   0.0027199   0.0001059   0.0001590   0.0000217  -0.0001447  -0.0001066
    2  -0.0034960   0.0001905  -0.0000782  -0.0002031  -0.0001269   0.0000677
    3  -0.0030674   0.0000581   0.0001102   0.0000176  -0.0000805  -0.0000870
           13          14          15          16          17          18
    1  -0.0002987  -0.0019623  -0.0002093   0.0000610   0.0010342  -0.0002705
    2  -0.0002122   0.0041359  -0.0000294  -0.0002640  -0.0046906   0.0004082
    3   0.0003205   0.0020920   0.0004734  -0.0003744  -0.0005320  -0.0000157
 Gradient of SCF Energy
            1           2           3           4           5           6
    1   0.0001248  -0.0050991   0.0035325   0.0054604   0.0095108   0.0024473
    2  -0.0078071   0.0026022   0.0047148  -0.0000574   0.0026233  -0.0031490
    3   0.0017243  -0.0027964   0.0023227   0.0040620   0.0036968   0.0012554
            7           8           9          10          11          12
    1   0.0060871   0.0000777   0.0002544  -0.0000788  -0.0045923  -0.0090849
    2  -0.0071854  -0.0008971  -0.0002572  -0.0016830  -0.0034220   0.0057509
    3   0.0037159  -0.0005765   0.0001419  -0.0001666  -0.0031766  -0.0064912
           13          14          15          16          17          18
    1  -0.0097976   0.0123370   0.0004419  -0.0117694   0.0123771  -0.0122291
    2   0.0038547   0.0045871   0.0022366  -0.0037589  -0.0014173   0.0032647
    3  -0.0045890   0.0066431   0.0005070  -0.0066416   0.0136632  -0.0132944
 Max gradient component =       1.366E-02
 RMS gradient           =       5.864E-03
 Computing fast CPCM-SWIG gradient
 Updating gradient with PCM contributions...
 -- total gradient after adding PCM contribution --
---------------------------------------------------
  Atom         X              Y              Z     
---------------------------------------------------
   1       0.000107      -0.000284       0.000043
   2       0.000060       0.000003       0.000029
   3      -0.000015      -0.000021      -0.000026
   4       0.000001       0.000003       0.000009
   5      -0.000034      -0.000002      -0.000037
   6       0.000128      -0.000124       0.000067
   7       0.000122       0.000139       0.000096
   8       0.000002      -0.000012      -0.000003
   9       0.000024      -0.000047      -0.000014
  10      -0.000020      -0.000005      -0.000008
  11      -0.000018       0.000008      -0.000001
  12      -0.000028       0.000030       0.000023
  13      -0.000055       0.000023       0.000003
  14       0.000069       0.000065       0.000010
  15      -0.000243      -0.000243      -0.000077
  16      -0.000025       0.000054      -0.000017
  17      -0.000047       0.000450       0.000056
  18      -0.000026      -0.000035      -0.000153
---------------------------------------------------
 Number of fixed atoms: 0
 Gradient time:  CPU 276.73 s  wall 39.98 s
 Geometry Optimization Parameters
   NAtoms,    NIC,     NZ,  NCons,   NDum,   NFix, NCnnct, MaxDiis
       18     134       0       0       0       0       0       0

 Cartesian Hessian Update
 Hessian updated using Powell/Murtagh-Sargent update
  Mixing factors:     0.980804 Powell                      0.019196 Murtagh-Sargent


** GEOMETRY OPTIMIZATION IN DELOCALIZED INTERNAL COORDINATES **
   Searching for a Transition State

   Optimization Cycle:  85

                       Coordinates (Angstroms)
     ATOM                X               Y               Z
      1  C        -0.4555682440    0.1706452427    1.2665990480
      2  C        -0.3183308534   -1.1960411094    1.3716999944
      3  C        -1.2398457934   -2.0605062557    0.7748321156
      4  C        -2.3405455890   -1.5221085686    0.1026703065
      5  C        -2.5035174805   -0.1585671720   -0.0103656364
      6  C        -1.4880521993    0.7130357809    0.4618642279
      7  C        -0.4315104569    0.9859978319   -1.3547301712
      8  H         0.2454540260    0.8460668155    1.7387233818
      9  H         0.5065363300   -1.6018129493    1.9431328014
     10  H        -1.1255371753   -3.1313334739    0.8678340280
     11  H        -3.0913275624   -2.1804542323   -0.3150523308
     12  H        -3.3632089816    0.2653372148   -0.5148941626
     13  H        -1.2253105192    1.4661391868   -1.9192902330
     14  O         0.0260336939   -0.2098440473   -1.8531582633
     15  H         0.3785097585    1.6108456458   -1.0025160859
     16  H        -0.7123411194   -0.6929968828   -2.2432822777
     17  O        -1.7561226946    2.0686460521    0.6456209313
     18  H        -2.4611611995    2.3303767298    0.0413384394
   Point Group: c1    Number of degrees of freedom:    48


   Energy is   -422.499180184

 Hessian updated using Powell/Murtagh-Sargent update
  Mixing factors:     0.831221 Powell                      0.168779 Murtagh-Sargent

 48 Hessian modes will be used to form the next step
  Hessian Eigenvalues:
    -0.096774    0.001663    0.006903    0.017937    0.019425    0.020754
     0.021839    0.022600    0.022708    0.023382    0.023949    0.024161
     0.032382    0.046632    0.058399    0.064524    0.077474    0.091067
     0.106347    0.123309    0.144069    0.149963    0.158251    0.159256
     0.160000    0.160404    0.160792    0.162786    0.176250    0.217630
     0.219052    0.345917    0.350039    0.355151    0.358364    0.358812
     0.361236    0.361587    0.372765    0.395976    0.432225    0.439064
     0.443832    0.471376    0.488163    0.497780    0.512841    0.549420

 Transition state search - taking P-RFO step
 Searching for Lamda that Maximizes Along the Lowest mode
 Value Taken    Lamda =   0.00000001
 Searching for Lamda that Minimizes Along All other modes
 Value Taken    Lamda =  -0.00000356
 Step Taken.  Stepsize is  0.021828

                             Maximum     Tolerance    Cnvgd?
         Gradient           0.000251      0.000300     YES
         Displacement       0.009406      0.001200      NO
         Energy change     -0.000000      0.000001     YES

 Final energy is   -422.499180184158     


 ******************************
 **  OPTIMIZATION CONVERGED  **
 ******************************

                       Coordinates (Angstroms)
     ATOM                X               Y               Z
      1  C        -0.4555682440    0.1706452427    1.2665990480
      2  C        -0.3183308534   -1.1960411094    1.3716999944
      3  C        -1.2398457934   -2.0605062557    0.7748321156
      4  C        -2.3405455890   -1.5221085686    0.1026703065
      5  C        -2.5035174805   -0.1585671720   -0.0103656364
      6  C        -1.4880521993    0.7130357809    0.4618642279
      7  C        -0.4315104569    0.9859978319   -1.3547301712
      8  H         0.2454540260    0.8460668155    1.7387233818
      9  H         0.5065363300   -1.6018129493    1.9431328014
     10  H        -1.1255371753   -3.1313334739    0.8678340280
     11  H        -3.0913275624   -2.1804542323   -0.3150523308
     12  H        -3.3632089816    0.2653372148   -0.5148941626
     13  H        -1.2253105192    1.4661391868   -1.9192902330
     14  O         0.0260336939   -0.2098440473   -1.8531582633
     15  H         0.3785097585    1.6108456458   -1.0025160859
     16  H        -0.7123411194   -0.6929968828   -2.2432822777
     17  O        -1.7561226946    2.0686460521    0.6456209313
     18  H        -2.4611611995    2.3303767298    0.0413384394

Z-matrix Print:
$molecule
0 2
C 
O  1 1.394026
H  2 0.964748 1 108.770923
C  1 1.416972 2 115.943891 3 179.129919 0
H  4 1.081909 1 118.750608 2 -17.845362 0
C  4 1.377575 1 119.714329 2 165.765426 0
H  6 1.082401 4 119.216806 1 176.577897 0
C  6 1.397405 4 121.027483 1 -4.657255 0
H  8 1.080919 6 120.421588 4 -179.682003 0
C  8 1.397574 6 119.109237 4 -2.266127 0
H  10 1.082398 8 119.840296 6 -176.509855 0
C  10 1.377890 8 120.919440 6 1.926082 0
H  12 1.083196 10 121.288820 8 -178.914929 0
C  1 2.119152 2 94.796338 3 75.612942 0
H  14 1.081953 1 99.705920 2 61.103531 0
H  14 1.085994 1 97.941254 2 -58.646387 0
O  14 1.373978 1 111.400779 2 179.251895 0
H  17 0.964796 14 109.128428 1 75.583160 0
$end

 
 --------------------------------------------------------------
 
                    Orbital Energies (a.u.)
 --------------------------------------------------------------
 
 Alpha MOs
 -- Occupied --
-19.3598 -19.3528 -10.4154 -10.3917 -10.3415 -10.3407 -10.3386 -10.3371
-10.3336  -1.1825  -1.1764  -0.9768  -0.8716  -0.8600  -0.7898  -0.7321
 -0.7154  -0.6465  -0.6370  -0.6022  -0.5704  -0.5638  -0.5513  -0.5302
 -0.5220  -0.4981  -0.4798  -0.4571  -0.4510  -0.4457  -0.4286  -0.3536
 -0.3429  -0.2336
 -- Virtual --
  0.0254   0.0357   0.0368   0.0472   0.0552   0.0572   0.0629   0.0696
  0.0780   0.0833   0.0873   0.0963   0.1190   0.1260   0.1302   0.1408
  0.1463   0.1488   0.1534   0.1569   0.1596   0.1627   0.1643   0.1750
  0.1813   0.1850   0.1865   0.1994   0.2027   0.2041   0.2159   0.2179
  0.2192   0.2258   0.2427   0.2541   0.2585   0.2708   0.2740   0.2818
  0.2886   0.3065   0.3079   0.3181   0.3331   0.3375   0.3434   0.3477
  0.3570   0.3606   0.3705   0.3715   0.3799   0.3827   0.3877   0.4003
  0.4208   0.4294   0.4379   0.4456   0.4634   0.4797   0.5162   0.5467
  0.5588   0.5634   0.5816   0.5886   0.6036   0.6072   0.6126   0.6170
  0.6210   0.6402   0.6437   0.6543   0.6652   0.6721   0.6794   0.6904
  0.7024   0.7092   0.7163   0.7175   0.7275   0.7395   0.7456   0.7538
  0.7577   0.7842   0.7905   0.7943   0.8124   0.8135   0.8426   0.8544
  0.8579   0.8652   0.8761   0.8792   0.8897   0.9067   0.9101   0.9466
  0.9565   0.9717   0.9977   1.0040   1.0249   1.0455   1.0569   1.0771
  1.0960   1.1185   1.1240   1.1369   1.1470   1.1492   1.1658   1.1665
  1.1855   1.2103   1.2382   1.2466   1.2503   1.2712   1.2751   1.2854
  1.2956   1.3112   1.3155   1.3325   1.3607   1.3742   1.3915   1.3967
  1.4078   1.4127   1.4286   1.4352   1.4409   1.4509   1.4644   1.4691
  1.4835   1.4908   1.5039   1.5294   1.5426   1.5502   1.5561   1.5750
  1.5806   1.6058   1.6164   1.6405   1.6644   1.6673   1.7620   1.7840
  1.7907   1.8019   1.8248   1.8323   1.8840   1.9366   1.9523   1.9747
  1.9924   2.0384   2.0845   2.0874   2.1019   2.1353   2.1877   2.2762
  2.3497   2.3675   2.3858   2.4500   2.4736   2.5599   2.5917   2.6317
  2.6452   2.6678   2.6960   2.7301   2.7702   2.7736   2.8133   2.8217
  2.8286   2.8392   2.8456   2.8613   2.8677   2.8851   2.9163   2.9208
  2.9333   2.9368   2.9399   2.9507   2.9654   2.9921   2.9929   3.0193
  3.0266   3.0379   3.0742   3.1026   3.1335   3.1648   3.1843   3.1901
  3.1971   3.2022   3.2363   3.2475   3.2787   3.2922   3.2965   3.3142
  3.3219   3.3297   3.3336   3.3441   3.3668   3.3903   3.3975   3.4196
  3.4375   3.4524   3.4687   3.4792   3.4843   3.4979   3.5135   3.5313
  3.5489   3.5505   3.5593   3.5900   3.6026   3.6316   3.6522   3.6563
  3.6698   3.7031   3.7187   3.7810   3.8099   3.8171   3.8301   3.8367
  3.8633   3.8722   3.8869   3.9056   3.9104   3.9155   3.9322   3.9462
  3.9652   3.9747   3.9977   4.0049   4.0165   4.0490   4.0653   4.0875
  4.0969   4.1230   4.1710   4.1820   4.2064   4.2110   4.2357   4.2447
  4.2609   4.2922   4.3098   4.3419   4.3700   4.3859   4.3884   4.4471
  4.4787   4.4898   4.5040   4.5140   4.5371   4.5523   4.5685   4.5843
  4.6034   4.6296   4.6359   4.6786   4.7249   4.7714   4.7877   4.8160
  4.8195   5.0065   5.0800   5.0938   5.1400   5.1786   5.1948   5.2446
  5.2577   5.2681   5.2829   5.3218   5.3413   5.3672   5.3929   5.4380
  5.4667   5.5311   5.5958   5.6211   5.6600   5.6761   5.7103   5.7325
  5.7797   5.8347   5.8859   5.9056   5.9384   5.9506   6.1076   6.2476
  6.2924   6.6022   6.6994   6.8267   7.0713   7.1120   7.2930   7.3093
  7.3271   7.3612   7.3828   7.4312   7.6498   7.7404   7.7704   7.8419
 24.2393  24.6987  24.7294  24.8334  24.9923  25.0720  25.4820  50.5942
 50.6874
 
 Beta MOs
 -- Occupied --
-19.3572 -19.3526 -10.4176 -10.3814 -10.3429 -10.3421 -10.3356 -10.3341
-10.3301  -1.1788  -1.1730  -0.9742  -0.8688  -0.8563  -0.7724  -0.7302
 -0.7123  -0.6455  -0.6293  -0.5991  -0.5681  -0.5558  -0.5399  -0.5253
 -0.5207  -0.4951  -0.4706  -0.4543  -0.4462  -0.4326  -0.4269  -0.3431
 -0.3178
 -- Virtual --
  0.0058   0.0251   0.0351   0.0362   0.0482   0.0546   0.0565   0.0681
  0.0692   0.0774   0.0863   0.0906   0.1046   0.1179   0.1269   0.1297
  0.1390   0.1472   0.1485   0.1543   0.1584   0.1595   0.1635   0.1641
  0.1782   0.1809   0.1847   0.1864   0.1988   0.2029   0.2045   0.2155
  0.2175   0.2189   0.2256   0.2425   0.2545   0.2615   0.2720   0.2776
  0.2824   0.2900   0.3084   0.3105   0.3237   0.3341   0.3381   0.3451
  0.3490   0.3587   0.3621   0.3713   0.3729   0.3804   0.3827   0.3899
  0.4025   0.4229   0.4305   0.4399   0.4472   0.4649   0.4815   0.5198
  0.5484   0.5608   0.5660   0.5873   0.5937   0.6056   0.6115   0.6137
  0.6193   0.6240   0.6418   0.6484   0.6582   0.6716   0.6744   0.6824
  0.6946   0.7064   0.7135   0.7197   0.7251   0.7333   0.7421   0.7482
  0.7586   0.7603   0.7858   0.7919   0.7956   0.8144   0.8159   0.8431
  0.8574   0.8634   0.8688   0.8778   0.8832   0.8920   0.9084   0.9132
  0.9491   0.9593   0.9745   0.9994   1.0070   1.0269   1.0477   1.0606
  1.0794   1.0984   1.1213   1.1259   1.1384   1.1499   1.1530   1.1685
  1.1700   1.1887   1.2133   1.2394   1.2491   1.2529   1.2730   1.2771
  1.2883   1.2985   1.3139   1.3203   1.3361   1.3632   1.3773   1.3947
  1.3981   1.4124   1.4157   1.4333   1.4396   1.4444   1.4537   1.4675
  1.4722   1.4878   1.4935   1.5090   1.5339   1.5477   1.5524   1.5610
  1.5797   1.5868   1.6083   1.6213   1.6447   1.6687   1.6809   1.7674
  1.7872   1.7924   1.8052   1.8279   1.8372   1.8856   1.9388   1.9569
  1.9786   1.9967   2.0426   2.0886   2.0901   2.1041   2.1389   2.1931
  2.2783   2.3534   2.3710   2.3953   2.4518   2.4758   2.5769   2.6042
  2.6369   2.6512   2.6739   2.7014   2.7360   2.7781   2.7824   2.8181
  2.8314   2.8342   2.8451   2.8535   2.8705   2.8735   2.8948   2.9208
  2.9285   2.9401   2.9468   2.9496   2.9630   2.9759   3.0042   3.0095
  3.0300   3.0367   3.0448   3.0901   3.1174   3.1408   3.1773   3.1949
  3.1996   3.2061   3.2088   3.2537   3.2656   3.2979   3.3037   3.3169
  3.3239   3.3333   3.3361   3.3491   3.3579   3.3810   3.4043   3.4087
  3.4275   3.4442   3.4629   3.4789   3.4888   3.4913   3.5061   3.5212
  3.5417   3.5584   3.5630   3.5714   3.6058   3.6181   3.6396   3.6629
  3.6721   3.6862   3.7252   3.7445   3.7923   3.8185   3.8242   3.8357
  3.8431   3.8678   3.8778   3.8986   3.9154   3.9176   3.9267   3.9460
  3.9500   3.9704   3.9849   4.0014   4.0171   4.0233   4.0608   4.0774
  4.0979   4.1084   4.1298   4.1794   4.1896   4.2112   4.2186   4.2424
  4.2504   4.2791   4.2984   4.3185   4.3479   4.3813   4.3962   4.3989
  4.4548   4.4836   4.4950   4.5101   4.5231   4.5435   4.5595   4.5794
  4.5985   4.6102   4.6379   4.6435   4.6862   4.7279   4.7778   4.7930
  4.8185   4.8244   5.0132   5.0826   5.1014   5.1448   5.1853   5.2256
  5.2527   5.2664   5.2780   5.2915   5.3232   5.3629   5.3698   5.3949
  5.4469   5.4761   5.5348   5.6205   5.6327   5.6675   5.6782   5.7207
  5.7555   5.7834   5.8413   5.8924   5.9116   5.9496   5.9568   6.1170
  6.2523   6.2944   6.6049   6.7104   6.8278   7.0832   7.1124   7.3009
  7.3151   7.3366   7.3641   7.3834   7.4329   7.6562   7.7413   7.7750
  7.8433  24.2400  24.7090  24.7301  24.8346  24.9926  25.0730  25.4830
 50.5965  50.6876
 --------------------------------------------------------------
 
          Ground-State Mulliken Net Atomic Charges

     Atom                 Charge (a.u.)    Spin (a.u.)
  --------------------------------------------------------
      1 C                    -0.133529       0.202026
      2 C                    -0.295682      -0.101903
      3 C                    -0.489539       0.242439
      4 C                    -0.311518      -0.100204
      5 C                    -0.118099       0.187407
      6 C                    -0.165602      -0.070064
      7 C                    -0.421420       0.586470
      8 H                     0.298330      -0.003098
      9 H                     0.289984       0.002604
     10 H                     0.282607      -0.006886
     11 H                     0.291935       0.002758
     12 H                     0.285877      -0.002605
     13 H                     0.250685       0.000520
     14 O                    -0.286508       0.066815
     15 H                     0.230603      -0.006097
     16 H                     0.321575      -0.000066
     17 O                    -0.380345       0.001467
     18 H                     0.350648      -0.001584
  --------------------------------------------------------
  Sum of atomic charges =    -0.000000
  Sum of spin   charges =     1.000000

 -----------------------------------------------------------------
                    Cartesian Multipole Moments
 -----------------------------------------------------------------
    Charge (ESU x 10^10)
                 0.0000
    Dipole Moment (Debye)
         X      -2.6853      Y       0.2661      Z      -2.9480
       Tot       3.9966
    Quadrupole Moments (Debye-Ang)
        XX     -46.6598     XY      -1.6096     YY     -51.5707
        XZ      12.5577     YZ      -3.2021     ZZ     -55.4762
    Octopole Moments (Debye-Ang^2)
       XXX     163.5618    XXY      18.8245    XYY      52.3404
       YYY       9.8928    XXZ     -26.9517    XYZ       2.3453
       YYZ     -16.7753    XZZ      63.7260    YZZ       2.6983
       ZZZ     -32.2356
    Hexadecapole Moments (Debye-Ang^3)
      XXXX    -711.8342   XXXY     -69.9833   XXYY    -191.1527
      XYYY     -34.8996   YYYY    -597.7207   XXXZ      98.1646
      XXYZ      11.6029   XYYZ      43.0769   YYYZ      27.7652
      XXZZ    -219.4818   XYZZ      -9.5070   YYZZ    -185.0907
      XZZZ      89.0674   YZZZ      64.7072   ZZZZ    -462.6941
 -----------------------------------------------------------------
 Total job time:  23934.50s(wall), 185468.90s(cpu) 
 Sat Jan 28 04:56:36 2023

        *************************************************************
        *                                                           *
        *  Thank you very much for using Q-Chem.  Have a nice day.  *
        *                                                           *
        *************************************************************


