
Running Job 1 of 1 Q_in.in
qchem Q_in.in_143384.0 /scratch/ari.fischer/qChem2188632.hpc-mn1/qchem143384/ 0
/usr/local/qchem-5.4.1/exe/qcprog.exe_s Q_in.in_143384.0 /scratch/ari.fischer/qChem2188632.hpc-mn1/qchem143384/
                  Welcome to Q-Chem
     A Quantum Leap Into The Future Of Chemistry


 Q-Chem 5.4, Q-Chem, Inc., Pleasanton, CA (2021)

 License issued to: Nanyang Technological University (site)

 E. Epifanovsky,  A. T. B. Gilbert,  Xintian Feng,  Joonho Lee,  Yuezhi Mao,  
 N. Mardirossian,  P. Pokhilko,  A. White,  M. Wormit,  M. P. Coons,  
 A. L. Dempwolff,  Zhengting Gan,  D. Hait,  P. R. Horn,  L. D. Jacobson,  
 I. Kaliman,  J. Kussmann,  A. W. Lange,  Ka Un Lao,  D. S. Levine,  Jie Liu,  
 S. C. McKenzie,  A. F. Morrison,  K. Nanda,  F. Plasser,  D. R. Rehn,  
 M. L. Vidal,  Zhi-Qiang You,  Ying Zhu,  B. Alam,  B. Albrecht,  
 A. Aldossary,  E. Alguire,  J. H. Andersen,  D. Barton,  K. Begam,  A. Behn,  
 Y. A. Bernard,  E. J. Berquist,  H. Burton,  A. Carreras,  K. Carter-Fenk,  
 R. Chakraborty,  A. D. Chien,  K. D. Closser,  V. Cofer-Shabica,  
 S. Dasgupta,  Jia Deng,  M. de Wergifosse,  M. Diedenhofen,  Hainam Do,  
 S. Ehlert,  Po-Tung Fang,  S. Fatehi,  Qingguo Feng,  T. Friedhoff,  
 J. Gayvert,  Qinghui Ge,  G. Gidofalvi,  M. Goldey,  J. Gomes,  
 C. Gonzalez-Espinoza,  S. Gulania,  A. Gunina,  M. W. D. Hanson-Heine,  
 P. H. P. Harbach,  A. W. Hauser,  M. F. Herbst,  M. Hernandez Vera,  
 M. Hodecker,  Z. C. Holden,  S. Houck,  Xunkun Huang,  Kerwin Hui,  
 B. C. Huynh,  M. Ivanov,  Hyunjun Ji,  Hanjie Jiang,  B. Kaduk,  S. Kaehler,  
 K. Khistyaev,  Jaehoon Kim,  P. Klunzinger,  Z. Koczor-Benda,  
 Joong Hoon Koh,  D. Kosenkov,  L. Koulias,  T. Kowalczyk,  C. M. Krauter,  
 K. Kue,  A. Kunitsa,  T. Kus,  A. Landau,  K. V. Lawler,  D. Lefrancois,  
 S. Lehtola,  Rain Li,  Yi-Pei Li,  Jiashu Liang,  M. Liebenthal,  
 Hung-Hsuan Lin,  You-Sheng Lin,  Fenglai Liu,  Kuan-Yu Liu,  
 M. Loipersberger,  A. Luenser,  A. Manjanath,  P. Manohar,  E. Mansoor,  
 S. F. Manzer,  Shan-Ping Mao,  A. V. Marenich,  T. Markovich,  S. Mason,  
 S. A. Maurer,  P. F. McLaughlin,  M. F. S. J. Menger,  J.-M. Mewes,  
 S. A. Mewes,  P. Morgante,  J. W. Mullinax,  K. J. Oosterbaan,  G. Paran,  
 Alexander C. Paul,  Suranjan K. Paul,  F. Pavosevic,  Zheng Pei,  S. Prager,  
 E. I. Proynov,  E. Ramos,  B. Rana,  A. E. Rask,  A. Rettig,  R. M. Richard,  
 F. Rob,  E. Rossomme,  T. Scheele,  M. Scheurer,  M. Schneider,  
 N. Sergueev,  S. M. Sharada,  W. Skomorowski,  D. W. Small,  C. J. Stein,  
 Yu-Chuan Su,  E. J. Sundstrom,  Zhen Tao,  J. Thirman,  T. Tsuchimochi,  
 N. M. Tubman,  S. P. Veccham,  O. Vydrov,  J. Wenzel,  J. Witte,  A. Yamada,  
 Kun Yao,  S. Yeganeh,  S. R. Yost,  A. Zech,  Igor Ying Zhang,  Xing Zhang,  
 Yu Zhang,  D. Zuev,  A. Aspuru-Guzik,  A. T. Bell,  N. A. Besley,  
 K. B. Bravaya,  B. R. Brooks,  D. Casanova,  Jeng-Da Chai,  S. Coriani,  
 C. J. Cramer,  A. E. DePrince, III,  R. A. DiStasio Jr.,  A. Dreuw,  
 B. D. Dunietz,  T. R. Furlani,  W. A. Goddard III,  S. Grimme,  
 S. Hammes-Schiffer,  T. Head-Gordon,  W. J. Hehre,  Chao-Ping Hsu,  
 T.-C. Jagau,  Yousung Jung,  A. Klamt,  Jing Kong,  D. S. Lambrecht,  
 WanZhen Liang,  N. J. Mayhall,  C. W. McCurdy,  J. B. Neaton,  
 C. Ochsenfeld,  J. A. Parkhill,  R. Peverati,  V. A. Rassolov,  Yihan Shao,  
 L. V. Slipchenko,  T. Stauch,  R. P. Steele,  J. E. Subotnik,  
 A. J. W. Thom,  A. Tkatchenko,  D. G. Truhlar,  T. Van Voorhis,  
 T. A. Wesolowski,  K. B. Whaley,  H. L. Woodcock III,  P. M. Zimmerman,  
 S. Faraji,  P. M. W. Gill,  M. Head-Gordon,  J. M. Herbert,  A. I. Krylov

 Additional authors for Version 5.4.1: 
 S. Kotaru,  Shaozhi Li,  Xiangyuan Li,  F. Matz,  A. Molle,  Haisheng Ren,  
 Yingli Su,  Hung-Yi Tsai,  C. Utku,  Fang Wang

 Contributors to earlier versions of Q-Chem not listed above: 
 R. D. Adamson,  B. Austin,  R. Baer,  J. Baker,  G. J. O. Beran,  
 K. Brandhorst,  S. T. Brown,  E. F. C. Byrd,  A. K. Chakraborty,  
 G. K. L. Chan,  Chun-Min Chang,  Yunqing Chen,  C.-L. Cheng,  
 Siu Hung Chien,  D. M. Chipman,  D. L. Crittenden,  H. Dachsel,  
 R. J. Doerksen,  A. D. Dutoi,  R. G. Edgar,  J. Fosso-Tande,  
 L. Fusti-Molnar,  D. Ghosh,  A. Ghysels,  A. Golubeva-Zadorozhnaya,  
 J. Gonthier,  M. S. Gordon,  S. R. Gwaltney,  G. Hawkins,  J. E. Herr,  
 A. Heyden,  S. Hirata,  E. G. Hohenstein,  G. Kedziora,  F. J. Keil,  
 C. Kelley,  Jihan Kim,  R. A. King,  R. Z. Khaliullin,  P. P. Korambath,  
 W. Kurlancheek,  A. Laurent,  A. M. Lee,  M. S. Lee,  S. V. Levchenko,  
 Ching Yeh Lin,  D. Liotard,  E. Livshits,  R. C. Lochan,  I. Lotan,  
 L. A. Martinez-Martinez,  P. E. Maslen,  N. Nair,  D. P. O'Neill,  
 D. Neuhauser,  E. Neuscamman,  C. M. Oana,  R. Olivares-Amaya,  R. Olson,  
 T. M. Perrine,  B. Peters,  P. A. Pieniazek,  A. Prociuk,  Y. M. Rhee,  
 J. Ritchie,  M. A. Rohrdanz,  E. Rosta,  N. J. Russ,  H. F. Schaefer III,  
 M. W. Schmidt,  N. E. Schultz,  S. Sharma,  N. Shenvi,  C. D. Sherrill,  
 A. C. Simmonett,  A. Sodt,  T. Stein,  D. Stuck,  K. S. Thanthiriwatte,  
 V. Vanovschi,  L. Vogt,  Tao Wang,  A. Warshel,  M. A. Watson,  
 C. F. Williams,  Q. Wu,  X. Xu,  Jun Yang,  W. Zhang,  Yan Zhao

 Please cite Q-Chem as follows:
 Y. Shao et al., Mol. Phys. 113, 184-215 (2015)
 DOI: 10.1080/00268976.2014.952696

 Q-Chem 5.4.1 for Intel X86 EM64T Linux

 Parts of Q-Chem use Armadillo 9.800.1 (Horizon Scraper).
 http://arma.sourceforge.net/

 Q-Chem begins on Wed Jun 26 09:35:34 2024  

 Host: 
0

     Scratch files written to /scratch/ari.fischer/qChem2188632.hpc-mn1/qchem143384//
 Aug1521 |scratch|qcdevops|jenkins|workspace|build_RNUM 8249   
 Processing $rem in /usr/local/qchem-5.4.1/config/preferences:
 Processing $rem in /home/ari.fischer/.qchemrc:
 Symmetry turned off for PCM/SM12/SMD calculation


!!********************************************.
!!******************Warning*******************.
!!Desired Analytical derivatives not available.
!!Finite difference job might take a long time.
!!********************************************.
!!********************************************.


 2-order derivative to be evaluated numerically with 1-order analytical derivatives

 Checking the input file for inconsistencies... 	...done.

--------------------------------------------------------------
User input:
--------------------------------------------------------------
$molecule
0 2
C         0.0236043376   -0.2131652861    0.8025716002
C        -0.8079937956   -0.9944727489    1.8119988750
C        -1.5614650554   -2.1820327628    1.2452598923
C        -2.0376520010   -2.0769881719   -0.1408602532
C        -1.7186387183   -0.8531574725   -0.8710066965
C        -1.1271927671    0.2693352622   -0.0894535026
C        -0.7654342214    1.4946268605   -0.9125166498
H         0.4454334215    0.6506726203    1.3218052905
H        -0.2736415591   -1.2305359006    2.7294025047
H        -2.1382098076   -2.7476544068    1.9672542828
H        -2.9092696647   -2.6402610795   -0.4444501699
H        -2.0685491144   -0.7013681340   -1.8823655345
H        -1.6151778919    1.8229052855   -1.5121994620
O         0.3616277228    1.2097156511   -1.7361380907
H        -0.4736220415    2.2970926620   -0.2387377678
H         0.0747583999    0.6566340872   -2.4715593949
O         1.0290402955   -0.9433179048    0.1437850338
H         1.3580161388   -0.3722081217   -0.5640118547
O        -1.7721475847   -0.0016739797    2.1641128793
O        -2.1037304273    0.6831301320    0.9073342406
O        -0.9214681660   -2.9542541916    0.2399341777
$end

$rem
BASIS = 6-311++G(2df,2p)
GUI = 2
JOB_TYPE = Frequency
METHOD = wB97M-V
SOLVENT_METHOD = SMD
SCF_ALGORITHM = DIIS_GDM
MAX_SCF_CYCLES = 400
SCF_CONVERGENCE = 7
THRESH = 12
$end
--------------------------------------------------------------
 ----------------------------------------------------------------
             Standard Nuclear Orientation (Angstroms)
    I     Atom           X                Y                Z
 ----------------------------------------------------------------
    1      C       0.0236043376    -0.2131652861     0.8025716002
    2      C      -0.8079937956    -0.9944727489     1.8119988750
    3      C      -1.5614650554    -2.1820327628     1.2452598923
    4      C      -2.0376520010    -2.0769881719    -0.1408602532
    5      C      -1.7186387183    -0.8531574725    -0.8710066965
    6      C      -1.1271927671     0.2693352622    -0.0894535026
    7      C      -0.7654342214     1.4946268605    -0.9125166498
    8      H       0.4454334215     0.6506726203     1.3218052905
    9      H      -0.2736415591    -1.2305359006     2.7294025047
   10      H      -2.1382098076    -2.7476544068     1.9672542828
   11      H      -2.9092696647    -2.6402610795    -0.4444501699
   12      H      -2.0685491144    -0.7013681340    -1.8823655345
   13      H      -1.6151778919     1.8229052855    -1.5121994620
   14      O       0.3616277228     1.2097156511    -1.7361380907
   15      H      -0.4736220415     2.2970926620    -0.2387377678
   16      H       0.0747583999     0.6566340872    -2.4715593949
   17      O       1.0290402955    -0.9433179048     0.1437850338
   18      H       1.3580161388    -0.3722081217    -0.5640118547
   19      O      -1.7721475847    -0.0016739797     2.1641128793
   20      O      -2.1037304273     0.6831301320     0.9073342406
   21      O      -0.9214681660    -2.9542541916     0.2399341777
 ----------------------------------------------------------------
 Nuclear Repulsion Energy =         802.79534487 hartrees
 There are       46 alpha and       45 beta electrons
 Requested basis set is 6-311++G(2df,2p)
 There are 150 shells and 498 basis functions

 Total QAlloc Memory Limit 288000 MB
 Mega-Array Size       188 MB
 MEM_STATIC part       192 MB
 
 Citation of the SMD model:
 Marenich, A.V.; Cramer, C.J.; Truhlar, D.G.
 J. Phys. Chem. B 2009, 113, 6378-6396.
 iSolventCode=           1
 Solvent: water                                                           
 
 vradii
            1           2           3           4           5           6
    1   1.8500000   1.8500000   1.8500000   1.8500000   1.8500000   1.8500000
            7           8           9          10          11          12
    1   1.8500000   1.2000000   1.2000000   1.2000000   1.2000000   1.2000000
           13          14          15          16          17          18
    1   1.2000000   1.5200000   1.2000000   1.2000000   1.5200000   1.2000000
           19          20          21
    1   1.5200000   1.5200000   1.5200000
 Changing PCM_VDW_RADII to SMD_RADIUS
 Discretize the solute cavity surface with Lebedev spheres
	Using 110 Lebedev grid points for each H atom
	Using 194 Lebedev grid points for other atoms
	Atomic van der Waals radii will be scaled by 1.20
 Remove points where switching function is < 1.0e-08
 Keep 1502 surface tesserae and discard 1816 interior tesserae
 Molecular Surface Area = 166.341 Angst**2
 A cutoff of  1.0D-12 yielded  10212 shell pairs
 There are    113774 function pairs (    142613 Cartesian)
 Smallest overlap matrix eigenvalue = 2.15E-06
 Guess from superposition of atomic densities
 Warning:  Energy on first SCF cycle will be non-variational
 SAD guess density has 91.000000 electrons

 -----------------------------------------------------------------------
  General SCF calculation program by
  Eric Jon Sundstrom, Paul Horn, Yuezhi Mao, Dmitri Zuev, Alec White,
  David Stuck, Shaama M.S., Shane Yost, Joonho Lee, David Small,
  Daniel Levine, Susi Lehtola, Hugh Burton, Evgeny Epifanovsky,
  Bang C. Huynh
 -----------------------------------------------------------------------
 Exchange:     0.1500 Hartree-Fock + 1.0000 wB97M-V + LR-HF
 Correlation:  1.0000 wB97M-V
 Using SG-2 standard quadrature grid
 Nonlocal Correlation:  VV10 with C = 0.0100 and b = 6.00 and scale = 1.00000
 Grid used for NLC:  SG-1 standard quadrature
 using 16 threads for integral computing
 -------------------------------------------------------
 OpenMP Integral computing Module                
 Release: version 1.0, May 2013, Q-Chem Inc. Pittsburgh 
 -------------------------------------------------------
 
 Citation of the SMD model:
 Marenich, A.V.; Cramer, C.J.; Truhlar, D.G.
 J. Phys. Chem. B 2009, 113, 6378-6396.
 iSolventCode=           1
 Solvent: water                                                           
 
 vradii
            1           2           3           4           5           6
    1   1.8500000   1.8500000   1.8500000   1.8500000   1.8500000   1.8500000
            7           8           9          10          11          12
    1   1.8500000   1.2000000   1.2000000   1.2000000   1.2000000   1.2000000
           13          14          15          16          17          18
    1   1.2000000   1.5200000   1.2000000   1.2000000   1.5200000   1.2000000
           19          20          21
    1   1.5200000   1.5200000   1.5200000
 -------------------------------------------------------
 OpenMP BLAS3 based DFT computing Module                
 Release: version 1.0, May 2013, Q-Chem Inc. Pittsburgh 
 -------------------------------------------------------
 A unrestricted SCF calculation will be
 performed using DIIS, GDM
 SCF converges when RMS gradient is below 1.0e-07
 ---------------------------------------
  Cycle       Energy         DIIS error
 ---------------------------------------
    1    -651.5102850422      1.15e-02  
    2    -647.9780881469      1.11e-03  Done DIIS. Switching to GDM
 ---------------------------------------
  Cycle       Energy        RMS Gradient
 ---------------------------------------
    1    -647.9780881469      4.06e-02   Descent step
    2    -648.0875850147      2.42e-02   Normal BFGS step
    3    -648.1059437157      1.32e-02   Normal BFGS step
    4    -648.1077275772      7.31e-03   Normal BFGS step
    5    -648.1080965874      3.50e-03   Normal BFGS step
    6    -648.1082245508      1.84e-03   Normal BFGS step
    7    -648.1082396238      8.41e-04   Normal BFGS step
    8    -648.1082434280      2.04e-04   Normal BFGS step
    9    -648.1082439120      1.16e-04   Normal BFGS step
   10    -648.1082442381      3.66e-05   Normal BFGS step
   11    -648.1082442680      2.00e-05   Normal BFGS step
   12    -648.1082442761      9.84e-06   Normal BFGS step
   13    -648.1082442777      5.26e-06   Normal BFGS step
   14    -648.1082442782      3.42e-06   Normal BFGS step
   15    -648.1082442784      9.93e-07   Normal BFGS step
   16    -648.1082442784      3.53e-07   Normal BFGS step
   17    -648.1082442784      1.00e-07   Normal BFGS step
   18    -648.1082442785      5.28e-08  Convergence criterion met
 ---------------------------------------
 SCF time:   CPU 4160.39s  wall 285.00s 
<S^2> =          0.755071318
(3)  G-ENP(liq) elect-nuc-pol free energy of system     -648.108244278 a.u.
(4)  G-CDS(liq) cavity-dispersion-solvent structure 
     free energy                                                2.7537 kcal/mol
(6)  G-S(liq) free energy of system                     -648.103855938 a.u.
 SCF   energy in the final basis set =     -648.1038559378
 Total energy in the final basis set =     -648.1038559378
 
 --------------------------------------------------------------
 
                    Orbital Energies (a.u.)
 --------------------------------------------------------------
 
 Alpha MOs
 -- Occupied --
-19.4079 -19.4055 -19.3609 -19.3482 -19.3452 -10.4161 -10.4118 -10.4097
-10.4054 -10.4049 -10.3941 -10.3690  -1.2751  -1.2153  -1.1744  -1.1617
 -1.0744  -0.9515  -0.8738  -0.8469  -0.8059  -0.7561  -0.7198  -0.6995
 -0.6683  -0.6411  -0.6150  -0.6071  -0.5981  -0.5862  -0.5686  -0.5512
 -0.5307  -0.5266  -0.5155  -0.4996  -0.4935  -0.4787  -0.4499  -0.4468
 -0.4265  -0.4170  -0.3932  -0.3804  -0.3668  -0.3153
 -- Virtual --
  0.0252   0.0347   0.0363   0.0453   0.0552   0.0563   0.0603   0.0769
  0.0833   0.0849   0.0887   0.0969   0.1164   0.1252   0.1255   0.1329
  0.1366   0.1408   0.1473   0.1515   0.1557   0.1601   0.1617   0.1659
  0.1721   0.1746   0.1796   0.1860   0.1917   0.1954   0.1975   0.2024
  0.2150   0.2199   0.2205   0.2299   0.2322   0.2408   0.2485   0.2533
  0.2695   0.2764   0.2798   0.2883   0.2972   0.3050   0.3058   0.3177
  0.3231   0.3264   0.3350   0.3388   0.3459   0.3477   0.3500   0.3541
  0.3585   0.3744   0.3780   0.3781   0.3820   0.3861   0.3924   0.3954
  0.3986   0.4079   0.4150   0.4200   0.4261   0.4355   0.4398   0.4479
  0.4596   0.4640   0.4706   0.4778   0.4870   0.5113   0.5265   0.5284
  0.5445   0.5647   0.5926   0.5992   0.6104   0.6173   0.6227   0.6324
  0.6495   0.6566   0.6637   0.6694   0.6723   0.6828   0.6874   0.6975
  0.7011   0.7129   0.7190   0.7307   0.7326   0.7382   0.7482   0.7551
  0.7575   0.7773   0.7884   0.7980   0.8219   0.8362   0.8522   0.8622
  0.8820   0.8923   0.9001   0.9246   0.9355   0.9602   0.9717   0.9889
  1.0193   1.0366   1.0507   1.0555   1.0682   1.0771   1.0901   1.1084
  1.1185   1.1225   1.1336   1.1469   1.1521   1.1662   1.1790   1.1872
  1.1925   1.1969   1.2139   1.2235   1.2305   1.2452   1.2504   1.2667
  1.2709   1.2824   1.2911   1.3017   1.3052   1.3174   1.3179   1.3262
  1.3357   1.3427   1.3548   1.3623   1.3702   1.3752   1.3816   1.3894
  1.4054   1.4119   1.4305   1.4404   1.4626   1.4704   1.4871   1.4917
  1.5002   1.5116   1.5277   1.5418   1.5451   1.5534   1.5594   1.5851
  1.5888   1.6102   1.6234   1.6355   1.6509   1.6556   1.6637   1.6858
  1.6994   1.7119   1.7407   1.7605   1.7767   1.7965   1.8132   1.8255
  1.8325   1.8649   1.8856   1.9069   1.9408   1.9813   2.0112   2.0225
  2.0327   2.0435   2.0755   2.0932   2.1134   2.1206   2.1443   2.1700
  2.1951   2.2164   2.2379   2.2673   2.2878   2.3105   2.3370   2.3601
  2.3856   2.4145   2.4208   2.4448   2.4815   2.5131   2.5657   2.6526
  2.6781   2.6955   2.7052   2.7308   2.7767   2.7903   2.7921   2.8080
  2.8286   2.8575   2.8717   2.8857   2.8966   2.9067   2.9249   2.9509
  2.9696   2.9981   3.0072   3.0235   3.0346   3.0551   3.0660   3.0870
  3.0983   3.1226   3.1323   3.1544   3.1891   3.1973   3.2117   3.2315
  3.2408   3.2622   3.2785   3.2959   3.3050   3.3368   3.3590   3.3736
  3.3914   3.4037   3.4179   3.4447   3.4588   3.4680   3.4895   3.5070
  3.5175   3.5298   3.5421   3.5620   3.5748   3.5943   3.6005   3.6198
  3.6291   3.6451   3.6577   3.6750   3.6825   3.7015   3.7124   3.7372
  3.7449   3.7527   3.7596   3.7829   3.8058   3.8128   3.8282   3.8383
  3.8539   3.8729   3.8973   3.9077   3.9165   3.9304   3.9333   3.9462
  3.9535   3.9683   3.9986   4.0056   4.0133   4.0453   4.0507   4.0723
  4.1062   4.1151   4.1472   4.1751   4.1931   4.2210   4.2416   4.2542
  4.2810   4.2821   4.2946   4.3102   4.3357   4.3518   4.3632   4.3724
  4.3793   4.3872   4.4064   4.4228   4.4310   4.4521   4.4779   4.4943
  4.5036   4.5188   4.5222   4.5543   4.5613   4.6029   4.6120   4.6447
  4.6477   4.6621   4.7147   4.7327   4.7394   4.7610   4.7702   4.8195
  4.8915   4.9451   4.9944   5.0819   5.0906   5.1716   5.2295   5.2364
  5.2732   5.2840   5.2980   5.3023   5.3102   5.3299   5.3453   5.3464
  5.3528   5.3699   5.3805   5.3975   5.4175   5.4359   5.4583   5.4680
  5.4945   5.5139   5.5358   5.5472   5.5601   5.5922   5.6059   5.6082
  5.6276   5.6318   5.6758   5.6941   5.7135   5.7468   5.7552   5.7676
  5.7887   5.7922   5.8145   5.8666   5.8855   5.9416   5.9664   5.9867
  6.0266   6.0349   6.0470   6.0725   6.0990   6.2486   6.4769   6.5779
  6.6248   6.6534   6.6768   6.7493   6.7808   7.0466   7.1131   7.1388
  7.1809   7.2776   7.3005   7.3081   7.3316   7.3505   7.3806   7.4066
  7.4271   7.4410   7.4659   7.4813   7.5099   7.5603   7.6355   7.6649
  7.7147   7.7513   7.7943   7.8384   7.8763   7.9130   7.9668   8.2636
 24.5027  24.7079  24.7407  24.7858  24.8309  24.9242  24.9528  50.5981
 50.6218  50.6550  50.6923  50.7202
 
 Beta MOs
 -- Occupied --
-19.4079 -19.4035 -19.3579 -19.3480 -19.3451 -10.4169 -10.4118 -10.4092
-10.4065 -10.4044 -10.3941 -10.3566  -1.2731  -1.2098  -1.1740  -1.1613
 -1.0716  -0.9448  -0.8594  -0.8454  -0.8038  -0.7507  -0.7166  -0.6956
 -0.6650  -0.6368  -0.6128  -0.6034  -0.5939  -0.5832  -0.5669  -0.5449
 -0.5273  -0.5217  -0.5078  -0.4965  -0.4901  -0.4761  -0.4460  -0.4440
 -0.4212  -0.4108  -0.3921  -0.3783  -0.3616
 -- Virtual --
 -0.0186   0.0252   0.0344   0.0364   0.0478   0.0550   0.0565   0.0608
  0.0779   0.0836   0.0848   0.0898   0.0984   0.1165   0.1253   0.1254
  0.1327   0.1374   0.1409   0.1472   0.1508   0.1560   0.1605   0.1614
  0.1663   0.1718   0.1753   0.1795   0.1864   0.1926   0.1953   0.1988
  0.2025   0.2145   0.2200   0.2210   0.2301   0.2323   0.2421   0.2516
  0.2555   0.2711   0.2773   0.2809   0.2900   0.2982   0.3045   0.3071
  0.3190   0.3238   0.3279   0.3355   0.3390   0.3474   0.3492   0.3509
  0.3554   0.3629   0.3749   0.3789   0.3792   0.3828   0.3864   0.3941
  0.3958   0.3999   0.4096   0.4156   0.4216   0.4271   0.4357   0.4400
  0.4502   0.4612   0.4657   0.4728   0.4803   0.4877   0.5137   0.5285
  0.5303   0.5453   0.5663   0.5952   0.6054   0.6125   0.6232   0.6251
  0.6346   0.6505   0.6574   0.6649   0.6702   0.6748   0.6855   0.6871
  0.6983   0.7043   0.7141   0.7213   0.7329   0.7380   0.7394   0.7502
  0.7565   0.7636   0.7820   0.7894   0.8034   0.8250   0.8387   0.8566
  0.8643   0.8842   0.8947   0.9048   0.9264   0.9369   0.9625   0.9741
  0.9904   1.0222   1.0373   1.0513   1.0566   1.0694   1.0784   1.0920
  1.1107   1.1196   1.1237   1.1352   1.1486   1.1545   1.1684   1.1799
  1.1883   1.1941   1.1991   1.2154   1.2260   1.2321   1.2466   1.2529
  1.2695   1.2730   1.2840   1.2932   1.3038   1.3074   1.3185   1.3208
  1.3274   1.3365   1.3444   1.3572   1.3644   1.3718   1.3764   1.3845
  1.3918   1.4074   1.4145   1.4314   1.4420   1.4648   1.4743   1.4884
  1.4959   1.5026   1.5131   1.5319   1.5445   1.5486   1.5566   1.5618
  1.5893   1.5915   1.6112   1.6271   1.6370   1.6547   1.6586   1.6682
  1.6895   1.7019   1.7167   1.7458   1.7625   1.7815   1.8025   1.8144
  1.8270   1.8385   1.8670   1.8885   1.9103   1.9444   1.9830   2.0145
  2.0273   2.0341   2.0453   2.0780   2.0955   2.1159   2.1234   2.1501
  2.1747   2.1967   2.2196   2.2398   2.2698   2.2900   2.3148   2.3380
  2.3614   2.3868   2.4158   2.4224   2.4471   2.4825   2.5157   2.5691
  2.6632   2.6832   2.7008   2.7071   2.7349   2.7829   2.7956   2.8031
  2.8135   2.8381   2.8631   2.8823   2.8943   2.9074   2.9146   2.9298
  2.9761   2.9943   3.0187   3.0307   3.0363   3.0484   3.0596   3.0747
  3.0944   3.1106   3.1280   3.1403   3.1610   3.1927   3.2021   3.2180
  3.2336   3.2489   3.2744   3.2876   3.3062   3.3147   3.3420   3.3698
  3.3851   3.3963   3.4164   3.4276   3.4535   3.4653   3.4838   3.4946
  3.5115   3.5242   3.5326   3.5625   3.5677   3.5801   3.5977   3.6137
  3.6263   3.6371   3.6555   3.6666   3.6846   3.6932   3.7083   3.7196
  3.7450   3.7505   3.7689   3.7725   3.7879   3.8113   3.8193   3.8360
  3.8430   3.8621   3.8788   3.9044   3.9130   3.9216   3.9344   3.9371
  3.9508   3.9622   3.9729   4.0039   4.0097   4.0203   4.0546   4.0611
  4.0790   4.1118   4.1291   4.1537   4.1815   4.1978   4.2244   4.2465
  4.2570   4.2854   4.2931   4.2995   4.3184   4.3413   4.3585   4.3698
  4.3758   4.3854   4.3952   4.4178   4.4269   4.4359   4.4666   4.4847
  4.4981   4.5099   4.5257   4.5323   4.5627   4.5740   4.6095   4.6162
  4.6527   4.6606   4.6655   4.7176   4.7365   4.7506   4.7666   4.7757
  4.8250   4.8951   4.9511   5.0046   5.0911   5.1034   5.1804   5.2363
  5.2433   5.2761   5.2881   5.3006   5.3049   5.3118   5.3349   5.3477
  5.3515   5.3568   5.3729   5.3823   5.4021   5.4206   5.4425   5.4640
  5.4702   5.4970   5.5172   5.5403   5.5504   5.5618   5.5959   5.6094
  5.6143   5.6340   5.6518   5.6774   5.6962   5.7169   5.7492   5.7578
  5.7712   5.7901   5.8150   5.8186   5.8694   5.8910   5.9487   5.9698
  5.9960   6.0296   6.0393   6.0488   6.0753   6.1000   6.2501   6.4849
  6.5813   6.6269   6.6553   6.6780   6.7510   6.7819   7.0491   7.1139
  7.1399   7.1885   7.2843   7.3020   7.3112   7.3325   7.3515   7.3816
  7.4096   7.4277   7.4435   7.4677   7.4855   7.5146   7.5618   7.6379
  7.6661   7.7159   7.7599   7.7949   7.8450   7.8789   7.9158   7.9701
  8.2651  24.5080  24.7099  24.7409  24.7861  24.8311  24.9249  24.9573
 50.5985  50.6221  50.6558  50.6935  50.7217
 --------------------------------------------------------------
 
          Ground-State Mulliken Net Atomic Charges

     Atom                 Charge (a.u.)    Spin (a.u.)
  --------------------------------------------------------
      1 C                    -0.182080       0.045712
      2 C                    -0.024823      -0.022827
      3 C                    -0.416571       0.066478
      4 C                    -0.094637      -0.041570
      5 C                    -0.457457       0.923357
      6 C                     0.194195      -0.103900
      7 C                    -0.328579       0.012027
      8 H                     0.331241      -0.001167
      9 H                     0.270546       0.000757
     10 H                     0.274248       0.002062
     11 H                     0.257773       0.008782
     12 H                     0.330480      -0.016689
     13 H                     0.249597      -0.000054
     14 O                    -0.378042       0.003361
     15 H                     0.237351      -0.001044
     16 H                     0.326484       0.000784
     17 O                    -0.416933       0.004952
     18 H                     0.338184       0.003103
     19 O                    -0.109153       0.003430
     20 O                    -0.120798       0.037354
     21 O                    -0.281025       0.075091
  --------------------------------------------------------
  Sum of atomic charges =     0.000000
  Sum of spin   charges =     1.000000

 -----------------------------------------------------------------
                    Cartesian Multipole Moments
 -----------------------------------------------------------------
    Charge (ESU x 10^10)
                 0.0000
    Dipole Moment (Debye)
         X      -1.3988      Y       1.2725      Z      -2.5771
       Tot       3.1965
    Quadrupole Moments (Debye-Ang)
        XX     -71.7412     XY       7.1956     YY     -78.5903
        XZ       8.4148     YZ      -3.8927     ZZ     -60.9750
    Octopole Moments (Debye-Ang^2)
       XXX     198.8610    XXY      15.5348    XYY      48.1514
       YYY     140.6344    XXZ     -38.8902    XYZ      13.2402
       YYZ      -6.7776    XZZ      64.5581    YZZ      16.6497
       ZZZ     -68.8767
    Hexadecapole Moments (Debye-Ang^3)
      XXXX    -867.1110   XXXY    -102.8720   XXYY    -263.2177
      XYYY    -147.0249   YYYY   -1086.2702   XXXZ     152.1192
      XXYZ      36.9893   XYYZ      36.1747   YYYZ     124.7552
      XXZZ    -261.8272   XYZZ     -40.8021   YYZZ    -254.6886
      XZZZ     147.5315   YZZZ     101.1209   ZZZZ    -598.7663
 -----------------------------------------------------------------
 Calculating analytic gradient of the SCF energy
 Gradient of CDS energy
            1           2           3           4           5           6
    1   0.0018518   0.0000227   0.0000297  -0.0001780  -0.0001347   0.0000453
    2  -0.0012513   0.0001199  -0.0003815  -0.0004019   0.0000775   0.0000663
    3  -0.0010730   0.0001909   0.0002262  -0.0001757  -0.0002568   0.0001568
            7           8           9          10          11          12
    1   0.0000144  -0.0000497   0.0000688  -0.0000970  -0.0001556  -0.0000419
    2   0.0009989   0.0001900  -0.0000108  -0.0000892  -0.0001005   0.0000746
    3  -0.0003477   0.0000984   0.0002046   0.0001415  -0.0000542  -0.0001204
           13          14          15          16          17          18
    1  -0.0002148  -0.0001458   0.0001379   0.0001862  -0.0018913   0.0004424
    2  -0.0002635  -0.0002203  -0.0001154   0.0000510   0.0011246  -0.0000540
    3  -0.0000607   0.0002686   0.0002829  -0.0004979   0.0011635  -0.0001609
           19          20          21
    1   0.0000061   0.0000681   0.0000353
    2   0.0000862  -0.0000696   0.0001692
    3  -0.0000938   0.0000863   0.0000214
 Gradient of SCF Energy
            1           2           3           4           5           6
    1   0.0044059  -0.0084691   0.0058450   0.0054567   0.0025533  -0.0040710
    2  -0.0081718   0.0075010  -0.0008854   0.0039510  -0.0020586   0.0031213
    3  -0.0037431  -0.0044760  -0.0017197   0.0020649   0.0090585   0.0030239
            7           8           9          10          11          12
    1   0.0095920   0.0029090   0.0026664  -0.0028048  -0.0062166  -0.0042493
    2  -0.0123368   0.0052990  -0.0016113  -0.0025926  -0.0027760   0.0028714
    3   0.0024959   0.0021718   0.0056712   0.0041149  -0.0024953  -0.0142904
           13          14          15          16          17          18
    1  -0.0080527   0.0054177   0.0012077  -0.0065616  -0.0005109   0.0013558
    2   0.0023596   0.0156070   0.0052524  -0.0112135  -0.0100044   0.0059680
    3  -0.0072402   0.0128040   0.0045465  -0.0126382   0.0044538  -0.0053580
           19          20          21
    1  -0.0012939  -0.0021884   0.0030088
    2   0.0020853   0.0008380  -0.0032035
    3   0.0017719   0.0008275  -0.0010440
 Max gradient component =       1.561E-02
 RMS gradient           =       6.006E-03
 Computing fast CPCM-SWIG gradient
 Updating gradient with PCM contributions...
 -- total gradient after adding PCM contribution --
---------------------------------------------------
  Atom         X              Y              Z     
---------------------------------------------------
   1      -0.000095       0.000035       0.000062
   2       0.000022      -0.000004      -0.000014
   3       0.000007      -0.000018      -0.000039
   4      -0.000080       0.000060      -0.000028
   5       0.000004       0.000027       0.000044
   6       0.000149      -0.000109      -0.000144
   7      -0.000019       0.000004       0.000022
   8      -0.000007      -0.000009      -0.000001
   9      -0.000029       0.000011      -0.000004
  10      -0.000012       0.000018      -0.000007
  11       0.000015       0.000010      -0.000004
  12       0.000010      -0.000000       0.000007
  13       0.000030      -0.000006       0.000001
  14       0.000032      -0.000024       0.000005
  15       0.000004      -0.000007      -0.000008
  16       0.000019      -0.000003       0.000012
  17       0.000023      -0.000035       0.000002
  18       0.000030      -0.000004      -0.000017
  19      -0.000035       0.000014      -0.000004
  20      -0.000087       0.000059       0.000076
  21       0.000020      -0.000019       0.000037
---------------------------------------------------
 Number of fixed atoms: 0
 Gradient time:  CPU 725.07 s  wall 56.87 s
 ######################################################
 ######################################################
 # Starting finite difference calculation for IDERIV  #
 Finite diff step size:  1.88973e-03 a.u.
 ----------------------------------------------------------------
             Standard Nuclear Orientation (Angstroms)
    I     Atom           X                Y                Z
 ----------------------------------------------------------------
    1      C       0.0246043376    -0.2131652861     0.8025716002
    2      C      -0.8079937956    -0.9944727489     1.8119988750
    3      C      -1.5614650554    -2.1820327628     1.2452598923
    4      C      -2.0376520010    -2.0769881719    -0.1408602532
    5      C      -1.7186387183    -0.8531574725    -0.8710066965
    6      C      -1.1271927671     0.2693352622    -0.0894535026
    7      C      -0.7654342214     1.4946268605    -0.9125166498
    8      H       0.4454334215     0.6506726203     1.3218052905
    9      H      -0.2736415591    -1.2305359006     2.7294025047
   10      H      -2.1382098076    -2.7476544068     1.9672542828
   11      H      -2.9092696647    -2.6402610795    -0.4444501699
   12      H      -2.0685491144    -0.7013681340    -1.8823655345
   13      H      -1.6151778919     1.8229052855    -1.5121994620
   14      O       0.3616277228     1.2097156511    -1.7361380907
   15      H      -0.4736220415     2.2970926620    -0.2387377678
   16      H       0.0747583999     0.6566340872    -2.4715593949
   17      O       1.0290402955    -0.9433179048     0.1437850338
   18      H       1.3580161388    -0.3722081217    -0.5640118547
   19      O      -1.7721475847    -0.0016739797     2.1641128793
   20      O      -2.1037304273     0.6831301320     0.9073342406
   21      O      -0.9214681660    -2.9542541916     0.2399341777
 ----------------------------------------------------------------
 Nuclear Repulsion Energy =         802.77957678 hartrees
 There are       46 alpha and       45 beta electrons
 Discretize the solute cavity surface with Lebedev spheres
	Using 110 Lebedev grid points for each H atom
	Using 194 Lebedev grid points for other atoms
	Atomic van der Waals radii will be scaled by 1.20
 Remove points where switching function is < 1.0e-08
 Keep 1502 surface tesserae and discard 1816 interior tesserae
 Molecular Surface Area = 166.342 Angst**2
 Requested basis set is 6-311++G(2df,2p)
 There are 150 shells and 498 basis functions
 A cutoff of  1.0D-12 yielded  10211 shell pairs
 There are    113767 function pairs (    142603 Cartesian)
 Smallest overlap matrix eigenvalue = 2.15E-06
 Guess MOs from SCF MO coefficient file

 -----------------------------------------------------------------------
  General SCF calculation program by
  Eric Jon Sundstrom, Paul Horn, Yuezhi Mao, Dmitri Zuev, Alec White,
  David Stuck, Shaama M.S., Shane Yost, Joonho Lee, David Small,
  Daniel Levine, Susi Lehtola, Hugh Burton, Evgeny Epifanovsky,
  Bang C. Huynh
 -----------------------------------------------------------------------
 Exchange:     0.1500 Hartree-Fock + 1.0000 wB97M-V + LR-HF
 Correlation:  1.0000 wB97M-V
 Using SG-2 standard quadrature grid
 Nonlocal Correlation:  VV10 with C = 0.0100 and b = 6.00 and scale = 1.00000
 Grid used for NLC:  SG-1 standard quadrature
 
 Citation of the SMD model:
 Marenich, A.V.; Cramer, C.J.; Truhlar, D.G.
 J. Phys. Chem. B 2009, 113, 6378-6396.
 iSolventCode=           1
 Solvent: water                                                           
 
 vradii
            1           2           3           4           5           6
    1   1.8500000   1.8500000   1.8500000   1.8500000   1.8500000   1.8500000
            7           8           9          10          11          12
    1   1.8500000   1.2000000   1.2000000   1.2000000   1.2000000   1.2000000
           13          14          15          16          17          18
    1   1.2000000   1.5200000   1.2000000   1.2000000   1.5200000   1.2000000
           19          20          21
    1   1.5200000   1.5200000   1.5200000
 -------------------------------------------------------
 OpenMP BLAS3 based DFT computing Module                
 Release: version 1.0, May 2013, Q-Chem Inc. Pittsburgh 
 -------------------------------------------------------
 A unrestricted SCF calculation will be
 performed using Roothaan-Hall, DIIS, GDM
 SCF converges when RMS gradient is below 1.0e-07
 ---------------------------------------
  Cycle       Energy         DIIS error
 ---------------------------------------
    1    -648.0657475058      1.87e-04  Roothaan Step
 ---------------------------------------
  Cycle       Energy         DIIS error
 ---------------------------------------
    1    -648.0998608427      2.14e-04  
    2    -648.1049556603      1.95e-04  Done DIIS. Switching to GDM
 ---------------------------------------
  Cycle       Energy        RMS Gradient
 ---------------------------------------
    1    -648.1049556603      7.74e-03   Normal BFGS step
    2    -648.1043454176      1.00e-02  Line search: overstep
    3    -648.1080431346      1.47e-03   Normal BFGS step
    4    -648.1082098375      6.71e-04   Normal BFGS step
    5    -648.1082410113      3.30e-04   Normal BFGS step
    6    -648.1082461761      1.34e-04   Normal BFGS step
    7    -648.1082467432      1.18e-04   Normal BFGS step
    8    -648.1082469497      7.80e-05   Normal BFGS step
    9    -648.1082469742      4.06e-05   Normal BFGS step
   10    -648.1082469878      1.87e-05   Normal BFGS step
   11    -648.1082469899      6.74e-06   Normal BFGS step
   12    -648.1082469902      1.46e-06   Normal BFGS step
   13    -648.1082469903      1.03e-06   Normal BFGS step
   14    -648.1082469903      4.63e-07   Normal BFGS step
   15    -648.1082469903      2.40e-07   Normal BFGS step
   16    -648.1082469904      1.29e-07   Normal BFGS step
  GDM::WARNING energy changes are now smaller than effective accuracy.
  GDM::        calculation will continue, but THRESH should be increased
  GDM::        or SCF_CONVERGENCE decreased. 
  GDM::        effective_thresh = 8.21e-09
   17    -648.1082469902      5.03e-08  Convergence criterion met
 ---------------------------------------
 SCF time:   CPU 4228.89s  wall 289.00s 
<S^2> =          0.755071004
(3)  G-ENP(liq) elect-nuc-pol free energy of system     -648.108246990 a.u.
(4)  G-CDS(liq) cavity-dispersion-solvent structure 
     free energy                                                2.7560 kcal/mol
(6)  G-S(liq) free energy of system                     -648.103855044 a.u.
 SCF   energy in the final basis set =     -648.1038550443
 Total energy in the final basis set =     -648.1038550443
 
 --------------------------------------------------------------
 
                    Orbital Energies (a.u.)
 --------------------------------------------------------------
 
 Alpha MOs
 -- Occupied --
-19.4079 -19.4055 -19.3609 -19.3482 -19.3452 -10.4161 -10.4118 -10.4097
-10.4054 -10.4049 -10.3941 -10.3690  -1.2750  -1.2153  -1.1746  -1.1618
 -1.0743  -0.9514  -0.8737  -0.8469  -0.8059  -0.7561  -0.7198  -0.6995
 -0.6683  -0.6411  -0.6151  -0.6071  -0.5981  -0.5862  -0.5687  -0.5512
 -0.5307  -0.5266  -0.5155  -0.4996  -0.4935  -0.4787  -0.4498  -0.4468
 -0.4265  -0.4169  -0.3932  -0.3804  -0.3667  -0.3153
 -- Virtual --
  0.0252   0.0347   0.0363   0.0453   0.0552   0.0563   0.0603   0.0769
  0.0833   0.0849   0.0888   0.0969   0.1164   0.1252   0.1255   0.1329
  0.1366   0.1409   0.1473   0.1515   0.1557   0.1601   0.1617   0.1659
  0.1721   0.1745   0.1796   0.1860   0.1917   0.1954   0.1975   0.2024
  0.2150   0.2199   0.2205   0.2299   0.2322   0.2408   0.2485   0.2533
  0.2695   0.2764   0.2798   0.2883   0.2972   0.3050   0.3058   0.3177
  0.3231   0.3264   0.3350   0.3388   0.3460   0.3477   0.3500   0.3541
  0.3585   0.3744   0.3780   0.3781   0.3820   0.3861   0.3923   0.3954
  0.3986   0.4079   0.4151   0.4200   0.4261   0.4355   0.4398   0.4479
  0.4596   0.4640   0.4706   0.4778   0.4870   0.5112   0.5265   0.5284
  0.5444   0.5647   0.5925   0.5992   0.6104   0.6173   0.6227   0.6324
  0.6495   0.6565   0.6637   0.6694   0.6723   0.6829   0.6874   0.6975
  0.7011   0.7129   0.7190   0.7307   0.7326   0.7382   0.7482   0.7551
  0.7575   0.7773   0.7884   0.7979   0.8220   0.8362   0.8522   0.8621
  0.8820   0.8924   0.9001   0.9246   0.9354   0.9602   0.9717   0.9889
  1.0193   1.0366   1.0507   1.0555   1.0681   1.0770   1.0901   1.1084
  1.1185   1.1225   1.1336   1.1469   1.1521   1.1662   1.1789   1.1872
  1.1924   1.1969   1.2139   1.2234   1.2305   1.2452   1.2505   1.2667
  1.2708   1.2824   1.2911   1.3017   1.3053   1.3174   1.3179   1.3262
  1.3356   1.3427   1.3548   1.3622   1.3702   1.3752   1.3816   1.3894
  1.4053   1.4119   1.4305   1.4404   1.4626   1.4704   1.4871   1.4917
  1.5002   1.5116   1.5277   1.5418   1.5451   1.5533   1.5594   1.5850
  1.5888   1.6102   1.6234   1.6355   1.6510   1.6555   1.6637   1.6858
  1.6993   1.7119   1.7407   1.7604   1.7767   1.7965   1.8131   1.8255
  1.8325   1.8649   1.8856   1.9069   1.9408   1.9813   2.0112   2.0224
  2.0327   2.0435   2.0755   2.0932   2.1134   2.1207   2.1443   2.1700
  2.1952   2.2163   2.2379   2.2673   2.2877   2.3107   2.3371   2.3603
  2.3856   2.4145   2.4206   2.4448   2.4815   2.5132   2.5657   2.6525
  2.6781   2.6955   2.7052   2.7307   2.7766   2.7902   2.7921   2.8080
  2.8285   2.8575   2.8716   2.8857   2.8965   2.9067   2.9247   2.9509
  2.9695   2.9981   3.0071   3.0234   3.0345   3.0550   3.0659   3.0869
  3.0982   3.1225   3.1322   3.1544   3.1891   3.1973   3.2117   3.2315
  3.2408   3.2623   3.2785   3.2960   3.3049   3.3368   3.3591   3.3736
  3.3914   3.4037   3.4179   3.4447   3.4588   3.4680   3.4895   3.5070
  3.5176   3.5297   3.5422   3.5621   3.5748   3.5941   3.6004   3.6198
  3.6291   3.6450   3.6577   3.6750   3.6824   3.7015   3.7124   3.7371
  3.7449   3.7528   3.7595   3.7830   3.8059   3.8128   3.8282   3.8381
  3.8538   3.8728   3.8970   3.9076   3.9164   3.9303   3.9333   3.9463
  3.9533   3.9682   3.9986   4.0054   4.0132   4.0451   4.0505   4.0722
  4.1061   4.1151   4.1472   4.1750   4.1929   4.2209   4.2415   4.2542
  4.2808   4.2820   4.2946   4.3101   4.3356   4.3518   4.3631   4.3724
  4.3793   4.3873   4.4063   4.4228   4.4309   4.4521   4.4778   4.4947
  4.5036   4.5187   4.5221   4.5543   4.5613   4.6027   4.6120   4.6445
  4.6476   4.6620   4.7146   4.7325   4.7393   4.7609   4.7700   4.8191
  4.8916   4.9451   4.9942   5.0818   5.0905   5.1715   5.2294   5.2360
  5.2732   5.2839   5.2980   5.3023   5.3101   5.3299   5.3453   5.3464
  5.3527   5.3699   5.3804   5.3975   5.4173   5.4359   5.4583   5.4681
  5.4944   5.5139   5.5357   5.5469   5.5600   5.5922   5.6059   5.6083
  5.6276   5.6320   5.6759   5.6941   5.7136   5.7472   5.7554   5.7677
  5.7886   5.7923   5.8146   5.8665   5.8856   5.9417   5.9667   5.9868
  6.0268   6.0350   6.0470   6.0730   6.0998   6.2486   6.4769   6.5779
  6.6248   6.6534   6.6768   6.7497   6.7821   7.0466   7.1131   7.1388
  7.1809   7.2777   7.3005   7.3082   7.3316   7.3506   7.3806   7.4067
  7.4272   7.4411   7.4660   7.4813   7.5100   7.5603   7.6355   7.6649
  7.7149   7.7513   7.7943   7.8384   7.8763   7.9130   7.9668   8.2636
 24.5026  24.7078  24.7408  24.7861  24.8305  24.9239  24.9527  50.5981
 50.6218  50.6551  50.6923  50.7202
 
 Beta MOs
 -- Occupied --
-19.4078 -19.4035 -19.3579 -19.3480 -19.3451 -10.4169 -10.4118 -10.4093
-10.4065 -10.4044 -10.3940 -10.3566  -1.2730  -1.2098  -1.1741  -1.1614
 -1.0716  -0.9447  -0.8594  -0.8454  -0.8037  -0.7507  -0.7165  -0.6956
 -0.6649  -0.6368  -0.6128  -0.6034  -0.5939  -0.5832  -0.5670  -0.5448
 -0.5273  -0.5218  -0.5078  -0.4965  -0.4901  -0.4760  -0.4459  -0.4440
 -0.4211  -0.4108  -0.3920  -0.3782  -0.3616
 -- Virtual --
 -0.0186   0.0252   0.0344   0.0364   0.0478   0.0550   0.0565   0.0608
  0.0779   0.0836   0.0848   0.0898   0.0984   0.1165   0.1253   0.1254
  0.1327   0.1374   0.1409   0.1472   0.1508   0.1560   0.1605   0.1614
  0.1663   0.1718   0.1753   0.1795   0.1864   0.1926   0.1953   0.1988
  0.2025   0.2145   0.2200   0.2210   0.2301   0.2323   0.2421   0.2516
  0.2555   0.2711   0.2773   0.2808   0.2900   0.2983   0.3045   0.3071
  0.3190   0.3238   0.3278   0.3355   0.3390   0.3474   0.3493   0.3508
  0.3554   0.3629   0.3749   0.3789   0.3792   0.3828   0.3863   0.3941
  0.3957   0.3999   0.4096   0.4156   0.4216   0.4271   0.4356   0.4400
  0.4502   0.4613   0.4657   0.4728   0.4803   0.4877   0.5137   0.5285
  0.5304   0.5453   0.5663   0.5952   0.6055   0.6125   0.6232   0.6251
  0.6346   0.6505   0.6574   0.6648   0.6702   0.6748   0.6855   0.6871
  0.6983   0.7043   0.7141   0.7213   0.7329   0.7380   0.7394   0.7502
  0.7565   0.7636   0.7820   0.7894   0.8034   0.8250   0.8387   0.8567
  0.8643   0.8842   0.8947   0.9048   0.9264   0.9369   0.9624   0.9741
  0.9904   1.0222   1.0372   1.0513   1.0566   1.0693   1.0783   1.0920
  1.1107   1.1196   1.1237   1.1352   1.1486   1.1545   1.1684   1.1798
  1.1883   1.1941   1.1991   1.2154   1.2259   1.2321   1.2466   1.2529
  1.2694   1.2730   1.2840   1.2932   1.3038   1.3074   1.3185   1.3208
  1.3274   1.3365   1.3445   1.3572   1.3643   1.3718   1.3764   1.3844
  1.3917   1.4074   1.4145   1.4315   1.4419   1.4647   1.4743   1.4884
  1.4958   1.5026   1.5131   1.5319   1.5445   1.5486   1.5565   1.5618
  1.5892   1.5915   1.6112   1.6271   1.6369   1.6548   1.6586   1.6682
  1.6894   1.7019   1.7167   1.7458   1.7624   1.7815   1.8025   1.8144
  1.8270   1.8385   1.8670   1.8885   1.9102   1.9444   1.9830   2.0145
  2.0273   2.0341   2.0454   2.0780   2.0955   2.1159   2.1234   2.1501
  2.1747   2.1967   2.2196   2.2398   2.2698   2.2900   2.3150   2.3381
  2.3616   2.3868   2.4158   2.4223   2.4471   2.4825   2.5158   2.5691
  2.6631   2.6832   2.7008   2.7072   2.7348   2.7828   2.7956   2.8030
  2.8136   2.8381   2.8631   2.8822   2.8943   2.9073   2.9146   2.9297
  2.9760   2.9942   3.0188   3.0304   3.0362   3.0484   3.0595   3.0746
  3.0944   3.1105   3.1280   3.1402   3.1610   3.1927   3.2021   3.2180
  3.2336   3.2489   3.2744   3.2875   3.3063   3.3146   3.3419   3.3698
  3.3850   3.3963   3.4165   3.4276   3.4535   3.4653   3.4838   3.4946
  3.5115   3.5242   3.5324   3.5626   3.5677   3.5800   3.5975   3.6136
  3.6263   3.6371   3.6554   3.6666   3.6846   3.6932   3.7082   3.7196
  3.7449   3.7505   3.7689   3.7725   3.7879   3.8114   3.8194   3.8361
  3.8429   3.8621   3.8787   3.9041   3.9130   3.9214   3.9343   3.9372
  3.9508   3.9621   3.9729   4.0039   4.0095   4.0202   4.0545   4.0609
  4.0790   4.1117   4.1290   4.1537   4.1815   4.1976   4.2243   4.2464
  4.2570   4.2851   4.2930   4.2995   4.3184   4.3413   4.3584   4.3697
  4.3759   4.3854   4.3952   4.4178   4.4269   4.4358   4.4665   4.4846
  4.4985   4.5100   4.5256   4.5321   4.5627   4.5740   4.6093   4.6162
  4.6525   4.6605   4.6654   4.7176   4.7363   4.7505   4.7665   4.7754
  4.8246   4.8951   4.9511   5.0044   5.0909   5.1033   5.1802   5.2363
  5.2430   5.2761   5.2881   5.3006   5.3049   5.3117   5.3349   5.3477
  5.3515   5.3567   5.3729   5.3822   5.4022   5.4203   5.4426   5.4640
  5.4703   5.4969   5.5172   5.5403   5.5502   5.5618   5.5959   5.6095
  5.6143   5.6340   5.6519   5.6775   5.6962   5.7171   5.7497   5.7578
  5.7714   5.7900   5.8150   5.8187   5.8694   5.8910   5.9488   5.9701
  5.9961   6.0298   6.0394   6.0488   6.0758   6.1007   6.2501   6.4849
  6.5812   6.6269   6.6553   6.6780   6.7514   6.7831   7.0491   7.1139
  7.1400   7.1885   7.2843   7.3020   7.3113   7.3325   7.3516   7.3816
  7.4097   7.4279   7.4436   7.4678   7.4854   7.5147   7.5618   7.6379
  7.6661   7.7160   7.7600   7.7949   7.8449   7.8789   7.9159   7.9701
  8.2651  24.5079  24.7098  24.7410  24.7863  24.8307  24.9246  24.9571
 50.5985  50.6221  50.6559  50.6935  50.7218
 --------------------------------------------------------------
 
          Ground-State Mulliken Net Atomic Charges

     Atom                 Charge (a.u.)    Spin (a.u.)
  --------------------------------------------------------
      1 C                    -0.182130       0.045738
      2 C                    -0.024676      -0.022837
      3 C                    -0.416572       0.066481
      4 C                    -0.094718      -0.041550
      5 C                    -0.457302       0.923323
      6 C                     0.193702      -0.103892
      7 C                    -0.328624       0.012039
      8 H                     0.331334      -0.001166
      9 H                     0.270541       0.000757
     10 H                     0.274256       0.002062
     11 H                     0.257761       0.008783
     12 H                     0.330488      -0.016694
     13 H                     0.249569      -0.000054
     14 O                    -0.378042       0.003361
     15 H                     0.237349      -0.001045
     16 H                     0.326484       0.000784
     17 O                    -0.416530       0.004946
     18 H                     0.338191       0.003107
     19 O                    -0.109195       0.003428
     20 O                    -0.120822       0.037340
     21 O                    -0.281063       0.075088
  --------------------------------------------------------
  Sum of atomic charges =     0.000000
  Sum of spin   charges =     1.000000

 -----------------------------------------------------------------
                    Cartesian Multipole Moments
 -----------------------------------------------------------------
    Charge (ESU x 10^10)
                 0.0000
    Dipole Moment (Debye)
         X      -1.3943      Y       1.2714      Z      -2.5780
       Tot       3.1948
    Quadrupole Moments (Debye-Ang)
        XX     -71.7418     XY       7.1932     YY     -78.5924
        XZ       8.4161     YZ      -3.8900     ZZ     -60.9807
    Octopole Moments (Debye-Ang^2)
       XXX     198.8606    XXY      15.5334    XYY      48.1555
       YYY     140.6333    XXZ     -38.8892    XYZ      13.2378
       YYZ      -6.7785    XZZ      64.5616    YZZ      16.6536
       ZZZ     -68.8905
    Hexadecapole Moments (Debye-Ang^3)
      XXXX    -867.1270   XXXY    -102.8771   XXYY    -263.2272
      XYYY    -147.0325   YYYY   -1086.2951   XXXZ     152.1085
      XXYZ      36.9908   XYYZ      36.1700   YYYZ     124.7665
      XXZZ    -261.8363   XYZZ     -40.8063   YYZZ    -254.7019
      XZZZ     147.5300   YZZZ     101.1437   ZZZZ    -598.8283
 -----------------------------------------------------------------
 Calculating analytic gradient of the SCF energy
 Gradient of CDS energy
            1           2           3           4           5           6
    1   0.0019635   0.0000222   0.0000297  -0.0001780  -0.0001348   0.0000450
    2  -0.0013285   0.0001197  -0.0003815  -0.0004019   0.0000775   0.0000665
    3  -0.0011436   0.0001913   0.0002262  -0.0001757  -0.0002568   0.0001566
            7           8           9          10          11          12
    1   0.0000144  -0.0000529   0.0000688  -0.0000970  -0.0001556  -0.0000419
    2   0.0009989   0.0001900  -0.0000108  -0.0000892  -0.0001005   0.0000746
    3  -0.0003477   0.0000987   0.0002045   0.0001415  -0.0000542  -0.0001204
           13          14          15          16          17          18
    1  -0.0002148  -0.0001457   0.0001379   0.0001862  -0.0019979   0.0004418
    2  -0.0002635  -0.0002202  -0.0001154   0.0000510   0.0012017  -0.0000538
    3  -0.0000608   0.0002687   0.0002830  -0.0004979   0.0012336  -0.0001609
           19          20          21
    1   0.0000061   0.0000681   0.0000350
    2   0.0000862  -0.0000696   0.0001691
    3  -0.0000938   0.0000863   0.0000215
 Gradient of SCF Energy
            1           2           3           4           5           6
    1   0.0055134  -0.0086300   0.0058189   0.0054607   0.0025335  -0.0042640
    2  -0.0081566   0.0074088  -0.0009080   0.0039492  -0.0020703   0.0031331
    3  -0.0038634  -0.0044177  -0.0017033   0.0020660   0.0090252   0.0029349
            7           8           9          10          11          12
    1   0.0096104   0.0027257   0.0026906  -0.0028030  -0.0062136  -0.0042491
    2  -0.0123295   0.0051378  -0.0016005  -0.0025917  -0.0027729   0.0028713
    3   0.0024897   0.0020755   0.0056458   0.0041109  -0.0024945  -0.0142857
           13          14          15          16          17          18
    1  -0.0080505   0.0054089   0.0012089  -0.0065595  -0.0009065   0.0013272
    2   0.0023505   0.0156169   0.0052490  -0.0112160  -0.0098333   0.0059958
    3  -0.0072308   0.0128019   0.0045462  -0.0126382   0.0046661  -0.0053441
           19          20          21
    1  -0.0013662  -0.0022625   0.0030069
    2   0.0021050   0.0008631  -0.0032015
    3   0.0018052   0.0008525  -0.0010422
 Max gradient component =       1.562E-02
 RMS gradient           =       6.018E-03
 Computing fast CPCM-SWIG gradient
 Updating gradient with PCM contributions...
 -- total gradient after adding PCM contribution --
---------------------------------------------------
  Atom         X              Y              Z     
---------------------------------------------------
   1       0.001040       0.000040      -0.000057
   2      -0.000155      -0.000088       0.000041
   3      -0.000012      -0.000040      -0.000024
   4      -0.000077       0.000059      -0.000026
   5      -0.000019       0.000020       0.000017
   6      -0.000053      -0.000092      -0.000238
   7       0.000006       0.000006       0.000017
   8      -0.000190      -0.000176      -0.000099
   9      -0.000005       0.000021      -0.000025
  10      -0.000012       0.000018      -0.000008
  11       0.000015       0.000012      -0.000004
  12       0.000009       0.000000       0.000009
  13       0.000028      -0.000013       0.000007
  14       0.000026      -0.000019       0.000004
  15       0.000004      -0.000009      -0.000007
  16       0.000019      -0.000003       0.000012
  17      -0.000365       0.000141       0.000205
  18      -0.000006       0.000021       0.000005
  19      -0.000108       0.000036       0.000028
  20      -0.000160       0.000082       0.000103
  21       0.000018      -0.000016       0.000039
---------------------------------------------------
 Number of fixed atoms: 0
 Gradient time:  CPU 725.20 s  wall 56.48 s
 ----------------------------------------------------------------
             Standard Nuclear Orientation (Angstroms)
    I     Atom           X                Y                Z
 ----------------------------------------------------------------
    1      C       0.0226043376    -0.2131652861     0.8025716002
    2      C      -0.8079937956    -0.9944727489     1.8119988750
    3      C      -1.5614650554    -2.1820327628     1.2452598923
    4      C      -2.0376520010    -2.0769881719    -0.1408602532
    5      C      -1.7186387183    -0.8531574725    -0.8710066965
    6      C      -1.1271927671     0.2693352622    -0.0894535026
    7      C      -0.7654342214     1.4946268605    -0.9125166498
    8      H       0.4454334215     0.6506726203     1.3218052905
    9      H      -0.2736415591    -1.2305359006     2.7294025047
   10      H      -2.1382098076    -2.7476544068     1.9672542828
   11      H      -2.9092696647    -2.6402610795    -0.4444501699
   12      H      -2.0685491144    -0.7013681340    -1.8823655345
   13      H      -1.6151778919     1.8229052855    -1.5121994620
   14      O       0.3616277228     1.2097156511    -1.7361380907
   15      H      -0.4736220415     2.2970926620    -0.2387377678
   16      H       0.0747583999     0.6566340872    -2.4715593949
   17      O       1.0290402955    -0.9433179048     0.1437850338
   18      H       1.3580161388    -0.3722081217    -0.5640118547
   19      O      -1.7721475847    -0.0016739797     2.1641128793
   20      O      -2.1037304273     0.6831301320     0.9073342406
   21      O      -0.9214681660    -2.9542541916     0.2399341777
 ----------------------------------------------------------------
 Nuclear Repulsion Energy =         802.81112300 hartrees
 There are       46 alpha and       45 beta electrons
 Discretize the solute cavity surface with Lebedev spheres
	Using 110 Lebedev grid points for each H atom
	Using 194 Lebedev grid points for other atoms
	Atomic van der Waals radii will be scaled by 1.20
 Remove points where switching function is < 1.0e-08
 Keep 1502 surface tesserae and discard 1816 interior tesserae
 Molecular Surface Area = 166.340 Angst**2
 Requested basis set is 6-311++G(2df,2p)
 There are 150 shells and 498 basis functions
 A cutoff of  1.0D-12 yielded  10212 shell pairs
 There are    113774 function pairs (    142613 Cartesian)
 Smallest overlap matrix eigenvalue = 2.15E-06
 Guess MOs from SCF MO coefficient file

 -----------------------------------------------------------------------
  General SCF calculation program by
  Eric Jon Sundstrom, Paul Horn, Yuezhi Mao, Dmitri Zuev, Alec White,
  David Stuck, Shaama M.S., Shane Yost, Joonho Lee, David Small,
  Daniel Levine, Susi Lehtola, Hugh Burton, Evgeny Epifanovsky,
  Bang C. Huynh
 -----------------------------------------------------------------------
 Exchange:     0.1500 Hartree-Fock + 1.0000 wB97M-V + LR-HF
 Correlation:  1.0000 wB97M-V
 Using SG-2 standard quadrature grid
 Nonlocal Correlation:  VV10 with C = 0.0100 and b = 6.00 and scale = 1.00000
 Grid used for NLC:  SG-1 standard quadrature
 
 Citation of the SMD model:
 Marenich, A.V.; Cramer, C.J.; Truhlar, D.G.
 J. Phys. Chem. B 2009, 113, 6378-6396.
 iSolventCode=           1
 Solvent: water                                                           
 
 vradii
            1           2           3           4           5           6
    1   1.8500000   1.8500000   1.8500000   1.8500000   1.8500000   1.8500000
            7           8           9          10          11          12
    1   1.8500000   1.2000000   1.2000000   1.2000000   1.2000000   1.2000000
           13          14          15          16          17          18
    1   1.2000000   1.5200000   1.2000000   1.2000000   1.5200000   1.2000000
           19          20          21
    1   1.5200000   1.5200000   1.5200000
 -------------------------------------------------------
 OpenMP BLAS3 based DFT computing Module                
 Release: version 1.0, May 2013, Q-Chem Inc. Pittsburgh 
 -------------------------------------------------------
 A unrestricted SCF calculation will be
 performed using Roothaan-Hall, DIIS, GDM
 SCF converges when RMS gradient is below 1.0e-07
 ---------------------------------------
  Cycle       Energy         DIIS error
 ---------------------------------------
    1    -648.0657345419      1.87e-04  Roothaan Step
 ---------------------------------------
  Cycle       Energy         DIIS error
 ---------------------------------------
    1    -648.0998246134      2.14e-04  
    2    -648.1049187590      1.96e-04  Done DIIS. Switching to GDM
 ---------------------------------------
  Cycle       Energy        RMS Gradient
 ---------------------------------------
    1    -648.1049187590      7.80e-03   Normal BFGS step
    2    -648.1043026242      1.00e-02  Line search: overstep
    3    -648.1080352838      1.47e-03   Normal BFGS step
    4    -648.1082023125      6.68e-04   Normal BFGS step
    5    -648.1082336073      3.31e-04   Normal BFGS step
    6    -648.1082388133      1.33e-04   Normal BFGS step
    7    -648.1082393848      1.18e-04   Normal BFGS step
    8    -648.1082395925      7.82e-05   Normal BFGS step
    9    -648.1082396171      4.05e-05   Normal BFGS step
   10    -648.1082396307      1.88e-05   Normal BFGS step
   11    -648.1082396328      6.77e-06   Normal BFGS step
   12    -648.1082396331      1.48e-06   Normal BFGS step
   13    -648.1082396332      1.01e-06   Normal BFGS step
   14    -648.1082396332      4.49e-07   Normal BFGS step
   15    -648.1082396332      2.35e-07   Normal BFGS step
   16    -648.1082396332      1.28e-07   Normal BFGS step
  GDM::WARNING energy changes are now smaller than effective accuracy.
  GDM::        calculation will continue, but THRESH should be increased
  GDM::        or SCF_CONVERGENCE decreased. 
  GDM::        effective_thresh = 5.05e-09
   17    -648.1082396331      5.01e-08  Convergence criterion met
 ---------------------------------------
 SCF time:   CPU 4229.40s  wall 290.00s 
<S^2> =          0.755071631
(3)  G-ENP(liq) elect-nuc-pol free energy of system     -648.108239633 a.u.
(4)  G-CDS(liq) cavity-dispersion-solvent structure 
     free energy                                                2.7516 kcal/mol
(6)  G-S(liq) free energy of system                     -648.103854685 a.u.
 SCF   energy in the final basis set =     -648.1038546848
 Total energy in the final basis set =     -648.1038546848
 
 --------------------------------------------------------------
 
                    Orbital Energies (a.u.)
 --------------------------------------------------------------
 
 Alpha MOs
 -- Occupied --
-19.4079 -19.4055 -19.3609 -19.3482 -19.3451 -10.4161 -10.4118 -10.4097
-10.4054 -10.4049 -10.3941 -10.3690  -1.2751  -1.2153  -1.1743  -1.1616
 -1.0744  -0.9516  -0.8738  -0.8469  -0.8059  -0.7561  -0.7199  -0.6995
 -0.6684  -0.6410  -0.6150  -0.6072  -0.5982  -0.5862  -0.5686  -0.5513
 -0.5307  -0.5266  -0.5155  -0.4996  -0.4935  -0.4787  -0.4499  -0.4468
 -0.4265  -0.4170  -0.3933  -0.3805  -0.3668  -0.3153
 -- Virtual --
  0.0252   0.0347   0.0363   0.0453   0.0552   0.0563   0.0602   0.0769
  0.0833   0.0849   0.0887   0.0969   0.1164   0.1252   0.1255   0.1330
  0.1366   0.1408   0.1473   0.1515   0.1557   0.1601   0.1617   0.1659
  0.1721   0.1746   0.1796   0.1860   0.1917   0.1954   0.1975   0.2024
  0.2150   0.2199   0.2206   0.2299   0.2322   0.2407   0.2485   0.2533
  0.2695   0.2764   0.2798   0.2883   0.2971   0.3050   0.3058   0.3177
  0.3231   0.3265   0.3351   0.3388   0.3459   0.3477   0.3501   0.3541
  0.3585   0.3744   0.3780   0.3781   0.3820   0.3861   0.3924   0.3955
  0.3986   0.4078   0.4150   0.4200   0.4261   0.4356   0.4398   0.4479
  0.4596   0.4640   0.4706   0.4778   0.4870   0.5113   0.5265   0.5284
  0.5445   0.5647   0.5926   0.5992   0.6104   0.6173   0.6227   0.6324
  0.6496   0.6566   0.6637   0.6694   0.6723   0.6828   0.6874   0.6975
  0.7011   0.7129   0.7190   0.7308   0.7326   0.7382   0.7482   0.7551
  0.7575   0.7773   0.7884   0.7981   0.8219   0.8362   0.8521   0.8622
  0.8821   0.8923   0.9001   0.9246   0.9355   0.9602   0.9717   0.9889
  1.0193   1.0367   1.0507   1.0554   1.0682   1.0771   1.0901   1.1084
  1.1184   1.1225   1.1336   1.1468   1.1521   1.1662   1.1790   1.1873
  1.1925   1.1970   1.2139   1.2235   1.2305   1.2451   1.2504   1.2667
  1.2709   1.2825   1.2911   1.3018   1.3052   1.3174   1.3179   1.3262
  1.3357   1.3426   1.3548   1.3623   1.3702   1.3753   1.3816   1.3895
  1.4054   1.4119   1.4305   1.4404   1.4626   1.4704   1.4870   1.4917
  1.5003   1.5116   1.5278   1.5418   1.5451   1.5535   1.5594   1.5852
  1.5888   1.6102   1.6234   1.6355   1.6509   1.6556   1.6637   1.6859
  1.6994   1.7119   1.7407   1.7606   1.7767   1.7966   1.8132   1.8255
  1.8326   1.8649   1.8856   1.9070   1.9409   1.9813   2.0112   2.0225
  2.0327   2.0434   2.0755   2.0932   2.1134   2.1206   2.1443   2.1700
  2.1951   2.2164   2.2379   2.2673   2.2878   2.3103   2.3369   2.3600
  2.3856   2.4145   2.4209   2.4449   2.4814   2.5130   2.5657   2.6527
  2.6781   2.6955   2.7052   2.7308   2.7767   2.7904   2.7921   2.8081
  2.8286   2.8575   2.8717   2.8856   2.8967   2.9067   2.9250   2.9509
  2.9698   2.9982   3.0073   3.0237   3.0347   3.0551   3.0660   3.0870
  3.0984   3.1226   3.1324   3.1544   3.1892   3.1973   3.2117   3.2316
  3.2407   3.2622   3.2785   3.2959   3.3050   3.3369   3.3590   3.3736
  3.3914   3.4037   3.4179   3.4447   3.4589   3.4680   3.4895   3.5071
  3.5175   3.5300   3.5421   3.5620   3.5749   3.5945   3.6005   3.6198
  3.6291   3.6451   3.6577   3.6750   3.6825   3.7015   3.7123   3.7372
  3.7448   3.7527   3.7596   3.7829   3.8056   3.8128   3.8281   3.8384
  3.8539   3.8730   3.8976   3.9078   3.9167   3.9305   3.9332   3.9462
  3.9536   3.9683   3.9987   4.0058   4.0133   4.0455   4.0508   4.0723
  4.1064   4.1152   4.1472   4.1752   4.1932   4.2212   4.2417   4.2543
  4.2812   4.2822   4.2946   4.3103   4.3358   4.3519   4.3633   4.3724
  4.3793   4.3872   4.4064   4.4229   4.4310   4.4521   4.4780   4.4938
  4.5035   4.5189   4.5223   4.5544   4.5613   4.6032   4.6120   4.6449
  4.6479   4.6622   4.7147   4.7329   4.7395   4.7611   4.7705   4.8198
  4.8915   4.9451   4.9945   5.0820   5.0907   5.1718   5.2296   5.2368
  5.2732   5.2840   5.2980   5.3023   5.3102   5.3299   5.3454   5.3464
  5.3529   5.3699   5.3806   5.3974   5.4177   5.4359   5.4583   5.4680
  5.4946   5.5140   5.5358   5.5474   5.5601   5.5922   5.6059   5.6082
  5.6276   5.6317   5.6757   5.6941   5.7134   5.7463   5.7550   5.7674
  5.7887   5.7922   5.8145   5.8667   5.8855   5.9415   5.9662   5.9865
  6.0264   6.0349   6.0470   6.0719   6.0983   6.2486   6.4769   6.5779
  6.6248   6.6534   6.6767   6.7490   6.7796   7.0466   7.1131   7.1387
  7.1809   7.2776   7.3005   7.3081   7.3316   7.3505   7.3806   7.4065
  7.4269   7.4409   7.4658   7.4814   7.5098   7.5603   7.6355   7.6649
  7.7146   7.7512   7.7943   7.8384   7.8763   7.9129   7.9668   8.2637
 24.5027  24.7080  24.7406  24.7856  24.8312  24.9245  24.9530  50.5982
 50.6218  50.6548  50.6923  50.7201
 
 Beta MOs
 -- Occupied --
-19.4079 -19.4035 -19.3579 -19.3480 -19.3450 -10.4169 -10.4118 -10.4092
-10.4065 -10.4044 -10.3941 -10.3566  -1.2731  -1.2098  -1.1738  -1.1612
 -1.0716  -0.9449  -0.8595  -0.8454  -0.8038  -0.7507  -0.7166  -0.6955
 -0.6650  -0.6367  -0.6127  -0.6034  -0.5939  -0.5832  -0.5669  -0.5449
 -0.5273  -0.5217  -0.5078  -0.4965  -0.4901  -0.4761  -0.4461  -0.4440
 -0.4212  -0.4108  -0.3921  -0.3783  -0.3616
 -- Virtual --
 -0.0186   0.0252   0.0344   0.0364   0.0478   0.0550   0.0565   0.0608
  0.0779   0.0836   0.0848   0.0898   0.0984   0.1165   0.1253   0.1254
  0.1327   0.1374   0.1409   0.1472   0.1508   0.1559   0.1605   0.1614
  0.1663   0.1718   0.1753   0.1794   0.1864   0.1926   0.1953   0.1988
  0.2025   0.2145   0.2200   0.2211   0.2301   0.2323   0.2421   0.2516
  0.2555   0.2711   0.2772   0.2809   0.2899   0.2981   0.3045   0.3071
  0.3190   0.3238   0.3279   0.3355   0.3390   0.3473   0.3492   0.3509
  0.3554   0.3629   0.3749   0.3789   0.3792   0.3828   0.3864   0.3941
  0.3958   0.3999   0.4096   0.4155   0.4215   0.4271   0.4357   0.4400
  0.4502   0.4612   0.4657   0.4728   0.4804   0.4877   0.5137   0.5285
  0.5303   0.5453   0.5663   0.5952   0.6054   0.6126   0.6232   0.6251
  0.6346   0.6505   0.6574   0.6649   0.6702   0.6748   0.6855   0.6871
  0.6983   0.7043   0.7141   0.7213   0.7330   0.7380   0.7394   0.7501
  0.7565   0.7636   0.7820   0.7894   0.8035   0.8250   0.8387   0.8566
  0.8643   0.8842   0.8947   0.9048   0.9264   0.9370   0.9625   0.9741
  0.9904   1.0222   1.0373   1.0514   1.0566   1.0695   1.0784   1.0920
  1.1107   1.1196   1.1236   1.1352   1.1486   1.1545   1.1684   1.1799
  1.1883   1.1941   1.1991   1.2154   1.2260   1.2320   1.2465   1.2528
  1.2695   1.2730   1.2841   1.2932   1.3039   1.3074   1.3185   1.3208
  1.3274   1.3365   1.3444   1.3572   1.3644   1.3717   1.3765   1.3845
  1.3918   1.4074   1.4145   1.4314   1.4420   1.4648   1.4743   1.4884
  1.4959   1.5027   1.5132   1.5319   1.5445   1.5486   1.5567   1.5618
  1.5894   1.5915   1.6112   1.6271   1.6370   1.6546   1.6587   1.6683
  1.6895   1.7020   1.7167   1.7458   1.7626   1.7815   1.8026   1.8144
  1.8270   1.8385   1.8670   1.8885   1.9103   1.9444   1.9830   2.0145
  2.0273   2.0341   2.0453   2.0780   2.0955   2.1159   2.1234   2.1501
  2.1747   2.1967   2.2197   2.2398   2.2698   2.2900   2.3146   2.3379
  2.3613   2.3868   2.4158   2.4226   2.4471   2.4825   2.5156   2.5691
  2.6633   2.6832   2.7008   2.7071   2.7349   2.7830   2.7957   2.8031
  2.8135   2.8382   2.8632   2.8824   2.8942   2.9074   2.9146   2.9300
  2.9762   2.9944   3.0187   3.0309   3.0364   3.0484   3.0596   3.0747
  3.0944   3.1107   3.1280   3.1404   3.1610   3.1928   3.2022   3.2180
  3.2337   3.2489   3.2744   3.2876   3.3061   3.3148   3.3421   3.3697
  3.3851   3.3963   3.4164   3.4276   3.4534   3.4654   3.4838   3.4946
  3.5116   3.5242   3.5327   3.5623   3.5678   3.5802   3.5980   3.6137
  3.6263   3.6371   3.6556   3.6666   3.6846   3.6932   3.7083   3.7195
  3.7450   3.7504   3.7688   3.7726   3.7878   3.8112   3.8193   3.8360
  3.8431   3.8622   3.8789   3.9047   3.9131   3.9218   3.9344   3.9371
  3.9508   3.9624   3.9730   4.0040   4.0098   4.0204   4.0546   4.0613
  4.0791   4.1119   4.1293   4.1537   4.1816   4.1979   4.2246   4.2466
  4.2571   4.2856   4.2932   4.2995   4.3185   4.3414   4.3585   4.3699
  4.3758   4.3854   4.3951   4.4178   4.4270   4.4360   4.4666   4.4847
  4.4977   4.5099   4.5258   4.5325   4.5627   4.5741   4.6096   4.6162
  4.6529   4.6608   4.6656   4.7176   4.7367   4.7506   4.7667   4.7760
  4.8253   4.8950   4.9511   5.0047   5.0913   5.1035   5.1805   5.2364
  5.2437   5.2761   5.2881   5.3006   5.3049   5.3118   5.3349   5.3477
  5.3516   5.3569   5.3728   5.3824   5.4020   5.4208   5.4425   5.4640
  5.4702   5.4971   5.5173   5.5403   5.5506   5.5619   5.5959   5.6093
  5.6143   5.6339   5.6517   5.6774   5.6962   5.7167   5.7487   5.7577
  5.7710   5.7901   5.8150   5.8185   5.8695   5.8909   5.9486   5.9695
  5.9959   6.0294   6.0393   6.0488   6.0748   6.0993   6.2502   6.4849
  6.5813   6.6269   6.6553   6.6780   6.7507   6.7807   7.0491   7.1139
  7.1399   7.1885   7.2843   7.3020   7.3112   7.3324   7.3515   7.3816
  7.4095   7.4276   7.4434   7.4676   7.4855   7.5145   7.5617   7.6379
  7.6661   7.7158   7.7599   7.7949   7.8450   7.8789   7.9158   7.9701
  8.2652  24.5080  24.7100  24.7408  24.7859  24.8315  24.9251  24.9574
 50.5985  50.6221  50.6557  50.6934  50.7217
 --------------------------------------------------------------
 
          Ground-State Mulliken Net Atomic Charges

     Atom                 Charge (a.u.)    Spin (a.u.)
  --------------------------------------------------------
      1 C                    -0.182029       0.045686
      2 C                    -0.024972      -0.022817
      3 C                    -0.416569       0.066475
      4 C                    -0.094557      -0.041590
      5 C                    -0.457612       0.923390
      6 C                     0.194687      -0.103909
      7 C                    -0.328535       0.012015
      8 H                     0.331148      -0.001168
      9 H                     0.270551       0.000757
     10 H                     0.274240       0.002063
     11 H                     0.257785       0.008781
     12 H                     0.330472      -0.016683
     13 H                     0.249624      -0.000054
     14 O                    -0.378042       0.003361
     15 H                     0.237354      -0.001044
     16 H                     0.326484       0.000784
     17 O                    -0.417334       0.004958
     18 H                     0.338177       0.003099
     19 O                    -0.109111       0.003432
     20 O                    -0.120775       0.037369
     21 O                    -0.280988       0.075095
  --------------------------------------------------------
  Sum of atomic charges =     0.000000
  Sum of spin   charges =     1.000000

 -----------------------------------------------------------------
                    Cartesian Multipole Moments
 -----------------------------------------------------------------
    Charge (ESU x 10^10)
                 0.0000
    Dipole Moment (Debye)
         X      -1.4034      Y       1.2736      Z      -2.5762
       Tot       3.1982
    Quadrupole Moments (Debye-Ang)
        XX     -71.7405     XY       7.1981     YY     -78.5882
        XZ       8.4136     YZ      -3.8953     ZZ     -60.9693
    Octopole Moments (Debye-Ang^2)
       XXX     198.8614    XXY      15.5363    XYY      48.1474
       YYY     140.6355    XXZ     -38.8913    XYZ      13.2426
       YYZ      -6.7767    XZZ      64.5546    YZZ      16.6458
       ZZZ     -68.8630
    Hexadecapole Moments (Debye-Ang^3)
      XXXX    -867.0950   XXXY    -102.8669   XXYY    -263.2083
      XYYY    -147.0175   YYYY   -1086.2454   XXXZ     152.1300
      XXYZ      36.9878   XYYZ      36.1794   YYYZ     124.7439
      XXZZ    -261.8182   XYZZ     -40.7978   YYZZ    -254.6754
      XZZZ     147.5330   YZZZ     101.0982   ZZZZ    -598.7044
 -----------------------------------------------------------------
 Calculating analytic gradient of the SCF energy
 Gradient of CDS energy
            1           2           3           4           5           6
    1   0.0017382   0.0000233   0.0000297  -0.0001780  -0.0001346   0.0000457
    2  -0.0011723   0.0001201  -0.0003816  -0.0004019   0.0000774   0.0000662
    3  -0.0010010   0.0001906   0.0002263  -0.0001757  -0.0002569   0.0001570
            7           8           9          10          11          12
    1   0.0000145  -0.0000468   0.0000689  -0.0000970  -0.0001556  -0.0000419
    2   0.0009989   0.0001900  -0.0000108  -0.0000892  -0.0001005   0.0000746
    3  -0.0003477   0.0000982   0.0002046   0.0001415  -0.0000542  -0.0001204
           13          14          15          16          17          18
    1  -0.0002149  -0.0001458   0.0001379   0.0001862  -0.0017824   0.0004430
    2  -0.0002635  -0.0002203  -0.0001154   0.0000510   0.0010458  -0.0000542
    3  -0.0000607   0.0002686   0.0002829  -0.0004979   0.0010919  -0.0001610
           19          20          21
    1   0.0000061   0.0000681   0.0000356
    2   0.0000862  -0.0000696   0.0001692
    3  -0.0000938   0.0000863   0.0000213
 Gradient of SCF Energy
            1           2           3           4           5           6
    1   0.0032959  -0.0083079   0.0058712   0.0054526   0.0025731  -0.0038770
    2  -0.0081859   0.0075936  -0.0008629   0.0039528  -0.0020470   0.0031090
    3  -0.0036224  -0.0045347  -0.0017361   0.0020638   0.0090919   0.0031137
            7           8           9          10          11          12
    1   0.0095735   0.0030920   0.0026421  -0.0028065  -0.0062196  -0.0042494
    2  -0.0123441   0.0054601  -0.0016221  -0.0025934  -0.0027790   0.0028715
    3   0.0025021   0.0022680   0.0056965   0.0041190  -0.0024961  -0.0142951
           13          14          15          16          17          18
    1  -0.0080549   0.0054266   0.0012065  -0.0065638  -0.0001139   0.0013843
    2   0.0023687   0.0155971   0.0052558  -0.0112111  -0.0101764   0.0059403
    3  -0.0072496   0.0128060   0.0045467  -0.0126382   0.0042409  -0.0053717
           19          20          21
    1  -0.0012214  -0.0021141   0.0030107
    2   0.0020656   0.0008128  -0.0032055
    3   0.0017385   0.0008025  -0.0010457
 Max gradient component =       1.560E-02
 RMS gradient           =       5.998E-03
 Computing fast CPCM-SWIG gradient
 Updating gradient with PCM contributions...
 -- total gradient after adding PCM contribution --
---------------------------------------------------
  Atom         X              Y              Z     
---------------------------------------------------
   1      -0.001232       0.000032       0.000182
   2       0.000199       0.000081      -0.000069
   3       0.000026       0.000004      -0.000053
   4      -0.000082       0.000062      -0.000030
   5       0.000027       0.000033       0.000071
   6       0.000352      -0.000126      -0.000050
   7      -0.000043       0.000001       0.000028
   8       0.000175       0.000157       0.000098
   9      -0.000052       0.000001       0.000017
  10      -0.000011       0.000019      -0.000006
  11       0.000015       0.000009      -0.000004
  12       0.000012      -0.000000       0.000005
  13       0.000032       0.000001      -0.000005
  14       0.000037      -0.000029       0.000006
  15       0.000003      -0.000006      -0.000009
  16       0.000019      -0.000003       0.000013
  17       0.000413      -0.000212      -0.000202
  18       0.000065      -0.000029      -0.000040
  19       0.000038      -0.000009      -0.000036
  20      -0.000014       0.000035       0.000050
  21       0.000022      -0.000022       0.000034
---------------------------------------------------
 Number of fixed atoms: 0
 Gradient time:  CPU 737.18 s  wall 56.24 s
 ----------------------------------------------------------------
             Standard Nuclear Orientation (Angstroms)
    I     Atom           X                Y                Z
 ----------------------------------------------------------------
    1      C       0.0236043376    -0.2121652861     0.8025716002
    2      C      -0.8079937956    -0.9944727489     1.8119988750
    3      C      -1.5614650554    -2.1820327628     1.2452598923
    4      C      -2.0376520010    -2.0769881719    -0.1408602532
    5      C      -1.7186387183    -0.8531574725    -0.8710066965
    6      C      -1.1271927671     0.2693352622    -0.0894535026
    7      C      -0.7654342214     1.4946268605    -0.9125166498
    8      H       0.4454334215     0.6506726203     1.3218052905
    9      H      -0.2736415591    -1.2305359006     2.7294025047
   10      H      -2.1382098076    -2.7476544068     1.9672542828
   11      H      -2.9092696647    -2.6402610795    -0.4444501699
   12      H      -2.0685491144    -0.7013681340    -1.8823655345
   13      H      -1.6151778919     1.8229052855    -1.5121994620
   14      O       0.3616277228     1.2097156511    -1.7361380907
   15      H      -0.4736220415     2.2970926620    -0.2387377678
   16      H       0.0747583999     0.6566340872    -2.4715593949
   17      O       1.0290402955    -0.9433179048     0.1437850338
   18      H       1.3580161388    -0.3722081217    -0.5640118547
   19      O      -1.7721475847    -0.0016739797     2.1641128793
   20      O      -2.1037304273     0.6831301320     0.9073342406
   21      O      -0.9214681660    -2.9542541916     0.2399341777
 ----------------------------------------------------------------
 Nuclear Repulsion Energy =         802.78760898 hartrees
 There are       46 alpha and       45 beta electrons
 Discretize the solute cavity surface with Lebedev spheres
	Using 110 Lebedev grid points for each H atom
	Using 194 Lebedev grid points for other atoms
	Atomic van der Waals radii will be scaled by 1.20
 Remove points where switching function is < 1.0e-08
 Keep 1502 surface tesserae and discard 1816 interior tesserae
 Molecular Surface Area = 166.339 Angst**2
 Requested basis set is 6-311++G(2df,2p)
 There are 150 shells and 498 basis functions
 A cutoff of  1.0D-12 yielded  10211 shell pairs
 There are    113767 function pairs (    142603 Cartesian)
 Smallest overlap matrix eigenvalue = 2.15E-06
 Guess MOs from SCF MO coefficient file

 -----------------------------------------------------------------------
  General SCF calculation program by
  Eric Jon Sundstrom, Paul Horn, Yuezhi Mao, Dmitri Zuev, Alec White,
  David Stuck, Shaama M.S., Shane Yost, Joonho Lee, David Small,
  Daniel Levine, Susi Lehtola, Hugh Burton, Evgeny Epifanovsky,
  Bang C. Huynh
 -----------------------------------------------------------------------
 Exchange:     0.1500 Hartree-Fock + 1.0000 wB97M-V + LR-HF
 Correlation:  1.0000 wB97M-V
 Using SG-2 standard quadrature grid
 Nonlocal Correlation:  VV10 with C = 0.0100 and b = 6.00 and scale = 1.00000
 Grid used for NLC:  SG-1 standard quadrature
 
 Citation of the SMD model:
 Marenich, A.V.; Cramer, C.J.; Truhlar, D.G.
 J. Phys. Chem. B 2009, 113, 6378-6396.
 iSolventCode=           1
 Solvent: water                                                           
 
 vradii
            1           2           3           4           5           6
    1   1.8500000   1.8500000   1.8500000   1.8500000   1.8500000   1.8500000
            7           8           9          10          11          12
    1   1.8500000   1.2000000   1.2000000   1.2000000   1.2000000   1.2000000
           13          14          15          16          17          18
    1   1.2000000   1.5200000   1.2000000   1.2000000   1.5200000   1.2000000
           19          20          21
    1   1.5200000   1.5200000   1.5200000
 -------------------------------------------------------
 OpenMP BLAS3 based DFT computing Module                
 Release: version 1.0, May 2013, Q-Chem Inc. Pittsburgh 
 -------------------------------------------------------
 A unrestricted SCF calculation will be
 performed using Roothaan-Hall, DIIS, GDM
 SCF converges when RMS gradient is below 1.0e-07
 ---------------------------------------
  Cycle       Energy         DIIS error
 ---------------------------------------
[...]
 C         -0.037 -0.026  0.005   -0.035 -0.076  0.012    0.028  0.019  0.066
 C          0.013  0.018  0.001    0.047  0.081  0.007    0.005  0.001 -0.007
 C         -0.007  0.120 -0.075   -0.011  0.188 -0.120   -0.005 -0.008  0.009
 C         -0.002 -0.074  0.014   -0.003 -0.084  0.047    0.004  0.000 -0.000
 H          0.025 -0.315  0.535    0.223  0.102 -0.378    0.069  0.127 -0.191
 H          0.172  0.087 -0.007   -0.174 -0.187  0.063    0.417 -0.330 -0.308
 H          0.008 -0.007 -0.078   -0.182  0.170  0.017    0.077 -0.360 -0.324
 H          0.070 -0.150 -0.080   -0.065 -0.087  0.099    0.271 -0.380  0.147
 H         -0.024 -0.042  0.001   -0.123 -0.293  0.005    0.025  0.102  0.002
 H          0.117 -0.019 -0.116   -0.046 -0.147  0.081    0.021  0.007 -0.019
 O          0.019  0.004 -0.012    0.002  0.001 -0.012   -0.003  0.002  0.000
 H         -0.269 -0.226  0.307   -0.115 -0.123  0.139    0.010  0.013 -0.017
 H         -0.305 -0.010  0.120    0.010 -0.008 -0.011   -0.005  0.000  0.002
 O          0.013  0.007 -0.019    0.008 -0.027  0.024    0.026 -0.029 -0.009
 H          0.232 -0.258 -0.118   -0.399  0.430  0.180   -0.134  0.160  0.058
 O          0.001 -0.002 -0.011   -0.017  0.007  0.019    0.009 -0.000 -0.047
 O          0.011 -0.015  0.010    0.020 -0.025  0.003   -0.008  0.004  0.007
 O         -0.000 -0.016 -0.007    0.000  0.022  0.004   -0.050  0.000  0.017
 TransDip  -0.033 -0.031  0.119   -0.165  0.041  0.079   -0.012  0.092  0.025

 Mode:                37                     38                     39
 Frequency:      1280.03                1297.63                1314.15
 Force Cnst:      1.7414                 1.6268                 1.4978
 Red. Mass:       1.8039                 1.6397                 1.4720
 IR Active:          YES                    YES                    YES
 IR Intens:       28.551                 17.398                 48.754
 Raman Active:       YES                    YES                    YES
               X      Y      Z        X      Y      Z        X      Y      Z
 C         -0.044  0.094  0.096   -0.010 -0.012 -0.038    0.065 -0.044 -0.086
 C         -0.069 -0.015  0.054   -0.079 -0.020  0.062   -0.011  0.036  0.028
 C          0.039 -0.007  0.053    0.026 -0.017  0.050    0.032  0.008  0.036
 C         -0.026 -0.037 -0.021   -0.009  0.003 -0.049    0.001 -0.012  0.020
 C          0.002  0.005  0.019   -0.023 -0.014 -0.038   -0.019 -0.039  0.003
 C         -0.068 -0.012 -0.090    0.086  0.017  0.138   -0.045 -0.013 -0.053
 C          0.019  0.010  0.052   -0.026 -0.020 -0.061    0.015  0.005  0.032
 H         -0.216  0.158  0.134    0.208  0.072 -0.357    0.598 -0.388  0.038
 H          0.326 -0.252 -0.236    0.264 -0.274 -0.203    0.001 -0.379 -0.085
 H         -0.102  0.331  0.217   -0.017  0.348  0.318   -0.102 -0.086 -0.144
 H         -0.215  0.364 -0.258   -0.126  0.183 -0.069   -0.084  0.251 -0.238
 H          0.044  0.100  0.019   -0.076 -0.214 -0.055    0.108  0.271  0.005
 H         -0.093 -0.160  0.111    0.119  0.214 -0.132   -0.010 -0.081  0.017
 O         -0.014 -0.007 -0.003    0.018  0.011  0.006   -0.012 -0.002 -0.003
 H          0.090  0.176 -0.180   -0.052 -0.188  0.157    0.038  0.102 -0.097
 H          0.251 -0.003 -0.105   -0.306  0.012  0.126    0.136 -0.004 -0.057
 O          0.065 -0.069 -0.057   -0.007  0.020  0.017   -0.055  0.068  0.057
 H          0.001  0.032 -0.013   -0.022  0.021  0.012   -0.026 -0.005  0.019
 O          0.008  0.006 -0.035    0.014 -0.003 -0.035   -0.006 -0.001 -0.010
 O          0.011 -0.005  0.010   -0.020  0.011 -0.003   -0.002  0.001  0.004
 O          0.034 -0.001 -0.016    0.024 -0.003 -0.020    0.006 -0.002  0.001
 TransDip  -0.141  0.080  0.054   -0.097  0.056  0.072    0.166 -0.108 -0.103

 Mode:                40                     41                     42
 Frequency:      1348.03                1359.69                1381.22
 Force Cnst:      2.0354                 1.7589                 1.9627
 Red. Mass:       1.9011                 1.6148                 1.7461
 IR Active:          YES                    YES                    YES
 IR Intens:      107.823                 75.950                  3.994
 Raman Active:       YES                    YES                    YES
               X      Y      Z        X      Y      Z        X      Y      Z
 C         -0.091  0.138 -0.056    0.081 -0.034  0.016   -0.071  0.008 -0.007
 C         -0.011 -0.116 -0.003   -0.083 -0.110  0.024    0.052  0.129  0.047
 C         -0.010  0.034  0.010   -0.013  0.010 -0.036   -0.061 -0.108 -0.031
 C          0.025  0.062 -0.026   -0.004  0.028 -0.046    0.035  0.091 -0.087
 C         -0.052 -0.121  0.005    0.034  0.033  0.043   -0.002 -0.050  0.036
 C          0.031  0.023  0.013   -0.055 -0.035 -0.074   -0.006 -0.006 -0.013
 C          0.008 -0.001 -0.004    0.019  0.016  0.042    0.020  0.030 -0.002
 H          0.384 -0.163  0.037    0.325  0.005 -0.258    0.085 -0.229  0.256
 H         -0.111  0.356  0.176    0.305  0.475 -0.051   -0.083 -0.428 -0.012
 H          0.133  0.021  0.110    0.177  0.252  0.306    0.127  0.214  0.399
 H          0.052  0.024 -0.009    0.085 -0.265  0.261    0.084 -0.271  0.488
 H          0.146  0.335  0.007   -0.039 -0.097  0.056    0.027  0.023  0.045
 H         -0.031 -0.041  0.033    0.038 -0.064 -0.030   -0.064 -0.087  0.053
 O          0.000  0.002  0.000   -0.020 -0.008 -0.009   -0.008 -0.011 -0.005
 H          0.003 -0.039  0.042   -0.047  0.119 -0.051   -0.110 -0.029  0.126
 H         -0.027 -0.000  0.011    0.217 -0.014 -0.091    0.128 -0.014 -0.054
 O          0.053 -0.072  0.006   -0.037  0.050  0.022    0.018 -0.002 -0.011
 H         -0.407  0.449  0.183    0.093 -0.118 -0.042    0.071 -0.074 -0.039
 O          0.009  0.005  0.010   -0.002  0.011  0.002    0.005 -0.012 -0.015
 O          0.001 -0.000 -0.001    0.002  0.000  0.009   -0.000  0.001  0.002
 O          0.003 -0.008 -0.007   -0.002 -0.003 -0.008   -0.007  0.008 -0.007
 TransDip  -0.241  0.217  0.075    0.201 -0.137 -0.137   -0.003  0.046  0.044

 Mode:                43                     44                     45
 Frequency:      1399.70                1421.03                1430.11
 Force Cnst:      1.3854                 1.8083                 2.3915
 Red. Mass:       1.2002                 1.5199                 1.9846
 IR Active:          YES                    YES                    YES
 IR Intens:       40.604                 14.780                 13.115
 Raman Active:       YES                    YES                    YES
               X      Y      Z        X      Y      Z        X      Y      Z
 C         -0.002 -0.001 -0.004   -0.011  0.065 -0.078    0.044 -0.068  0.020
 C         -0.001 -0.007 -0.011    0.009  0.003  0.026    0.002  0.012  0.001
 C          0.011  0.015  0.018    0.003 -0.003 -0.005   -0.011 -0.008  0.015
 C         -0.003 -0.008  0.009   -0.022 -0.029 -0.003    0.024  0.058 -0.036
 C         -0.011 -0.009 -0.016    0.038  0.105  0.001   -0.051 -0.145  0.014
 C          0.026  0.005  0.049    0.014 -0.097  0.021    0.053  0.147 -0.046
 C          0.050  0.054  0.021   -0.038 -0.031  0.078   -0.050 -0.106  0.103
 H         -0.075  0.065 -0.049    0.027 -0.179  0.290   -0.318  0.205 -0.118
 H         -0.017 -0.005 -0.002   -0.074 -0.073  0.057    0.012 -0.029 -0.013
 H         -0.038 -0.060 -0.083   -0.019  0.038  0.012    0.049 -0.008  0.066
 H         -0.021  0.068 -0.090   -0.011 -0.087  0.061    0.031  0.011  0.057
 H         -0.008 -0.008 -0.018   -0.127 -0.338 -0.004    0.156  0.370  0.021
 H          0.189  0.023 -0.179    0.447  0.250 -0.434    0.442  0.354 -0.324
 O         -0.055 -0.031 -0.033   -0.023  0.012 -0.012   -0.015  0.013 -0.013
 H         -0.544 -0.070  0.453    0.119  0.210 -0.278    0.011  0.219 -0.306
 H          0.556 -0.054 -0.244    0.106 -0.004 -0.046    0.063  0.003 -0.032
 O          0.001 -0.005 -0.001    0.008 -0.028  0.009   -0.017  0.012 -0.001
 H         -0.013  0.016  0.008   -0.183  0.198  0.086    0.056 -0.061 -0.024
 O          0.001  0.000 -0.001    0.006 -0.004 -0.003   -0.006 -0.000  0.006
 O         -0.004  0.002 -0.002   -0.006  0.012 -0.008   -0.001 -0.006  0.003
 O          0.002 -0.002 -0.000    0.002 -0.001  0.001   -0.001 -0.002 -0.005
 TransDip   0.176  0.046 -0.092   -0.106 -0.002  0.063    0.090  0.030  0.067

 Mode:                46                     47                     48
 Frequency:      1449.39                1483.66                1492.99
 Force Cnst:      3.4658                 2.8240                 1.4727
 Red. Mass:       2.8002                 2.1775                 1.1214
 IR Active:          YES                    YES                    YES
 IR Intens:       17.801                 38.306                  5.177
 Raman Active:       YES                    YES                    YES
               X      Y      Z        X      Y      Z        X      Y      Z
 C          0.162 -0.006 -0.097    0.164 -0.020 -0.133   -0.027 -0.007  0.031
 C         -0.043 -0.028 -0.008   -0.025 -0.003  0.085    0.005  0.001 -0.015
 C          0.045  0.084  0.223   -0.025 -0.063 -0.156    0.002  0.008  0.020
 C         -0.064  0.085 -0.194    0.047 -0.035  0.101   -0.003  0.007 -0.012
 C          0.019 -0.014  0.050   -0.014 -0.019 -0.023   -0.004 -0.012  0.002
 C         -0.035  0.005 -0.009   -0.012  0.023  0.021    0.010  0.015 -0.004
 C          0.023  0.023 -0.022    0.007  0.028 -0.015   -0.048  0.057  0.033
 H         -0.455  0.140  0.203   -0.509  0.065  0.327    0.059  0.021 -0.089
 H         -0.015 -0.194 -0.064    0.143  0.057  0.013   -0.019 -0.002 -0.004
 H         -0.117 -0.233 -0.147    0.143  0.277  0.247   -0.017 -0.041 -0.034
 H         -0.003 -0.272  0.277    0.011  0.143 -0.110   -0.000 -0.008  0.007
 H         -0.037 -0.146  0.055    0.044  0.152 -0.023    0.007  0.014  0.001
 H         -0.170 -0.184  0.133   -0.074 -0.254 -0.048    0.135 -0.511 -0.499
 O          0.005 -0.000  0.004   -0.004  0.002  0.001   -0.014  0.006 -0.003
 H          0.045 -0.068  0.072    0.135 -0.165  0.156    0.540 -0.315  0.204
 H         -0.038  0.001  0.017    0.001  0.002 -0.001    0.056  0.004 -0.025
 O         -0.039 -0.017  0.029   -0.044 -0.009  0.033    0.006  0.004 -0.007
 H         -0.273  0.275  0.136   -0.250  0.253  0.130    0.070 -0.068 -0.032
 O         -0.005  0.001 -0.004   -0.002  0.004 -0.007   -0.000 -0.000  0.001
 O         -0.008  0.001  0.004   -0.011  0.003  0.002    0.002 -0.001 -0.001
 O          0.035 -0.054 -0.033   -0.024  0.034  0.018    0.003 -0.004 -0.002
 TransDip   0.039  0.129  0.004    0.167 -0.072 -0.078    0.001 -0.067  0.028

 Mode:                49                     50                     51
 Frequency:      3061.44                3071.78                3137.15
 Force Cnst:      5.9929                 5.9044                 6.3089
 Red. Mass:       1.0853                 1.0621                 1.0880
 IR Active:          YES                    YES                    YES
 IR Intens:       43.867                 52.933                  3.578
 Raman Active:       YES                    YES                    YES
               X      Y      Z        X      Y      Z        X      Y      Z
 C         -0.036 -0.065 -0.038    0.002  0.002  0.002   -0.002 -0.003 -0.001
 C          0.002 -0.001  0.003   -0.000 -0.000 -0.000   -0.041  0.018 -0.072
 C          0.000  0.000  0.001    0.000  0.000 -0.000   -0.005 -0.005  0.008
 C         -0.000 -0.000 -0.000    0.000  0.000  0.000   -0.000  0.000  0.000
 C          0.000  0.000 -0.000    0.000 -0.000  0.000   -0.000  0.000 -0.001
 C         -0.000 -0.001 -0.000   -0.001 -0.001  0.000    0.000 -0.001  0.001
 C         -0.002  0.003  0.000   -0.045  0.050 -0.019    0.002  0.002  0.003
 H          0.402  0.779  0.468   -0.018 -0.032 -0.020    0.021  0.037  0.020
 H         -0.027  0.012 -0.041    0.001 -0.001  0.002    0.486 -0.213  0.830
 H          0.003  0.003 -0.005   -0.001 -0.001  0.001    0.069  0.068 -0.088
 H          0.002  0.001  0.001   -0.001  0.000 -0.001    0.001  0.001  0.001
 H          0.001 -0.001  0.005   -0.001  0.002 -0.002    0.002 -0.001  0.005
 H          0.026 -0.008  0.019    0.681 -0.258  0.501   -0.016  0.007 -0.012
 O         -0.000  0.000 -0.000   -0.001  0.000  0.001   -0.000 -0.000 -0.000
 H         -0.009 -0.021 -0.021   -0.133 -0.333 -0.289   -0.012 -0.031 -0.026
 H          0.000 -0.000  0.000    0.002  0.001  0.005    0.000  0.000  0.000
 O          0.001 -0.000 -0.000   -0.000  0.000  0.000    0.000  0.000 -0.000
 H          0.005  0.001 -0.002    0.002 -0.001 -0.000    0.001 -0.000 -0.000
 O          0.000  0.000  0.000    0.000  0.000 -0.000   -0.001  0.001 -0.000
 O         -0.000  0.000 -0.000    0.000  0.000 -0.000    0.001 -0.001  0.001
 O         -0.000 -0.000 -0.000   -0.000  0.000  0.000    0.000 -0.000 -0.000
 TransDip  -0.039 -0.168 -0.124   -0.158  0.170 -0.021   -0.045  0.002 -0.040

 Mode:                52                     53                     54
 Frequency:      3139.39                3169.55                3191.28
 Force Cnst:      6.4203                 6.4528                 6.5429
 Red. Mass:       1.1056                 1.0902                 1.0904
 IR Active:          YES                    YES                    YES
 IR Intens:       27.756                 20.318                 12.359
 Raman Active:       YES                    YES                    YES
               X      Y      Z        X      Y      Z        X      Y      Z
 C         -0.000 -0.001 -0.000   -0.001 -0.001 -0.000    0.000  0.000 -0.000
 C         -0.002  0.001 -0.003   -0.006  0.001 -0.010    0.001 -0.000  0.002
 C         -0.000 -0.000  0.000    0.044  0.047 -0.055   -0.007 -0.007  0.012
 C         -0.000  0.000 -0.000   -0.010 -0.009 -0.002   -0.066 -0.045 -0.024
 C          0.000  0.000  0.000    0.000  0.000  0.001    0.007 -0.001  0.018
 C         -0.001 -0.001 -0.001    0.000 -0.000  0.000   -0.000  0.000  0.000
 C         -0.050 -0.044 -0.067   -0.000 -0.000  0.000    0.000  0.000  0.000
 H          0.007  0.010  0.008    0.005  0.009  0.005   -0.001 -0.002 -0.001
 H          0.023 -0.010  0.039    0.063 -0.024  0.108   -0.010  0.005 -0.018
 H          0.004  0.004 -0.005   -0.516 -0.519  0.642    0.083  0.088 -0.109
 H          0.001  0.000  0.000    0.138  0.089  0.044    0.764  0.506  0.266
 H         -0.000  0.001 -0.001   -0.002 -0.000 -0.006   -0.076  0.029 -0.219
 H          0.340 -0.140  0.252   -0.000  0.000 -0.001   -0.000  0.000 -0.000
 O          0.001  0.001  0.001    0.000  0.000 -0.000   -0.000 -0.000  0.000
 H          0.246  0.658  0.544    0.000  0.001  0.001   -0.001 -0.001 -0.001
 H         -0.012 -0.010 -0.006   -0.000 -0.000 -0.000    0.000  0.000 -0.001
 O          0.000  0.000 -0.000    0.000  0.000 -0.000   -0.000 -0.000 -0.000
 H         -0.000 -0.001  0.000    0.001  0.000 -0.000   -0.000 -0.000  0.000
 O         -0.000  0.000  0.000   -0.000  0.000  0.000    0.000 -0.000 -0.000
 O          0.000  0.000  0.000    0.000 -0.000  0.000    0.000 -0.000 -0.000
 O          0.000 -0.000  0.000   -0.001 -0.000 -0.000    0.001  0.000 -0.001
 TransDip  -0.085 -0.075 -0.125    0.059  0.033 -0.128   -0.100 -0.049  0.016

 Mode:                55                     56                     57
 Frequency:      3213.20                3758.97                3821.29
 Force Cnst:      6.6412                 8.8771                 9.1767
 Red. Mass:       1.0917                 1.0663                 1.0666
 IR Active:          YES                    YES                    YES
 IR Intens:        6.108                242.310                121.656
 Raman Active:       YES                    YES                    YES
               X      Y      Z        X      Y      Z        X      Y      Z
 C          0.001  0.000  0.001    0.000  0.001 -0.001   -0.000 -0.000 -0.000
 C          0.001 -0.000  0.001   -0.000 -0.000  0.000    0.000  0.000  0.000
 C         -0.001 -0.002  0.003    0.000  0.000  0.000    0.000  0.000 -0.000
 C         -0.016 -0.013 -0.005    0.000  0.000  0.000   -0.000  0.000 -0.000
 C         -0.027  0.012 -0.079    0.000  0.000  0.000    0.000  0.000  0.000
 C          0.001  0.002  0.001   -0.000 -0.000  0.000   -0.000  0.000 -0.000
 C         -0.000 -0.000 -0.001   -0.000 -0.000  0.000   -0.001 -0.001 -0.001
 H         -0.003 -0.004 -0.003   -0.002  0.004  0.003    0.000  0.000  0.000
 H         -0.004  0.002 -0.008    0.000 -0.000  0.000   -0.000 -0.000  0.000
 H          0.015  0.018 -0.021   -0.000 -0.001  0.000   -0.000 -0.000  0.000
 H          0.183  0.124  0.061   -0.000 -0.000 -0.000   -0.000 -0.000  0.000
 H          0.314 -0.135  0.907   -0.000 -0.000 -0.001   -0.001  0.000 -0.002
 H          0.001 -0.002  0.002    0.001  0.000 -0.001   -0.001  0.001  0.004
 O         -0.000 -0.000 -0.000   -0.000 -0.002 -0.002   -0.017 -0.036 -0.048
 H          0.000 -0.001  0.001    0.000 -0.000 -0.000    0.003  0.010  0.010
 H         -0.001  0.001  0.003    0.011  0.022  0.028    0.288  0.569  0.767
 O         -0.000  0.000 -0.000    0.023  0.035 -0.046   -0.001 -0.001  0.002
 H         -0.000 -0.001  0.001   -0.363 -0.571  0.733    0.012  0.022 -0.028
 O         -0.000 -0.000 -0.000   -0.000 -0.000  0.000   -0.000 -0.000  0.000
 O         -0.000  0.000  0.000   -0.000  0.000 -0.000   -0.000 -0.000  0.000
 O          0.000 -0.000 -0.000   -0.000 -0.000  0.000    0.000 -0.000 -0.000
 TransDip  -0.044  0.000 -0.066   -0.176 -0.241  0.399    0.030  0.179  0.303

 STANDARD THERMODYNAMIC QUANTITIES AT   298.15 K  AND     1.00 ATM

   This Molecule has  0 Imaginary Frequencies
   Zero point vibrational energy:      101.729 kcal/mol

   Atom    1 Element C  Has Mass   12.00000
   Atom    2 Element C  Has Mass   12.00000
   Atom    3 Element C  Has Mass   12.00000
   Atom    4 Element C  Has Mass   12.00000
   Atom    5 Element C  Has Mass   12.00000
   Atom    6 Element C  Has Mass   12.00000
   Atom    7 Element C  Has Mass   12.00000
   Atom    8 Element H  Has Mass    1.00783
   Atom    9 Element H  Has Mass    1.00783
   Atom   10 Element H  Has Mass    1.00783
   Atom   11 Element H  Has Mass    1.00783
   Atom   12 Element H  Has Mass    1.00783
   Atom   13 Element H  Has Mass    1.00783
   Atom   14 Element O  Has Mass   15.99491
   Atom   15 Element H  Has Mass    1.00783
   Atom   16 Element H  Has Mass    1.00783
   Atom   17 Element O  Has Mass   15.99491
   Atom   18 Element H  Has Mass    1.00783
   Atom   19 Element O  Has Mass   15.99491
   Atom   20 Element O  Has Mass   15.99491
   Atom   21 Element O  Has Mass   15.99491
   Molecular Mass:   173.045020 amu
   Principal axes and moments of inertia in amu*Bohr^2:
                             1           2           3
    Eigenvalues --     1205.69786  1890.11086  2147.24334
          X               0.31450    -0.49170     0.81198
          Y               0.78613     0.61436     0.06754
          Z              -0.53206     0.61708     0.57976
   Rotational Symmetry Number is   1
   The Molecule is an Asymmetric Top
   Translational Enthalpy:        0.889 kcal/mol
   Rotational Enthalpy:           0.889 kcal/mol
   Vibrational Enthalpy:        106.559 kcal/mol
   gas constant (RT):             0.592 kcal/mol
   Translational Entropy:        41.352  cal/mol.K
   Rotational Entropy:           29.971  cal/mol.K
   Vibrational Entropy:          27.286  cal/mol.K

   Total Enthalpy:              108.929 kcal/mol
   Total Entropy:                98.610  cal/mol.K
 Total job time:  40425.27s(wall), 580480.86s(cpu) 
 Wed Jun 26 20:49:19 2024

        *************************************************************
        *                                                           *
        *  Thank you very much for using Q-Chem.  Have a nice day.  *
        *                                                           *
        *************************************************************


