
Running Job 1 of 1 Q_in.in
qchem Q_in.in_37973.0 /scratch/ari.fischer/qChem2187304.hpc-mn1/qchem37973/ 0
/usr/local/qchem-5.4.1/exe/qcprog.exe_s Q_in.in_37973.0 /scratch/ari.fischer/qChem2187304.hpc-mn1/qchem37973/
                  Welcome to Q-Chem
     A Quantum Leap Into The Future Of Chemistry


 Q-Chem 5.4, Q-Chem, Inc., Pleasanton, CA (2021)

 License issued to: Nanyang Technological University (site)

 E. Epifanovsky,  A. T. B. Gilbert,  Xintian Feng,  Joonho Lee,  Yuezhi Mao,  
 N. Mardirossian,  P. Pokhilko,  A. White,  M. Wormit,  M. P. Coons,  
 A. L. Dempwolff,  Zhengting Gan,  D. Hait,  P. R. Horn,  L. D. Jacobson,  
 I. Kaliman,  J. Kussmann,  A. W. Lange,  Ka Un Lao,  D. S. Levine,  Jie Liu,  
 S. C. McKenzie,  A. F. Morrison,  K. Nanda,  F. Plasser,  D. R. Rehn,  
 M. L. Vidal,  Zhi-Qiang You,  Ying Zhu,  B. Alam,  B. Albrecht,  
 A. Aldossary,  E. Alguire,  J. H. Andersen,  D. Barton,  K. Begam,  A. Behn,  
 Y. A. Bernard,  E. J. Berquist,  H. Burton,  A. Carreras,  K. Carter-Fenk,  
 R. Chakraborty,  A. D. Chien,  K. D. Closser,  V. Cofer-Shabica,  
 S. Dasgupta,  Jia Deng,  M. de Wergifosse,  M. Diedenhofen,  Hainam Do,  
 S. Ehlert,  Po-Tung Fang,  S. Fatehi,  Qingguo Feng,  T. Friedhoff,  
 J. Gayvert,  Qinghui Ge,  G. Gidofalvi,  M. Goldey,  J. Gomes,  
 C. Gonzalez-Espinoza,  S. Gulania,  A. Gunina,  M. W. D. Hanson-Heine,  
 P. H. P. Harbach,  A. W. Hauser,  M. F. Herbst,  M. Hernandez Vera,  
 M. Hodecker,  Z. C. Holden,  S. Houck,  Xunkun Huang,  Kerwin Hui,  
 B. C. Huynh,  M. Ivanov,  Hyunjun Ji,  Hanjie Jiang,  B. Kaduk,  S. Kaehler,  
 K. Khistyaev,  Jaehoon Kim,  P. Klunzinger,  Z. Koczor-Benda,  
 Joong Hoon Koh,  D. Kosenkov,  L. Koulias,  T. Kowalczyk,  C. M. Krauter,  
 K. Kue,  A. Kunitsa,  T. Kus,  A. Landau,  K. V. Lawler,  D. Lefrancois,  
 S. Lehtola,  Rain Li,  Yi-Pei Li,  Jiashu Liang,  M. Liebenthal,  
 Hung-Hsuan Lin,  You-Sheng Lin,  Fenglai Liu,  Kuan-Yu Liu,  
 M. Loipersberger,  A. Luenser,  A. Manjanath,  P. Manohar,  E. Mansoor,  
 S. F. Manzer,  Shan-Ping Mao,  A. V. Marenich,  T. Markovich,  S. Mason,  
 S. A. Maurer,  P. F. McLaughlin,  M. F. S. J. Menger,  J.-M. Mewes,  
 S. A. Mewes,  P. Morgante,  J. W. Mullinax,  K. J. Oosterbaan,  G. Paran,  
 Alexander C. Paul,  Suranjan K. Paul,  F. Pavosevic,  Zheng Pei,  S. Prager,  
 E. I. Proynov,  E. Ramos,  B. Rana,  A. E. Rask,  A. Rettig,  R. M. Richard,  
 F. Rob,  E. Rossomme,  T. Scheele,  M. Scheurer,  M. Schneider,  
 N. Sergueev,  S. M. Sharada,  W. Skomorowski,  D. W. Small,  C. J. Stein,  
 Yu-Chuan Su,  E. J. Sundstrom,  Zhen Tao,  J. Thirman,  T. Tsuchimochi,  
 N. M. Tubman,  S. P. Veccham,  O. Vydrov,  J. Wenzel,  J. Witte,  A. Yamada,  
 Kun Yao,  S. Yeganeh,  S. R. Yost,  A. Zech,  Igor Ying Zhang,  Xing Zhang,  
 Yu Zhang,  D. Zuev,  A. Aspuru-Guzik,  A. T. Bell,  N. A. Besley,  
 K. B. Bravaya,  B. R. Brooks,  D. Casanova,  Jeng-Da Chai,  S. Coriani,  
 C. J. Cramer,  A. E. DePrince, III,  R. A. DiStasio Jr.,  A. Dreuw,  
 B. D. Dunietz,  T. R. Furlani,  W. A. Goddard III,  S. Grimme,  
 S. Hammes-Schiffer,  T. Head-Gordon,  W. J. Hehre,  Chao-Ping Hsu,  
 T.-C. Jagau,  Yousung Jung,  A. Klamt,  Jing Kong,  D. S. Lambrecht,  
 WanZhen Liang,  N. J. Mayhall,  C. W. McCurdy,  J. B. Neaton,  
 C. Ochsenfeld,  J. A. Parkhill,  R. Peverati,  V. A. Rassolov,  Yihan Shao,  
 L. V. Slipchenko,  T. Stauch,  R. P. Steele,  J. E. Subotnik,  
 A. J. W. Thom,  A. Tkatchenko,  D. G. Truhlar,  T. Van Voorhis,  
 T. A. Wesolowski,  K. B. Whaley,  H. L. Woodcock III,  P. M. Zimmerman,  
 S. Faraji,  P. M. W. Gill,  M. Head-Gordon,  J. M. Herbert,  A. I. Krylov

 Additional authors for Version 5.4.1: 
 S. Kotaru,  Shaozhi Li,  Xiangyuan Li,  F. Matz,  A. Molle,  Haisheng Ren,  
 Yingli Su,  Hung-Yi Tsai,  C. Utku,  Fang Wang

 Contributors to earlier versions of Q-Chem not listed above: 
 R. D. Adamson,  B. Austin,  R. Baer,  J. Baker,  G. J. O. Beran,  
 K. Brandhorst,  S. T. Brown,  E. F. C. Byrd,  A. K. Chakraborty,  
 G. K. L. Chan,  Chun-Min Chang,  Yunqing Chen,  C.-L. Cheng,  
 Siu Hung Chien,  D. M. Chipman,  D. L. Crittenden,  H. Dachsel,  
 R. J. Doerksen,  A. D. Dutoi,  R. G. Edgar,  J. Fosso-Tande,  
 L. Fusti-Molnar,  D. Ghosh,  A. Ghysels,  A. Golubeva-Zadorozhnaya,  
 J. Gonthier,  M. S. Gordon,  S. R. Gwaltney,  G. Hawkins,  J. E. Herr,  
 A. Heyden,  S. Hirata,  E. G. Hohenstein,  G. Kedziora,  F. J. Keil,  
 C. Kelley,  Jihan Kim,  R. A. King,  R. Z. Khaliullin,  P. P. Korambath,  
 W. Kurlancheek,  A. Laurent,  A. M. Lee,  M. S. Lee,  S. V. Levchenko,  
 Ching Yeh Lin,  D. Liotard,  E. Livshits,  R. C. Lochan,  I. Lotan,  
 L. A. Martinez-Martinez,  P. E. Maslen,  N. Nair,  D. P. O'Neill,  
 D. Neuhauser,  E. Neuscamman,  C. M. Oana,  R. Olivares-Amaya,  R. Olson,  
 T. M. Perrine,  B. Peters,  P. A. Pieniazek,  A. Prociuk,  Y. M. Rhee,  
 J. Ritchie,  M. A. Rohrdanz,  E. Rosta,  N. J. Russ,  H. F. Schaefer III,  
 M. W. Schmidt,  N. E. Schultz,  S. Sharma,  N. Shenvi,  C. D. Sherrill,  
 A. C. Simmonett,  A. Sodt,  T. Stein,  D. Stuck,  K. S. Thanthiriwatte,  
 V. Vanovschi,  L. Vogt,  Tao Wang,  A. Warshel,  M. A. Watson,  
 C. F. Williams,  Q. Wu,  X. Xu,  Jun Yang,  W. Zhang,  Yan Zhao

 Please cite Q-Chem as follows:
 Y. Shao et al., Mol. Phys. 113, 184-215 (2015)
 DOI: 10.1080/00268976.2014.952696

 Q-Chem 5.4.1 for Intel X86 EM64T Linux

 Parts of Q-Chem use Armadillo 9.800.1 (Horizon Scraper).
 http://arma.sourceforge.net/

 Q-Chem begins on Tue Jun 25 21:42:01 2024  

 Host: 
0

     Scratch files written to /scratch/ari.fischer/qChem2187304.hpc-mn1/qchem37973//
 Aug1521 |scratch|qcdevops|jenkins|workspace|build_RNUM 8249   
 Processing $rem in /usr/local/qchem-5.4.1/config/preferences:
 Processing $rem in /home/ari.fischer/.qchemrc:
 Symmetry turned off for PCM/SM12/SMD calculation

 Checking the input file for inconsistencies... 	...done.

--------------------------------------------------------------
User input:
--------------------------------------------------------------
$molecule
0 2
C         0.0212145897   -0.2078861312    0.8030780658
C        -0.8072516979   -0.9938117986    1.8164551712
C        -1.5528216605   -2.1895446094    1.2468361035
C        -2.0281638313   -2.0846663853   -0.1449059987
C        -1.7200748880   -0.8499225687   -0.8730484718
C        -1.1372389519    0.2775901657   -0.0821396745
C        -0.7509119748    1.4962322548   -0.9113002593
H         0.4462346905    0.6592671648    1.3272859261
H        -0.2719583244   -1.2256961570    2.7400419941
H        -2.1313953776   -2.7640615734    1.9685116979
H        -2.9013057863   -2.6552142708   -0.4503503570
H        -2.1017938626   -0.6878662064   -1.8763246735
H        -1.5855400484    1.8303397415   -1.5375070369
O         0.3956066200    1.1842016553   -1.7035598408
H        -0.4630109597    2.3070063276   -0.2380775069
H         0.1003102476    0.6163214236   -2.4351673691
O         1.0169902055   -0.9283031954    0.1186593716
H         1.2712010487   -0.3407212932   -0.6195861291
O        -1.7791449471   -0.0050734089    2.1739485433
O        -2.1170645402    0.6888579653    0.9107526038
O        -0.9055930513   -2.9540267003    0.2365572403
$end

$rem
BASIS = 6-311++G(2df,2p)
GUI = 2
JOB_TYPE = Optimization
METHOD = wB97M-V
SCF_ALGORITHM = DIIS_GDM
MAX_SCF_CYCLES = 400
GEOM_OPT_MAX_CYCLES = 150
SCF_CONVERGENCE = 7
THRESH = 12
Solvent_method = SMD
$end
--------------------------------------------------------------
 ----------------------------------------------------------------
             Standard Nuclear Orientation (Angstroms)
    I     Atom           X                Y                Z
 ----------------------------------------------------------------
    1      C       0.0212145897    -0.2078861312     0.8030780658
    2      C      -0.8072516979    -0.9938117986     1.8164551712
    3      C      -1.5528216605    -2.1895446094     1.2468361035
    4      C      -2.0281638313    -2.0846663853    -0.1449059987
    5      C      -1.7200748880    -0.8499225687    -0.8730484718
    6      C      -1.1372389519     0.2775901657    -0.0821396745
    7      C      -0.7509119748     1.4962322548    -0.9113002593
    8      H       0.4462346905     0.6592671648     1.3272859261
    9      H      -0.2719583244    -1.2256961570     2.7400419941
   10      H      -2.1313953776    -2.7640615734     1.9685116979
   11      H      -2.9013057863    -2.6552142708    -0.4503503570
   12      H      -2.1017938626    -0.6878662064    -1.8763246735
   13      H      -1.5855400484     1.8303397415    -1.5375070369
   14      O       0.3956066200     1.1842016553    -1.7035598408
   15      H      -0.4630109597     2.3070063276    -0.2380775069
   16      H       0.1003102476     0.6163214236    -2.4351673691
   17      O       1.0169902055    -0.9283031954     0.1186593716
   18      H       1.2712010487    -0.3407212932    -0.6195861291
   19      O      -1.7791449471    -0.0050734089     2.1739485433
   20      O      -2.1170645402     0.6888579653     0.9107526038
   21      O      -0.9055930513    -2.9540267003     0.2365572403
 ----------------------------------------------------------------
 Nuclear Repulsion Energy =         802.16485371 hartrees
 There are       46 alpha and       45 beta electrons
 Requested basis set is 6-311++G(2df,2p)
 There are 150 shells and 498 basis functions

 Total QAlloc Memory Limit 288000 MB
 Mega-Array Size       188 MB
 MEM_STATIC part       192 MB
 
 Citation of the SMD model:
 Marenich, A.V.; Cramer, C.J.; Truhlar, D.G.
 J. Phys. Chem. B 2009, 113, 6378-6396.
 iSolventCode=           1
 Solvent: water                                                           
 
 vradii
            1           2           3           4           5           6
    1   1.8500000   1.8500000   1.8500000   1.8500000   1.8500000   1.8500000
            7           8           9          10          11          12
    1   1.8500000   1.2000000   1.2000000   1.2000000   1.2000000   1.2000000
           13          14          15          16          17          18
    1   1.2000000   1.5200000   1.2000000   1.2000000   1.5200000   1.2000000
           19          20          21
    1   1.5200000   1.5200000   1.5200000
 Changing PCM_VDW_RADII to SMD_RADIUS
 Discretize the solute cavity surface with Lebedev spheres
	Using 110 Lebedev grid points for each H atom
	Using 194 Lebedev grid points for other atoms
	Atomic van der Waals radii will be scaled by 1.20
 Remove points where switching function is < 1.0e-08
 Keep 1493 surface tesserae and discard 1825 interior tesserae
 Molecular Surface Area = 165.848 Angst**2
 A cutoff of  1.0D-12 yielded  10204 shell pairs
 There are    113690 function pairs (    142511 Cartesian)
 Smallest overlap matrix eigenvalue = 2.24E-06

 Scale SEOQF with 1.000000e-01/1.000000e-01/1.000000e-01

 Standard Electronic Orientation quadrupole field applied
 Nucleus-field energy     =     0.0000000056 hartrees
 Guess from superposition of atomic densities
 Warning:  Energy on first SCF cycle will be non-variational
 SAD guess density has 91.000000 electrons

 -----------------------------------------------------------------------
  General SCF calculation program by
  Eric Jon Sundstrom, Paul Horn, Yuezhi Mao, Dmitri Zuev, Alec White,
  David Stuck, Shaama M.S., Shane Yost, Joonho Lee, David Small,
  Daniel Levine, Susi Lehtola, Hugh Burton, Evgeny Epifanovsky,
  Bang C. Huynh
 -----------------------------------------------------------------------
 Exchange:     0.1500 Hartree-Fock + 1.0000 wB97M-V + LR-HF
 Correlation:  1.0000 wB97M-V
 Using SG-2 standard quadrature grid
 Nonlocal Correlation:  VV10 with C = 0.0100 and b = 6.00 and scale = 1.00000
 Grid used for NLC:  SG-1 standard quadrature
 
 Citation of the SMD model:
 Marenich, A.V.; Cramer, C.J.; Truhlar, D.G.
 J. Phys. Chem. B 2009, 113, 6378-6396.
 iSolventCode=           1
 Solvent: water                                                           
 
 vradii
            1           2           3           4           5           6
    1   1.8500000   1.8500000   1.8500000   1.8500000   1.8500000   1.8500000
            7           8           9          10          11          12
    1   1.8500000   1.2000000   1.2000000   1.2000000   1.2000000   1.2000000
           13          14          15          16          17          18
    1   1.2000000   1.5200000   1.2000000   1.2000000   1.5200000   1.2000000
           19          20          21
    1   1.5200000   1.5200000   1.5200000
 using 16 threads for integral computing
 -------------------------------------------------------
 OpenMP Integral computing Module                
 Release: version 1.0, May 2013, Q-Chem Inc. Pittsburgh 
 -------------------------------------------------------
 -------------------------------------------------------
 OpenMP BLAS3 based DFT computing Module                
 Release: version 1.0, May 2013, Q-Chem Inc. Pittsburgh 
 -------------------------------------------------------
 A unrestricted SCF calculation will be
 performed using DIIS, GDM
 SCF converges when RMS gradient is below 1.0e-07
 ---------------------------------------
  Cycle       Energy         DIIS error
 ---------------------------------------
    1    -651.4196748446      1.14e-02  
    2    -647.9780940600      1.10e-03  Done DIIS. Switching to GDM
 ---------------------------------------
  Cycle       Energy        RMS Gradient
 ---------------------------------------
    1    -647.9780940600      3.91e-02   Descent step
    2    -648.0868957829      2.44e-02   Normal BFGS step
    3    -648.1052110689      1.29e-02   Normal BFGS step
    4    -648.1069852584      7.39e-03   Normal BFGS step
    5    -648.1073551252      3.37e-03   Normal BFGS step
    6    -648.1074833458      1.77e-03   Normal BFGS step
    7    -648.1074982557      8.19e-04   Normal BFGS step
    8    -648.1075020503      1.95e-04   Normal BFGS step
    9    -648.1075025400      1.13e-04   Normal BFGS step
   10    -648.1075028787      3.80e-05   Normal BFGS step
   11    -648.1075029097      1.96e-05   Normal BFGS step
   12    -648.1075029183      1.14e-05   Normal BFGS step
   13    -648.1075029201      5.83e-06   Normal BFGS step
   14    -648.1075029207      3.61e-06   Normal BFGS step
   15    -648.1075029210      1.23e-06   Normal BFGS step
   16    -648.1075029210      3.70e-07   Normal BFGS step
   17    -648.1075029209      1.08e-07   Normal BFGS step
   18    -648.1075029210      4.82e-08  Convergence criterion met
 ---------------------------------------
 SCF time:   CPU 4645.80s  wall 320.00s 
<S^2> =          0.755099307
(3)  G-ENP(liq) elect-nuc-pol free energy of system     -648.107502921 a.u.
(4)  G-CDS(liq) cavity-dispersion-solvent structure 
     free energy                                                2.7202 kcal/mol
(6)  G-S(liq) free energy of system                     -648.103167930 a.u.
 SCF   energy in the final basis set =     -648.1031679303
 Total energy in the final basis set =     -648.1031679303
 
 --------------------------------------------------------------
 
                    Orbital Energies (a.u.)
 --------------------------------------------------------------
 
 Alpha MOs
 -- Occupied --
-19.4085 -19.4065 -19.3612 -19.3516 -19.3445 -10.4176 -10.4132 -10.4104
-10.4069 -10.4064 -10.3963 -10.3706  -1.2706  -1.2140  -1.1752  -1.1603
 -1.0749  -0.9492  -0.8720  -0.8463  -0.8036  -0.7546  -0.7193  -0.6969
 -0.6661  -0.6400  -0.6128  -0.6069  -0.5975  -0.5846  -0.5668  -0.5494
 -0.5311  -0.5262  -0.5158  -0.4998  -0.4930  -0.4789  -0.4519  -0.4471
 -0.4252  -0.4170  -0.3933  -0.3800  -0.3680  -0.3158
 -- Virtual --
  0.0253   0.0346   0.0364   0.0456   0.0550   0.0559   0.0586   0.0776
  0.0824   0.0846   0.0873   0.0960   0.1155   0.1248   0.1252   0.1329
  0.1359   0.1407   0.1471   0.1515   0.1554   0.1600   0.1618   0.1664
  0.1717   0.1746   0.1787   0.1857   0.1909   0.1960   0.1970   0.2025
  0.2148   0.2191   0.2202   0.2285   0.2322   0.2410   0.2481   0.2524
  0.2689   0.2744   0.2795   0.2865   0.2953   0.3043   0.3054   0.3182
  0.3220   0.3250   0.3340   0.3382   0.3450   0.3468   0.3491   0.3531
  0.3565   0.3734   0.3760   0.3780   0.3821   0.3856   0.3921   0.3943
  0.3986   0.4074   0.4145   0.4187   0.4242   0.4343   0.4380   0.4488
  0.4581   0.4647   0.4717   0.4758   0.4854   0.5102   0.5271   0.5279
  0.5434   0.5645   0.5928   0.5980   0.6094   0.6144   0.6212   0.6307
  0.6493   0.6554   0.6635   0.6669   0.6718   0.6810   0.6845   0.6948
  0.6977   0.7123   0.7150   0.7268   0.7307   0.7410   0.7457   0.7538
  0.7561   0.7742   0.7893   0.7966   0.8190   0.8350   0.8518   0.8620
  0.8824   0.8940   0.9014   0.9240   0.9403   0.9588   0.9716   0.9870
  1.0170   1.0437   1.0469   1.0572   1.0677   1.0760   1.0906   1.1105
  1.1175   1.1219   1.1319   1.1467   1.1482   1.1677   1.1784   1.1863
  1.1900   1.1962   1.2157   1.2229   1.2333   1.2434   1.2478   1.2666
  1.2714   1.2819   1.2897   1.2994   1.3052   1.3153   1.3185   1.3224
  1.3341   1.3408   1.3534   1.3596   1.3686   1.3747   1.3790   1.3863
  1.4036   1.4107   1.4283   1.4407   1.4620   1.4691   1.4846   1.4862
  1.4989   1.5072   1.5232   1.5354   1.5451   1.5522   1.5586   1.5779
  1.5882   1.6100   1.6224   1.6324   1.6457   1.6520   1.6605   1.6856
  1.6982   1.7077   1.7405   1.7721   1.7763   1.7945   1.8081   1.8216
  1.8323   1.8636   1.8814   1.8993   1.9388   1.9771   2.0068   2.0222
  2.0316   2.0423   2.0816   2.0956   2.1103   2.1200   2.1506   2.1696
  2.1972   2.2124   2.2397   2.2639   2.2813   2.3109   2.3389   2.3603
  2.3862   2.4126   2.4286   2.4437   2.4798   2.5147   2.5637   2.6536
  2.6827   2.6939   2.7049   2.7305   2.7762   2.7896   2.7948   2.8054
  2.8219   2.8557   2.8666   2.8799   2.8944   2.9045   2.9246   2.9586
  2.9682   2.9972   3.0037   3.0231   3.0332   3.0534   3.0656   3.0821
  3.0954   3.1172   3.1290   3.1569   3.1864   3.1946   3.2089   3.2285
  3.2352   3.2580   3.2751   3.2855   3.3059   3.3326   3.3536   3.3735
  3.3895   3.4002   3.4118   3.4416   3.4581   3.4639   3.4870   3.5080
  3.5147   3.5269   3.5446   3.5569   3.5762   3.5913   3.6033   3.6142
  3.6278   3.6399   3.6589   3.6748   3.6854   3.6960   3.7052   3.7306
  3.7423   3.7490   3.7580   3.7741   3.8026   3.8099   3.8224   3.8333
  3.8432   3.8701   3.8928   3.9012   3.9133   3.9238   3.9296   3.9412
  3.9510   3.9670   3.9935   4.0051   4.0121   4.0351   4.0466   4.0729
  4.0988   4.1078   4.1450   4.1650   4.1873   4.2172   4.2357   4.2464
  4.2713   4.2789   4.2848   4.3043   4.3277   4.3399   4.3582   4.3642
  4.3726   4.3838   4.4003   4.4170   4.4270   4.4475   4.4703   4.4891
  4.4926   4.5091   4.5140   4.5460   4.5575   4.5952   4.6035   4.6313
  4.6362   4.6547   4.7073   4.7245   4.7272   4.7546   4.7600   4.8114
  4.8865   4.9418   4.9820   5.0786   5.0882   5.1693   5.2243   5.2318
  5.2690   5.2788   5.2933   5.2972   5.3091   5.3294   5.3377   5.3430
  5.3588   5.3689   5.3794   5.3897   5.4154   5.4297   5.4520   5.4633
  5.4846   5.5110   5.5254   5.5387   5.5541   5.5830   5.5951   5.6019
  5.6178   5.6232   5.6488   5.6857   5.7036   5.7343   5.7468   5.7645
  5.7754   5.7825   5.7978   5.8494   5.8761   5.9319   5.9515   5.9765
  6.0084   6.0233   6.0277   6.0589   6.0734   6.2178   6.4725   6.5766
  6.6110   6.6452   6.6628   6.7136   6.7705   7.0359   7.1029   7.1401
  7.1806   7.2505   7.2768   7.2962   7.3132   7.3541   7.3830   7.4077
  7.4329   7.4447   7.4561   7.4747   7.5090   7.5438   7.6280   7.6528
  7.6891   7.7467   7.7972   7.8331   7.8791   7.9012   7.9535   8.2620
 24.4888  24.6879  24.7252  24.7650  24.8129  24.9019  24.9236  50.5925
 50.6204  50.6543  50.6959  50.7187
 
 Beta MOs
 -- Occupied --
-19.4085 -19.4045 -19.3583 -19.3514 -19.3444 -10.4184 -10.4132 -10.4100
-10.4080 -10.4058 -10.3963 -10.3582  -1.2686  -1.2087  -1.1747  -1.1599
 -1.0722  -0.9425  -0.8577  -0.8448  -0.8015  -0.7493  -0.7160  -0.6929
 -0.6626  -0.6360  -0.6103  -0.6030  -0.5935  -0.5818  -0.5653  -0.5433
 -0.5281  -0.5215  -0.5077  -0.4964  -0.4899  -0.4765  -0.4481  -0.4437
 -0.4201  -0.4107  -0.3922  -0.3778  -0.3629
 -- Virtual --
 -0.0190   0.0253   0.0343   0.0364   0.0482   0.0550   0.0564   0.0592
  0.0784   0.0830   0.0845   0.0881   0.0974   0.1156   0.1247   0.1252
  0.1327   0.1364   0.1409   0.1470   0.1508   0.1556   0.1605   0.1616
  0.1668   0.1716   0.1755   0.1786   0.1861   0.1920   0.1953   0.1987
  0.2026   0.2144   0.2195   0.2205   0.2287   0.2323   0.2421   0.2516
  0.2544   0.2706   0.2762   0.2796   0.2879   0.2963   0.3050   0.3059
  0.3192   0.3227   0.3265   0.3345   0.3385   0.3464   0.3481   0.3499
  0.3545   0.3611   0.3739   0.3771   0.3791   0.3829   0.3860   0.3939
  0.3946   0.4000   0.4092   0.4150   0.4205   0.4254   0.4346   0.4383
  0.4509   0.4602   0.4666   0.4736   0.4781   0.4866   0.5126   0.5291
  0.5299   0.5441   0.5659   0.5955   0.6045   0.6109   0.6205   0.6233
  0.6329   0.6503   0.6562   0.6648   0.6683   0.6734   0.6835   0.6843
  0.6957   0.7006   0.7135   0.7169   0.7271   0.7375   0.7424   0.7479
  0.7568   0.7607   0.7795   0.7904   0.8024   0.8215   0.8384   0.8559
  0.8643   0.8842   0.8959   0.9060   0.9262   0.9419   0.9605   0.9747
  0.9886   1.0201   1.0441   1.0478   1.0581   1.0691   1.0769   1.0928
  1.1125   1.1190   1.1234   1.1333   1.1483   1.1507   1.1698   1.1794
  1.1882   1.1919   1.1976   1.2175   1.2251   1.2346   1.2451   1.2498
  1.2686   1.2734   1.2842   1.2916   1.3016   1.3070   1.3165   1.3219
  1.3236   1.3352   1.3419   1.3564   1.3617   1.3692   1.3774   1.3812
  1.3892   1.4051   1.4134   1.4294   1.4426   1.4643   1.4723   1.4858
  1.4912   1.5008   1.5089   1.5270   1.5391   1.5489   1.5541   1.5621
  1.5820   1.5908   1.6115   1.6261   1.6339   1.6509   1.6537   1.6652
  1.6888   1.7009   1.7126   1.7453   1.7768   1.7788   1.8005   1.8096
  1.8231   1.8386   1.8655   1.8843   1.9025   1.9417   1.9790   2.0104
  2.0274   2.0327   2.0437   2.0843   2.0980   2.1123   2.1247   2.1539
  2.1743   2.1990   2.2155   2.2421   2.2662   2.2842   2.3147   2.3398
  2.3615   2.3873   2.4140   2.4302   2.4459   2.4809   2.5172   2.5673
  2.6639   2.6875   2.6988   2.7073   2.7344   2.7823   2.7991   2.8023
  2.8105   2.8321   2.8612   2.8773   2.8885   2.9041   2.9131   2.9319
  2.9736   2.9918   3.0189   3.0310   3.0347   3.0533   3.0601   3.0717
  3.0902   3.1067   3.1221   3.1377   3.1627   3.1897   3.2000   3.2159
  3.2311   3.2433   3.2723   3.2828   3.2937   3.3157   3.3384   3.3654
  3.3840   3.3943   3.4143   3.4206   3.4493   3.4634   3.4801   3.4920
  3.5125   3.5213   3.5295   3.5600   3.5682   3.5812   3.5949   3.6166
  3.6207   3.6342   3.6518   3.6702   3.6816   3.6956   3.7038   3.7115
  3.7388   3.7472   3.7675   3.7710   3.7795   3.8081   3.8161   3.8280
  3.8384   3.8534   3.8754   3.9008   3.9062   3.9191   3.9268   3.9339
  3.9476   3.9581   3.9718   3.9998   4.0083   4.0194   4.0478   4.0537
  4.0796   4.1042   4.1212   4.1520   4.1714   4.1920   4.2204   4.2408
  4.2492   4.2760   4.2882   4.2895   4.3138   4.3328   4.3509   4.3623
  4.3681   4.3775   4.3928   4.4113   4.4199   4.4347   4.4598   4.4767
  4.4930   4.5003   4.5158   4.5217   4.5532   4.5713   4.6017   4.6090
  4.6393   4.6488   4.6587   4.7112   4.7284   4.7382   4.7596   4.7653
  4.8165   4.8898   4.9491   4.9912   5.0873   5.1013   5.1786   5.2314
  5.2381   5.2722   5.2830   5.2967   5.2999   5.3104   5.3356   5.3438
  5.3464   5.3608   5.3713   5.3806   5.3941   5.4197   5.4348   5.4585
  5.4646   5.4868   5.5144   5.5311   5.5420   5.5565   5.5855   5.6000
  5.6083   5.6250   5.6390   5.6505   5.6878   5.7072   5.7382   5.7507
  5.7667   5.7798   5.8004   5.8029   5.8522   5.8811   5.9392   5.9542
  5.9854   6.0106   6.0283   6.0298   6.0616   6.0743   6.2193   6.4804
  6.5799   6.6131   6.6470   6.6639   6.7156   6.7713   7.0385   7.1037
  7.1414   7.1879   7.2513   7.2819   7.3003   7.3150   7.3551   7.3849
  7.4097   7.4349   7.4468   7.4575   7.4787   7.5135   7.5453   7.6301
  7.6543   7.6898   7.7557   7.7978   7.8395   7.8822   7.9036   7.9567
  8.2635  24.4942  24.6899  24.7255  24.7652  24.8132  24.9023  24.9281
 50.5929  50.6207  50.6552  50.6971  50.7202
 --------------------------------------------------------------
 
          Ground-State Mulliken Net Atomic Charges

     Atom                 Charge (a.u.)    Spin (a.u.)
  --------------------------------------------------------
      1 C                    -0.165281       0.045184
      2 C                    -0.038146      -0.022076
      3 C                    -0.411687       0.065363
      4 C                    -0.087316      -0.040937
      5 C                    -0.457376       0.923484
      6 C                     0.186301      -0.102519
      7 C                    -0.327831       0.014366
      8 H                     0.329842      -0.001428
      9 H                     0.269727       0.000763
     10 H                     0.272267       0.002013
     11 H                     0.257463       0.008470
     12 H                     0.329565      -0.017184
     13 H                     0.248090       0.000120
     14 O                    -0.372316       0.001663
     15 H                     0.235180      -0.000932
     16 H                     0.328076       0.001402
     17 O                    -0.418517       0.004803
     18 H                     0.336043       0.003656
     19 O                    -0.109169       0.003638
     20 O                    -0.126525       0.036662
     21 O                    -0.278390       0.073487
  --------------------------------------------------------
  Sum of atomic charges =     0.000000
  Sum of spin   charges =     1.000000

 -----------------------------------------------------------------
                    Cartesian Multipole Moments
 -----------------------------------------------------------------
    Charge (ESU x 10^10)
                 0.0000
    Dipole Moment (Debye)
         X      -1.5887      Y       1.3297      Z      -2.6824
       Tot       3.3893
    Quadrupole Moments (Debye-Ang)
        XX     -72.3746     XY       7.2926     YY     -78.2350
        XZ       8.5940     YZ      -4.1428     ZZ     -60.8394
    Octopole Moments (Debye-Ang^2)
       XXX     197.6365    XXY      15.5207    XYY      47.6691
       YYY     140.7313    XXZ     -39.1754    XYZ      13.1484
       YYZ      -7.1282    XZZ      64.9102    YZZ      16.7876
       ZZZ     -69.1391
    Hexadecapole Moments (Debye-Ang^3)
      XXXX    -870.1307   XXXY    -102.9232   XXYY    -262.6565
      XYYY    -145.7453   YYYY   -1083.1451   XXXZ     156.3780
      XXYZ      36.1906   XYYZ      36.9715   YYYZ     121.0404
      XXZZ    -261.8065   XYZZ     -41.0504   YYZZ    -253.5274
      XZZZ     149.7379   YZZZ      98.7981   ZZZZ    -599.9012
 -----------------------------------------------------------------
 Calculating analytic gradient of the SCF energy
 Gradient of CDS energy
            1           2           3           4           5           6
    1   0.0018374   0.0000213   0.0000166  -0.0001704  -0.0001340   0.0000417
    2  -0.0012048   0.0001212  -0.0003616  -0.0004040   0.0000835   0.0000643
    3  -0.0010991   0.0001878   0.0002565  -0.0001814  -0.0002510   0.0001598
            7           8           9          10          11          12
    1   0.0000113  -0.0000599   0.0000693  -0.0001010  -0.0001606  -0.0000475
    2   0.0009949   0.0001954  -0.0000095  -0.0000945  -0.0001049   0.0000783
    3  -0.0003669   0.0001048   0.0002116   0.0001448  -0.0000562  -0.0001294
           13          14          15          16          17          18
    1  -0.0002172  -0.0001409   0.0001415   0.0001769  -0.0018432   0.0004306
    2  -0.0002594  -0.0002351  -0.0001099   0.0000570   0.0010700  -0.0000437
    3  -0.0000695   0.0002705   0.0002898  -0.0004890   0.0011764  -0.0001520
           19          20          21
    1   0.0000062   0.0000685   0.0000533
    2   0.0000869  -0.0000728   0.0001487
    3  -0.0000918   0.0000920  -0.0000076
 Gradient of SCF Energy
            1           2           3           4           5           6
    1   0.0079424  -0.0087525   0.0074093   0.0065364   0.0048009  -0.0048308
    2  -0.0094103   0.0076609  -0.0005281   0.0038509  -0.0016914   0.0038889
    3  -0.0076532  -0.0054302  -0.0009011   0.0013244   0.0084411   0.0045552
            7           8           9          10          11          12
    1   0.0118143   0.0036364   0.0039424  -0.0049697  -0.0094693  -0.0061502
    2  -0.0163402   0.0081955  -0.0020610  -0.0045222  -0.0047942   0.0033241
    3   0.0005008   0.0041474   0.0084103   0.0064531  -0.0034078  -0.0172576
           13          14          15          16          17          18
    1  -0.0110994   0.0110204   0.0021473  -0.0104596  -0.0008216  -0.0001531
    2   0.0040131   0.0209973   0.0080030  -0.0163061  -0.0164268   0.0114646
    3  -0.0094249   0.0191419   0.0064737  -0.0171492   0.0090215  -0.0103402
           19          20          21
    1  -0.0019792  -0.0052366   0.0046720
    2   0.0016485   0.0035158  -0.0044823
    3   0.0065952  -0.0015279  -0.0019726
 Max gradient component =       2.100E-02
 RMS gradient           =       8.418E-03
 Computing fast CPCM-SWIG gradient
 Updating gradient with PCM contributions...
 -- total gradient after adding PCM contribution --
---------------------------------------------------
  Atom         X              Y              Z     
---------------------------------------------------
   1       0.002683      -0.001421      -0.003879
   2       0.000089       0.000270      -0.001138
   3       0.001490       0.000309       0.000799
   4       0.000677      -0.000228      -0.000524
   5       0.001908       0.000651      -0.001001
   6      -0.000444       0.000445       0.001450
   7       0.001560      -0.002713      -0.002202
   8       0.001060       0.003054       0.001985
   9       0.001269      -0.000449       0.002765
  10      -0.002146      -0.001858       0.002352
  11      -0.003127      -0.001910      -0.000884
  12      -0.001400       0.000379      -0.002852
  13      -0.002716       0.001403      -0.001646
  14       0.005495       0.004205       0.006039
  15       0.000953       0.002388       0.001778
  16      -0.003727      -0.004485      -0.004536
  17      -0.001248      -0.007173       0.004845
  18      -0.000329       0.006088      -0.004818
  19      -0.000714      -0.000414       0.004897
  20      -0.003091       0.002825      -0.002458
  21       0.001759      -0.001365      -0.000972
---------------------------------------------------
 Number of fixed atoms: 0
 Gradient time:  CPU 908.40 s  wall 69.78 s
 Geometry Optimization Parameters
   NAtoms,    NIC,     NZ,  NCons,   NDum,   NFix, NCnnct, MaxDiis
       21     182       0       0       0       0       0       0


** GEOMETRY OPTIMIZATION IN DELOCALIZED INTERNAL COORDINATES **
   Searching for a Minimum

   Optimization Cycle:   1

                       Coordinates (Angstroms)
     ATOM                X               Y               Z
      1  C         0.0212145897   -0.2078861312    0.8030780658
      2  C        -0.8072516979   -0.9938117986    1.8164551712
      3  C        -1.5528216605   -2.1895446094    1.2468361035
      4  C        -2.0281638313   -2.0846663853   -0.1449059987
      5  C        -1.7200748880   -0.8499225687   -0.8730484718
      6  C        -1.1372389519    0.2775901657   -0.0821396745
      7  C        -0.7509119748    1.4962322548   -0.9113002593
      8  H         0.4462346905    0.6592671648    1.3272859261
      9  H        -0.2719583244   -1.2256961570    2.7400419941
     10  H        -2.1313953776   -2.7640615734    1.9685116979
     11  H        -2.9013057863   -2.6552142708   -0.4503503570
     12  H        -2.1017938626   -0.6878662064   -1.8763246735
     13  H        -1.5855400484    1.8303397415   -1.5375070369
     14  O         0.3956066200    1.1842016553   -1.7035598408
     15  H        -0.4630109597    2.3070063276   -0.2380775069
     16  H         0.1003102476    0.6163214236   -2.4351673691
     17  O         1.0169902055   -0.9283031954    0.1186593716
     18  H         1.2712010487   -0.3407212932   -0.6195861291
     19  O        -1.7791449471   -0.0050734089    2.1739485433
     20  O        -2.1170645402    0.6888579653    0.9107526038
     21  O        -0.9055930513   -2.9540267003    0.2365572403
   Point Group: c1    Number of degrees of freedom:    57


   Energy is   -648.103167930


 Attempting to generate delocalized internal coordinates
 Initial Hessian constructed with Jon Baker's OPTIMIZE code

 57 Hessian modes will be used to form the next step
  Hessian Eigenvalues:
     0.006036    0.010168    0.011925    0.012157    0.014750    0.017152
     0.020077    0.021398    0.024508    0.031278    0.035781    0.044270
     0.052359    0.053319    0.055593    0.060101    0.072419    0.074002
     0.078849    0.082123    0.089441    0.101419    0.105497    0.110503
     0.112821    0.116034    0.127217    0.137160    0.151610    0.154185
     0.160000    0.160000    0.174796    0.220453    0.220772    0.239695
     0.258416    0.272930    0.292397    0.300073    0.320463    0.323518
     0.338137    0.341720    0.345298    0.345376    0.346655    0.349438
     0.351044    0.351816    0.353257    0.379223    0.392314    0.412598
     0.445169    0.519363    0.529544

 Minimum search - taking simple RFO step
 Searching for Lamda that Minimizes Along All modes
 Value Taken    Lamda =  -0.00127416
 Step Taken.  Stepsize is  0.127859

                             Maximum     Tolerance    Cnvgd?
         Gradient           0.006396      0.000300      NO
         Displacement       0.044395      0.001200      NO
         Energy change     *********      0.000001      NO


 New Cartesian Coordinates Obtained by Inverse Iteration

 Displacement from previous Coordinates is:  0.268225
 ----------------------------------------------------------------
             Standard Nuclear Orientation (Angstroms)
    I     Atom           X                Y                Z
 ----------------------------------------------------------------
    1      C       0.0249692297    -0.2121815704     0.8100484697
    2      C      -0.8099022506    -0.9963573908     1.8144496477
    3      C      -1.5606625370    -2.1843433580     1.2461470549
    4      C      -2.0310581302    -2.0800606690    -0.1427842151
    5      C      -1.7135819924    -0.8540122227    -0.8707839831
    6      C      -1.1255304162     0.2698148574    -0.0864369914
    7      C      -0.7582305937     1.4933758715    -0.9126823770
    8      H       0.4402374541     0.6515504501     1.3354377247
    9      H      -0.2816667748    -1.2299079222     2.7361651336
   10      H      -2.1400656058    -2.7511544984     1.9648980760
   11      H      -2.9015774150    -2.6432568535    -0.4493566791
   12      H      -2.0876157076    -0.6933895208    -1.8720565107
   13      H      -1.6049390840     1.8275077086    -1.5128328865
   14      O       0.3637279601     1.2002581714    -1.7448859173
   15      H      -0.4600503096     2.2948868076    -0.2405487900
   16      H       0.0656205086     0.6593875119    -2.4862877423
   17      O       1.0395630236    -0.9323765168     0.1521577256
   18      H       1.3361642214    -0.3684659085    -0.5790118710
   19      O      -1.7756595847    -0.0045272325     2.1639152816
   20      O      -2.1044296500     0.6819204743     0.9025825516
   21      O      -0.9170248459    -2.9556457891     0.2420256980
 ----------------------------------------------------------------
 Nuclear Repulsion Energy =         802.40490571 hartrees
 There are       46 alpha and       45 beta electrons
 Discretize the solute cavity surface with Lebedev spheres
	Using 110 Lebedev grid points for each H atom
	Using 194 Lebedev grid points for other atoms
	Atomic van der Waals radii will be scaled by 1.20
 Remove points where switching function is < 1.0e-08
 Keep 1506 surface tesserae and discard 1812 interior tesserae
 Molecular Surface Area = 166.366 Angst**2
 Applying Cartesian multipole field
    Component          Value
    ---------          -----
     (2,0,0)        1.00000E-11
     (0,2,0)        2.00000E-11
     (0,0,2)       -3.00000E-11
 Nucleus-field energy     =     0.0000000055 hartrees
 Requested basis set is 6-311++G(2df,2p)
 There are 150 shells and 498 basis functions
 A cutoff of  1.0D-12 yielded  10203 shell pairs
 There are    113694 function pairs (    142524 Cartesian)
 Smallest overlap matrix eigenvalue = 2.16E-06
 Guess MOs from SCF MO coefficient file

 -----------------------------------------------------------------------
  General SCF calculation program by
  Eric Jon Sundstrom, Paul Horn, Yuezhi Mao, Dmitri Zuev, Alec White,
  David Stuck, Shaama M.S., Shane Yost, Joonho Lee, David Small,
  Daniel Levine, Susi Lehtola, Hugh Burton, Evgeny Epifanovsky,
  Bang C. Huynh
 -----------------------------------------------------------------------
 Exchange:     0.1500 Hartree-Fock + 1.0000 wB97M-V + LR-HF
 Correlation:  1.0000 wB97M-V
 Using SG-2 standard quadrature grid
 Nonlocal Correlation:  VV10 with C = 0.0100 and b = 6.00 and scale = 1.00000
 Grid used for NLC:  SG-1 standard quadrature
 
 Citation of the SMD model:
 Marenich, A.V.; Cramer, C.J.; Truhlar, D.G.
 J. Phys. Chem. B 2009, 113, 6378-6396.
 iSolventCode=           1
 Solvent: water                                                           
 
 vradii
            1           2           3           4           5           6
    1   1.8500000   1.8500000   1.8500000   1.8500000   1.8500000   1.8500000
            7           8           9          10          11          12
    1   1.8500000   1.2000000   1.2000000   1.2000000   1.2000000   1.2000000
           13          14          15          16          17          18
    1   1.2000000   1.5200000   1.2000000   1.2000000   1.5200000   1.2000000
           19          20          21
    1   1.5200000   1.5200000   1.5200000
 -------------------------------------------------------
 OpenMP BLAS3 based DFT computing Module                
 Release: version 1.0, May 2013, Q-Chem Inc. Pittsburgh 
 -------------------------------------------------------
 A unrestricted SCF calculation will be
 performed using Roothaan-Hall, DIIS, GDM
 SCF converges when RMS gradient is below 1.0e-07
 ---------------------------------------
  Cycle       Energy         DIIS error
 ---------------------------------------
    1    -648.0643976430      2.10e-04  Roothaan Step
 ---------------------------------------
  Cycle       Energy         DIIS error
 ---------------------------------------
    1    -648.0995535213      2.16e-04  
    2    -648.1047218549      1.99e-04  Done DIIS. Switching to GDM
 ---------------------------------------
  Cycle       Energy        RMS Gradient
 ---------------------------------------
    1    -648.1047218549      7.89e-03   Normal BFGS step
    2    -648.1040432178      1.04e-02  Line search: overstep
    3    -648.1079584120      1.37e-03   Normal BFGS step
    4    -648.1081360828      5.77e-04   Normal BFGS step
    5    -648.1081675902      2.87e-04   Normal BFGS step
    6    -648.1081734064      1.19e-04   Normal BFGS step
    7    -648.1081739394      1.09e-04   Normal BFGS step
    8    -648.1081741547      6.52e-05   Normal BFGS step
    9    -648.1081741756      2.84e-05   Normal BFGS step
   10    -648.1081741883      1.53e-05   Normal BFGS step
   11    -648.1081741901      6.03e-06   Normal BFGS step
   12    -648.1081741904      1.70e-06   Normal BFGS step
   13    -648.1081741905      1.17e-06   Normal BFGS step
   14    -648.1081741905      4.24e-07   Normal BFGS step
   15    -648.1081741905      2.12e-07   Normal BFGS step
   16    -648.1081741906      1.26e-07   Normal BFGS step
  GDM::WARNING energy changes are now smaller than effective accuracy.
  GDM::        calculation will continue, but THRESH should be increased
  GDM::        or SCF_CONVERGENCE decreased. 
  GDM::        effective_thresh = 4.12e-09
   17    -648.1081741905      4.06e-08  Convergence criterion met
 ---------------------------------------
 SCF time:   CPU 4681.26s  wall 323.00s 
<S^2> =          0.755076877
(3)  G-ENP(liq) elect-nuc-pol free energy of system     -648.108174191 a.u.
(4)  G-CDS(liq) cavity-dispersion-solvent structure 
     free energy                                                2.7460 kcal/mol
(6)  G-S(liq) free energy of system                     -648.103798094 a.u.
 SCF   energy in the final basis set =     -648.1037980944
 Total energy in the final basis set =     -648.1037980944
 
 --------------------------------------------------------------
 
                    Orbital Energies (a.u.)
 --------------------------------------------------------------
 
 Alpha MOs
 -- Occupied --
-19.4082 -19.4061 -19.3611 -19.3487 -19.3453 -10.4167 -10.4120 -10.4100
-10.4055 -10.4050 -10.3945 -10.3689  -1.2745  -1.2156  -1.1738  -1.1610
 -1.0759  -0.9508  -0.8736  -0.8470  -0.8059  -0.7560  -0.7198  -0.6990
 -0.6684  -0.6408  -0.6146  -0.6075  -0.5982  -0.5864  -0.5679  -0.5508
 -0.5307  -0.5264  -0.5162  -0.5001  -0.4934  -0.4783  -0.4509  -0.4465
 -0.4262  -0.4172  -0.3935  -0.3806  -0.3675  -0.3152
 -- Virtual --
  0.0252   0.0346   0.0363   0.0454   0.0551   0.0562   0.0596   0.0772
  0.0830   0.0848   0.0881   0.0963   0.1162   0.1251   0.1254   0.1329
  0.1363   0.1408   0.1474   0.1515   0.1557   0.1602   0.1616   0.1661
  0.1721   0.1744   0.1794   0.1860   0.1915   0.1956   0.1975   0.2027
  0.2150   0.2200   0.2203   0.2295   0.2325   0.2410   0.2486   0.2532
  0.2693   0.2757   0.2796   0.2879   0.2964   0.3047   0.3055   0.3184
  0.3228   0.3262   0.3351   0.3387   0.3458   0.3481   0.3495   0.3537
  0.3581   0.3743   0.3776   0.3783   0.3818   0.3861   0.3922   0.3954
  0.3985   0.4074   0.4149   0.4195   0.4258   0.4352   0.4382   0.4478
  0.4596   0.4647   0.4708   0.4778   0.4868   0.5112   0.5261   0.5283
  0.5440   0.5642   0.5925   0.5992   0.6101   0.6165   0.6227   0.6319
  0.6496   0.6568   0.6643   0.6695   0.6720   0.6819   0.6864   0.6972
  0.7002   0.7125   0.7175   0.7303   0.7332   0.7395   0.7484   0.7542
  0.7579   0.7758   0.7885   0.7996   0.8210   0.8382   0.8525   0.8611
  0.8828   0.8927   0.9004   0.9253   0.9349   0.9581   0.9712   0.9888
  1.0204   1.0386   1.0499   1.0560   1.0679   1.0761   1.0893   1.1087
  1.1167   1.1211   1.1333   1.1465   1.1506   1.1663   1.1793   1.1869
  1.1911   1.1972   1.2144   1.2233   1.2316   1.2442   1.2487   1.2664
  1.2700   1.2819   1.2913   1.3015   1.3056   1.3177   1.3189   1.3252
  1.3350   1.3418   1.3533   1.3616   1.3703   1.3732   1.3805   1.3888
  1.4045   1.4108   1.4296   1.4399   1.4619   1.4704   1.4858   1.4915
  1.4990   1.5113   1.5276   1.5412   1.5461   1.5528   1.5603   1.5830
  1.5894   1.6098   1.6221   1.6344   1.6494   1.6548   1.6646   1.6871
  1.6985   1.7125   1.7411   1.7658   1.7775   1.7968   1.8114   1.8257
  1.8333   1.8653   1.8858   1.9037   1.9410   1.9807   2.0118   2.0219
  2.0323   2.0432   2.0745   2.0932   2.1116   2.1193   2.1444   2.1738
  2.1962   2.2167   2.2374   2.2669   2.2872   2.3105   2.3385   2.3588
  2.3852   2.4156   2.4207   2.4453   2.4812   2.5133   2.5654   2.6518
  2.6784   2.6957   2.7043   2.7308   2.7757   2.7885   2.7912   2.8084
  2.8263   2.8565   2.8694   2.8843   2.8954   2.9065   2.9262   2.9553
  2.9698   2.9986   3.0030   3.0237   3.0348   3.0540   3.0661   3.0869
  3.0977   3.1197   3.1334   3.1555   3.1875   3.1988   3.2119   3.2308
  3.2387   3.2621   3.2778   3.2908   3.3048   3.3367   3.3591   3.3747
  3.3915   3.4027   3.4159   3.4444   3.4606   3.4665   3.4902   3.5064
  3.5163   3.5308   3.5437   3.5611   3.5743   3.5945   3.6016   3.6198
  3.6291   3.6441   3.6582   3.6764   3.6838   3.7001   3.7112   3.7373
  3.7445   3.7515   3.7594   3.7819   3.8049   3.8133   3.8268   3.8377
  3.8536   3.8706   3.8971   3.9078   3.9146   3.9285   3.9329   3.9449
  3.9525   3.9655   3.9973   4.0056   4.0129   4.0431   4.0498   4.0716
  4.1033   4.1136   4.1430   4.1740   4.1917   4.2214   4.2402   4.2526
  4.2791   4.2835   4.2937   4.3102   4.3353   4.3505   4.3609   4.3715
  4.3776   4.3871   4.4073   4.4228   4.4303   4.4525   4.4773   4.4938
  4.5010   4.5175   4.5216   4.5531   4.5649   4.6003   4.6118   4.6410
  4.6470   4.6612   4.7133   4.7318   4.7387   4.7607   4.7696   4.8174
  4.8932   4.9445   4.9927   5.0837   5.0903   5.1726   5.2297   5.2330
  5.2718   5.2840   5.2970   5.3008   5.3076   5.3316   5.3446   5.3483
  5.3531   5.3696   5.3815   5.3953   5.4183   5.4350   5.4558   5.4676
  5.4924   5.5134   5.5323   5.5463   5.5559   5.5920   5.6047   5.6095
  5.6260   5.6310   5.6672   5.6941   5.7145   5.7483   5.7548   5.7649
  5.7876   5.7931   5.8131   5.8622   5.8857   5.9418   5.9625   5.9873
  6.0239   6.0344   6.0434   6.0674   6.0945   6.2413   6.4814   6.5818
  6.6247   6.6529   6.6761   6.7375   6.7758   7.0448   7.1109   7.1355
  7.1810   7.2768   7.2922   7.3060   7.3274   7.3525   7.3794   7.4059
  7.4297   7.4405   7.4623   7.4810   7.5081   7.5572   7.6337   7.6623
  7.7093   7.7501   7.7926   7.8374   7.8764   7.9081   7.9644   8.2648
 24.5023  24.7063  24.7422  24.7792  24.8255  24.9239  24.9511  50.5970
 50.6209  50.6534  50.6947  50.7201
 
 Beta MOs
 -- Occupied --
-19.4082 -19.4040 -19.3581 -19.3485 -19.3452 -10.4174 -10.4120 -10.4096
-10.4065 -10.4045 -10.3945 -10.3565  -1.2725  -1.2102  -1.1733  -1.1606
 -1.0732  -0.9441  -0.8593  -0.8454  -0.8038  -0.7507  -0.7166  -0.6950
 -0.6651  -0.6366  -0.6122  -0.6037  -0.5941  -0.5834  -0.5663  -0.5446
 -0.5275  -0.5216  -0.5083  -0.4968  -0.4901  -0.4758  -0.4469  -0.4435
 -0.4208  -0.4111  -0.3924  -0.3784  -0.3622
 -- Virtual --
 -0.0186   0.0253   0.0344   0.0364   0.0479   0.0550   0.0565   0.0602
  0.0781   0.0834   0.0847   0.0891   0.0978   0.1163   0.1252   0.1254
  0.1327   0.1369   0.1408   0.1473   0.1508   0.1558   0.1606   0.1615
  0.1665   0.1718   0.1752   0.1793   0.1863   0.1924   0.1954   0.1990
  0.2028   0.2145   0.2202   0.2206   0.2296   0.2326   0.2423   0.2520
  0.2550   0.2711   0.2771   0.2803   0.2895   0.2974   0.3042   0.3068
  0.3197   0.3234   0.3276   0.3356   0.3389   0.3473   0.3496   0.3503
  0.3551   0.3623   0.3748   0.3788   0.3795   0.3825   0.3864   0.3937
  0.3957   0.4001   0.4093   0.4155   0.4211   0.4267   0.4352   0.4387
  0.4502   0.4615   0.4665   0.4729   0.4803   0.4876   0.5135   0.5278
  0.5305   0.5450   0.5657   0.5950   0.6056   0.6121   0.6226   0.6248
  0.6341   0.6507   0.6575   0.6654   0.6701   0.6744   0.6846   0.6863
  0.6981   0.7033   0.7137   0.7198   0.7312   0.7395   0.7410   0.7504
  0.7556   0.7639   0.7806   0.7896   0.8050   0.8240   0.8410   0.8568
  0.8632   0.8849   0.8949   0.9053   0.9270   0.9364   0.9607   0.9736
  0.9903   1.0233   1.0391   1.0505   1.0573   1.0695   1.0769   1.0911
  1.1110   1.1179   1.1224   1.1348   1.1481   1.1533   1.1684   1.1803
  1.1879   1.1933   1.1988   1.2158   1.2257   1.2332   1.2456   1.2510
  1.2691   1.2721   1.2834   1.2934   1.3036   1.3078   1.3188   1.3223
  1.3263   1.3359   1.3436   1.3554   1.3638   1.3716   1.3743   1.3836
  1.3912   1.4067   1.4134   1.4307   1.4415   1.4641   1.4741   1.4871
  1.4961   1.5012   1.5130   1.5318   1.5438   1.5501   1.5559   1.5628
  1.5874   1.5918   1.6107   1.6259   1.6359   1.6533   1.6574   1.6691
  1.6905   1.7012   1.7173   1.7463   1.7677   1.7826   1.8027   1.8128
  1.8273   1.8392   1.8670   1.8887   1.9069   1.9444   1.9825   2.0159
  2.0261   2.0336   2.0450   2.0769   2.0955   2.1140   2.1222   2.1499
  2.1784   2.1979   2.2199   2.2395   2.2695   2.2897   2.3146   2.3395
  2.3601   2.3864   2.4170   2.4223   2.4475   2.4822   2.5159   2.5688
  2.6625   2.6834   2.7012   2.7063   2.7346   2.7821   2.7935   2.8032
  2.8131   2.8362   2.8626   2.8791   2.8927   2.9055   2.9146   2.9317
  2.9764   2.9931   3.0192   3.0332   3.0359   3.0482   3.0598   3.0735
  3.0947   3.1095   3.1250   3.1418   3.1617   3.1907   3.2038   3.2184
  3.2329   3.2478   3.2742   3.2869   3.2999   3.3149   3.3420   3.3706
  3.3856   3.3962   3.4159   3.4249   3.4529   3.4662   3.4829   3.4954
  3.5106   3.5229   3.5332   3.5638   3.5674   3.5794   3.5981   3.6138
  3.6260   3.6363   3.6561   3.6681   3.6848   3.6956   3.7072   3.7174
  3.7453   3.7496   3.7698   3.7709   3.7869   3.8108   3.8196   3.8341
  3.8428   3.8632   3.8762   3.9046   3.9128   3.9202   3.9321   3.9367
  3.9497   3.9606   3.9706   4.0031   4.0094   4.0198   4.0544   4.0582
  4.0782   4.1089   4.1269   4.1496   4.1804   4.1965   4.2251   4.2453
  4.2555   4.2832   4.2934   4.2985   4.3187   4.3405   4.3584   4.3674
  4.3753   4.3828   4.3958   4.4185   4.4262   4.4364   4.4665   4.4841
  4.4974   4.5077   4.5252   4.5301   4.5607   4.5790   4.6070   4.6166
  4.6491   4.6596   4.6648   4.7167   4.7355   4.7502   4.7662   4.7746
  4.8229   4.8968   4.9507   5.0028   5.0923   5.1034   5.1818   5.2364
  5.2399   5.2747   5.2880   5.2995   5.3037   5.3089   5.3370   5.3495
  5.3514   5.3567   5.3726   5.3832   5.3997   5.4219   5.4412   5.4613
  5.4700   5.4947   5.5167   5.5369   5.5496   5.5577   5.5954   5.6090
  5.6150   5.6339   5.6495   5.6686   5.6960   5.7180   5.7507   5.7570
  5.7683   5.7894   5.8134   5.8195   5.8650   5.8912   5.9487   5.9657
  5.9966   6.0268   6.0389   6.0455   6.0704   6.0955   6.2428   6.4893
  6.5847   6.6269   6.6552   6.6773   6.7394   6.7768   7.0475   7.1117
  7.1365   7.1886   7.2814   7.2953   7.3092   7.3284   7.3536   7.3803
  7.4089   7.4305   7.4428   7.4642   7.4852   7.5129   7.5587   7.6361
  7.6635   7.7102   7.7589   7.7932   7.8437   7.8790   7.9111   7.9676
  8.2663  24.5077  24.7083  24.7424  24.7795  24.8257  24.9246  24.9555
 50.5974  50.6212  50.6542  50.6959  50.7216
 --------------------------------------------------------------
 
          Ground-State Mulliken Net Atomic Charges

     Atom                 Charge (a.u.)    Spin (a.u.)
  --------------------------------------------------------
      1 C                    -0.184815       0.045521
      2 C                    -0.022888      -0.022397
      3 C                    -0.420095       0.067677
      4 C                    -0.082126      -0.042920
      5 C                    -0.471432       0.924402
      6 C                     0.201799      -0.105624
      7 C                    -0.325609       0.013219
      8 H                     0.332111      -0.001258
      9 H                     0.270339       0.000791
     10 H                     0.273500       0.002091
     11 H                     0.257718       0.008501
     12 H                     0.329219      -0.016503
     13 H                     0.250866       0.000027
     14 O                    -0.379398       0.003514
     15 H                     0.236873      -0.001000
     16 H                     0.327025       0.000685
     17 O                    -0.420040       0.005029
     18 H                     0.337791       0.003177
     19 O                    -0.108243       0.003639
     20 O                    -0.121403       0.037043
     21 O                    -0.281192       0.074386
  --------------------------------------------------------
  Sum of atomic charges =    -0.000000
  Sum of spin   charges =     1.000000

 -----------------------------------------------------------------
                    Cartesian Multipole Moments
 -----------------------------------------------------------------
    Charge (ESU x 10^10)
                -0.0000
    Dipole Moment (Debye)
         X      -1.5327      Y       1.3031      Z      -2.5937
       Tot       3.2824
    Quadrupole Moments (Debye-Ang)
        XX     -71.9079     XY       7.2238     YY     -78.4170
        XZ       8.4294     YZ      -3.9631     ZZ     -60.7992
    Octopole Moments (Debye-Ang^2)
       XXX     197.7219    XXY      15.6703    XYY      47.8847
       YYY     140.7703    XXZ     -38.9751    XYZ      13.3126
       YYZ      -6.9627    XZZ      64.1369    YZZ      16.9001
       ZZZ     -69.0198
    Hexadecapole Moments (Debye-Ang^3)
      XXXX    -866.6418   XXXY    -103.0534   XXYY    -262.8081
      XYYY    -146.6586   YYYY   -1084.8992   XXXZ     152.6923
      XXYZ      37.1330   XYYZ      36.1551   YYYZ     124.8632
      XXZZ    -261.7676   XYZZ     -41.0028   YYZZ    -254.5263
      XZZZ     147.8185   YZZZ     100.7340   ZZZZ    -598.5948
 -----------------------------------------------------------------
 Calculating analytic gradient of the SCF energy
 Gradient of CDS energy
            1           2           3           4           5           6
    1   0.0017247   0.0000230   0.0000246  -0.0001757  -0.0001345   0.0000433
    2  -0.0011328   0.0001177  -0.0003764  -0.0004029   0.0000761   0.0000663
    3  -0.0009775   0.0001877   0.0002348  -0.0001782  -0.0002536   0.0001567
            7           8           9          10          11          12
    1   0.0000265  -0.0000475   0.0000663  -0.0000976  -0.0001552  -0.0000448
    2   0.0009977   0.0001905  -0.0000092  -0.0000896  -0.0001004   0.0000765
    3  -0.0003122   0.0000972   0.0002065   0.0001405  -0.0000547  -0.0001207
           13          14          15          16          17          18
    1  -0.0002075  -0.0001616   0.0001346   0.0001867  -0.0017599   0.0004405
    2  -0.0002641  -0.0002114  -0.0001160   0.0000466   0.0010042  -0.0000523
    3  -0.0000811   0.0002567   0.0002824  -0.0004970   0.0010674  -0.0001646
           19          20          21
    1   0.0000074   0.0000675   0.0000394
    2   0.0000860  -0.0000707   0.0001641
    3  -0.0000924   0.0000867   0.0000152
 Gradient of SCF Energy
            1           2           3           4           5           6
    1   0.0047421  -0.0084766   0.0057680   0.0057622   0.0028215  -0.0055287
    2  -0.0083970   0.0075280  -0.0005620   0.0036306  -0.0020717   0.0038306
    3  -0.0031645  -0.0049068  -0.0010748   0.0018197   0.0090656   0.0041647
            7           8           9          10          11          12
    1   0.0091682   0.0028894   0.0023802  -0.0028800  -0.0062367  -0.0048806
    2  -0.0122599   0.0051840  -0.0014233  -0.0026881  -0.0027658   0.0028684
    3   0.0033430   0.0024273   0.0058894   0.0040166  -0.0025462  -0.0140346
           13          14          15          16          17          18
    1  -0.0076362   0.0065928   0.0008989  -0.0070268   0.0005059   0.0012521
    2   0.0026268   0.0160179   0.0054133  -0.0116222  -0.0111928   0.0069991
    3  -0.0078255   0.0122660   0.0047747  -0.0137403   0.0057552  -0.0068510
           19          20          21
    1  -0.0006617  -0.0020470   0.0025929
    2   0.0011766   0.0009462  -0.0032386
    3   0.0031289  -0.0013807  -0.0011265
 Max gradient component =       1.602E-02
 RMS gradient           =       6.218E-03
 Computing fast CPCM-SWIG gradient
 Updating gradient with PCM contributions...
 -- total gradient after adding PCM contribution --
---------------------------------------------------
  Atom         X              Y              Z     
---------------------------------------------------
   1      -0.000068      -0.000330       0.000605
   2       0.000107       0.000079      -0.000425
   3      -0.000085       0.000187       0.000578
   4       0.000111      -0.000361      -0.000148
   5       0.000218       0.000109      -0.000299
   6      -0.001747       0.000576       0.001268
   7      -0.000466       0.000442       0.000927
   8       0.000156      -0.000016       0.000262
   9      -0.000270       0.000198       0.000178
  10      -0.000032      -0.000037      -0.000124
  11       0.000060       0.000061      -0.000013
  12      -0.000235      -0.000038       0.000152
  13       0.000519       0.000146      -0.000424
  14       0.000884       0.000521      -0.000736
  15      -0.000317       0.000050       0.000127
  16      -0.000160      -0.000570      -0.000947
  17       0.000618      -0.001546       0.001446
  18       0.000424       0.001340      -0.001601
  19       0.000633      -0.000918       0.001390
  20       0.000093       0.000197      -0.002178
  21      -0.000443      -0.000091      -0.000040
---------------------------------------------------
 Number of fixed atoms: 0
 Gradient time:  CPU 809.84 s  wall 63.36 s
 Geometry Optimization Parameters
   NAtoms,    NIC,     NZ,  NCons,   NDum,   NFix, NCnnct, MaxDiis
       21     182       0       0       0       0       0       0

 Cartesian Hessian Update
 Hessian updated using BFGS update


** GEOMETRY OPTIMIZATION IN DELOCALIZED INTERNAL COORDINATES **
   Searching for a Minimum

   Optimization Cycle:   2

                       Coordinates (Angstroms)
     ATOM                X               Y               Z
      1  C         0.0249692297   -0.2121815704    0.8100484697
      2  C        -0.8099022506   -0.9963573908    1.8144496477
      3  C        -1.5606625370   -2.1843433580    1.2461470549
      4  C        -2.0310581302   -2.0800606690   -0.1427842151
      5  C        -1.7135819924   -0.8540122227   -0.8707839831
      6  C        -1.1255304162    0.2698148574   -0.0864369914
      7  C        -0.7582305937    1.4933758715   -0.9126823770
      8  H         0.4402374541    0.6515504501    1.3354377247
      9  H        -0.2816667748   -1.2299079222    2.7361651336
     10  H        -2.1400656058   -2.7511544984    1.9648980760
     11  H        -2.9015774150   -2.6432568535   -0.4493566791
     12  H        -2.0876157076   -0.6933895208   -1.8720565107
     13  H        -1.6049390840    1.8275077086   -1.5128328865
     14  O         0.3637279601    1.2002581714   -1.7448859173
     15  H        -0.4600503096    2.2948868076   -0.2405487900
     16  H         0.0656205086    0.6593875119   -2.4862877423
     17  O         1.0395630236   -0.9323765168    0.1521577256
     18  H         1.3361642214   -0.3684659085   -0.5790118710
     19  O        -1.7756595847   -0.0045272325    2.1639152816
     20  O        -2.1044296500    0.6819204743    0.9025825516
     21  O        -0.9170248459   -2.9556457891    0.2420256980
   Point Group: c1    Number of degrees of freedom:    57


   Energy is   -648.103798094

 Hessian updated using BFGS update

 57 Hessian modes will be used to form the next step
  Hessian Eigenvalues:
     0.006172    0.010191    0.011978    0.012109    0.014681    0.017353
     0.020321    0.021349    0.024583    0.031391    0.035627    0.044075
     0.052471    0.053969    0.055787    0.060405    0.072826    0.074044
     0.079134    0.082220    0.089684    0.101450    0.105390    0.110504
     0.112866    0.115973    0.127054    0.137020    0.150693    0.154177
     0.156462    0.161646    0.174847    0.220646    0.225339    0.242823
     0.258470    0.273646    0.289444    0.293323    0.310368    0.321326
     0.337080    0.341090    0.342881    0.345337    0.346499    0.349731
     0.351380    0.352833    0.357437    0.379237    0.397263    0.417636
     0.448160    0.495686    0.527900

 Minimum search - taking simple RFO step
 Searching for Lamda that Minimizes Along All modes
 Value Taken    Lamda =  -0.00009498
 Step Taken.  Stepsize is  0.041821

                             Maximum     Tolerance    Cnvgd?
         Gradient           0.001553      0.000300      NO
         Displacement       0.014008      0.001200      NO
         Energy change     -0.000630      0.000001      NO


 New Cartesian Coordinates Obtained by Inverse Iteration

 Displacement from previous Coordinates is:  0.065099
 ----------------------------------------------------------------
             Standard Nuclear Orientation (Angstroms)
    I     Atom           X                Y                Z
 ----------------------------------------------------------------
    1      C       0.0221543407    -0.2109628088     0.8064965498
    2      C      -0.8109838671    -0.9929447019     1.8133909893
    3      C      -1.5583486947    -2.1823427156     1.2447980963
    4      C      -2.0302659478    -2.0786222250    -0.1429981978
    5      C      -1.7173564285    -0.8518055155    -0.8701214638
    6      C      -1.1274851784     0.2710073455    -0.0869108572
    7      C      -0.7606837550     1.4932095685    -0.9112757874
    8      H       0.4411803145     0.6527911331     1.3273372712
    9      H      -0.2791887021    -1.2273562657     2.7324452904
   10      H      -2.1341052967    -2.7518262112     1.9638393392
   11      H      -2.8982555933    -2.6451665366    -0.4494675648
   12      H      -2.0867108463    -0.6924641823    -1.8730495715
   13      H      -1.6077053176     1.8238208875    -1.5125185632
   14      O       0.3664945874     1.1988237935    -1.7323948395
   15      H      -0.4644104347     2.2952726129    -0.2396238883
   16      H       0.0750562233     0.6546572772    -2.4718734047
   17      O       1.0296426012    -0.9376650352     0.1471236599
   18      H       1.3322850276    -0.3802722599    -0.5829138488
   19      O      -1.7774466476    -0.0016201992     2.1629372367
   20      O      -2.1039419724     0.6860161501     0.9050942664
   21      O      -0.9116369128    -2.9495277113     0.2398446879
 ----------------------------------------------------------------
 Nuclear Repulsion Energy =         803.24223935 hartrees
 There are       46 alpha and       45 beta electrons
 Discretize the solute cavity surface with Lebedev spheres
	Using 110 Lebedev grid points for each H atom
	Using 194 Lebedev grid points for other atoms
	Atomic van der Waals radii will be scaled by 1.20
 Remove points where switching function is < 1.0e-08
 Keep 1499 surface tesserae and discard 1819 interior tesserae
 Molecular Surface Area = 166.071 Angst**2
 Applying Cartesian multipole field
    Component          Value
    ---------          -----
     (2,0,0)        1.00000E-11
     (0,2,0)        2.00000E-11
     (0,0,2)       -3.00000E-11
 Nucleus-field energy     =     0.0000000055 hartrees
 Requested basis set is 6-311++G(2df,2p)
 There are 150 shells and 498 basis functions
 A cutoff of  1.0D-12 yielded  10212 shell pairs
 There are    113773 function pairs (    142615 Cartesian)
 Smallest overlap matrix eigenvalue = 2.14E-06
 Guess MOs from SCF MO coefficient file

 -----------------------------------------------------------------------
  General SCF calculation program by
  Eric Jon Sundstrom, Paul Horn, Yuezhi Mao, Dmitri Zuev, Alec White,
  David Stuck, Shaama M.S., Shane Yost, Joonho Lee, David Small,
  Daniel Levine, Susi Lehtola, Hugh Burton, Evgeny Epifanovsky,
  Bang C. Huynh
 -----------------------------------------------------------------------
 Exchange:     0.1500 Hartree-Fock + 1.0000 wB97M-V + LR-HF
 Correlation:  1.0000 wB97M-V
 Using SG-2 standard quadrature grid
 Nonlocal Correlation:  VV10 with C = 0.0100 and b = 6.00 and scale = 1.00000
 Grid used for NLC:  SG-1 standard quadrature
 
 Citation of the SMD model:
 Marenich, A.V.; Cramer, C.J.; Truhlar, D.G.
 J. Phys. Chem. B 2009, 113, 6378-6396.
 iSolventCode=           1
 Solvent: water                                                           
 
 vradii
            1           2           3           4           5           6
    1   1.8500000   1.8500000   1.8500000   1.8500000   1.8500000   1.8500000
            7           8           9          10          11          12
    1   1.8500000   1.2000000   1.2000000   1.2000000   1.2000000   1.2000000
           13          14          15          16          17          18
    1   1.2000000   1.5200000   1.2000000   1.2000000   1.5200000   1.2000000
           19          20          21
    1   1.5200000   1.5200000   1.5200000
 -------------------------------------------------------
 OpenMP BLAS3 based DFT computing Module                
 Release: version 1.0, May 2013, Q-Chem Inc. Pittsburgh 
 -------------------------------------------------------
 A unrestricted SCF calculation will be
 performed using Roothaan-Hall, DIIS, GDM
 SCF converges when RMS gradient is below 1.0e-07
 ---------------------------------------
  Cycle       Energy         DIIS error
 ---------------------------------------
    1    -648.0656469652      1.89e-04  Roothaan Step
 ---------------------------------------
  Cycle       Energy         DIIS error
 ---------------------------------------
    1    -648.0997992839      2.14e-04  
    2    -648.1049015865      1.95e-04  Done DIIS. Switching to GDM
 ---------------------------------------
  Cycle       Energy        RMS Gradient
 ---------------------------------------
    1    -648.1049015865      7.60e-03   Normal BFGS step
    2    -648.1042847855      1.01e-02  Line search: overstep
    3    -648.1080069529      1.47e-03   Normal BFGS step
    4    -648.1081747422      6.94e-04   Normal BFGS step
    5    -648.1082059030      3.29e-04   Normal BFGS step
    6    -648.1082111620      1.40e-04   Normal BFGS step
    7    -648.1082117272      1.25e-04   Normal BFGS step
    8    -648.1082119416      7.92e-05   Normal BFGS step
    9    -648.1082119669      4.25e-05   Normal BFGS step
   10    -648.1082119809      1.97e-05   Normal BFGS step
   11    -648.1082119831      6.86e-06   Normal BFGS step
   12    -648.1082119834      1.35e-06   Normal BFGS step
   13    -648.1082119835      1.20e-06   Normal BFGS step
   14    -648.1082119835      5.45e-07   Normal BFGS step
   15    -648.1082119836      2.66e-07   Normal BFGS step
   16    -648.1082119836      1.32e-07   Normal BFGS step
  GDM::WARNING energy changes are now smaller than effective accuracy.
  GDM::        calculation will continue, but THRESH should be increased
  GDM::        or SCF_CONVERGENCE decreased. 
  GDM::        effective_thresh = 8.75e-09
   17    -648.1082119835      5.19e-08  Convergence criterion met
 ---------------------------------------
 SCF time:   CPU 4267.25s  wall 295.00s 
<S^2> =          0.755079380
(3)  G-ENP(liq) elect-nuc-pol free energy of system     -648.108211984 a.u.
(4)  G-CDS(liq) cavity-dispersion-solvent structure 
     free energy                                                2.7460 kcal/mol
(6)  G-S(liq) free energy of system                     -648.103835972 a.u.
 SCF   energy in the final basis set =     -648.1038359724
 Total energy in the final basis set =     -648.1038359724
 
 --------------------------------------------------------------
 
                    Orbital Energies (a.u.)
 --------------------------------------------------------------
 
 Alpha MOs
 -- Occupied --
-19.4080 -19.4057 -19.3608 -19.3485 -19.3446 -10.4160 -10.4116 -10.4095
-10.4053 -10.4048 -10.3941 -10.3687  -1.2752  -1.2156  -1.1746  -1.1616
 -1.0751  -0.9514  -0.8739  -0.8471  -0.8060  -0.7562  -0.7200  -0.6996
 -0.6687  -0.6413  -0.6150  -0.6076  -0.5983  -0.5865  -0.5680  -0.5509
 -0.5309  -0.5266  -0.5160  -0.4999  -0.4935  -0.4785  -0.4507  -0.4466
 -0.4263  -0.4171  -0.3933  -0.3803  -0.3670  -0.3151
 -- Virtual --
  0.0252   0.0347   0.0363   0.0454   0.0552   0.0563   0.0601   0.0772
  0.0832   0.0848   0.0886   0.0966   0.1164   0.1253   0.1255   0.1329
  0.1365   0.1409   0.1474   0.1516   0.1557   0.1602   0.1617   0.1661
  0.1722   0.1745   0.1794   0.1861   0.1918   0.1958   0.1978   0.2026
  0.2150   0.2200   0.2202   0.2296   0.2323   0.2413   0.2488   0.2532
  0.2697   0.2759   0.2799   0.2884   0.2971   0.3052   0.3060   0.3184
  0.3230   0.3265   0.3354   0.3390   0.3459   0.3480   0.3499   0.3543
  0.3585   0.3743   0.3778   0.3786   0.3822   0.3863   0.3926   0.3956
  0.3990   0.4078   0.4157   0.4201   0.4263   0.4356   0.4393   0.4487
  0.4601   0.4652   0.4716   0.4778   0.4870   0.5113   0.5267   0.5283
  0.5445   0.5648   0.5923   0.5995   0.6104   0.6173   0.6235   0.6326
  0.6502   0.6575   0.6644   0.6698   0.6728   0.6824   0.6870   0.6971
  0.7006   0.7133   0.7178   0.7305   0.7332   0.7405   0.7489   0.7548
  0.7579   0.7762   0.7888   0.7997   0.8206   0.8381   0.8528   0.8622
  0.8827   0.8934   0.9003   0.9253   0.9364   0.9592   0.9717   0.9888
  1.0203   1.0389   1.0497   1.0561   1.0680   1.0771   1.0898   1.1093
  1.1178   1.1225   1.1335   1.1472   1.1510   1.1665   1.1796   1.1879
  1.1920   1.1975   1.2145   1.2236   1.2321   1.2451   1.2503   1.2673
  1.2710   1.2826   1.2914   1.3017   1.3058   1.3176   1.3191   1.3261
  1.3359   1.3428   1.3544   1.3620   1.3703   1.3758   1.3811   1.3892
  1.4055   1.4120   1.4297   1.4411   1.4623   1.4710   1.4867   1.4922
  1.5004   1.5113   1.5281   1.5412   1.5475   1.5536   1.5605   1.5848
  1.5899   1.6114   1.6238   1.6348   1.6501   1.6562   1.6640   1.6877
  1.6995   1.7126   1.7421   1.7668   1.7778   1.7976   1.8133   1.8264
  1.8336   1.8654   1.8869   1.9057   1.9420   1.9818   2.0117   2.0227
  2.0342   2.0442   2.0775   2.0938   2.1133   2.1213   2.1463   2.1728
  2.1969   2.2168   2.2387   2.2678   2.2877   2.3117   2.3388   2.3612
  2.3865   2.4150   2.4226   2.4455   2.4814   2.5137   2.5664   2.6526
  2.6798   2.6957   2.7047   2.7313   2.7761   2.7900   2.7930   2.8091
  2.8272   2.8583   2.8709   2.8856   2.8969   2.9078   2.9265   2.9556
  2.9707   2.9993   3.0056   3.0244   3.0358   3.0555   3.0670   3.0876
  3.0992   3.1222   3.1343   3.1561   3.1899   3.1989   3.2125   3.2319
  3.2401   3.2631   3.2784   3.2934   3.3058   3.3370   3.3602   3.3746
  3.3929   3.4036   3.4166   3.4454   3.4604   3.4673   3.4914   3.5074
  3.5177   3.5318   3.5441   3.5619   3.5754   3.5951   3.6029   3.6205
  3.6295   3.6455   3.6591   3.6770   3.6844   3.7007   3.7117   3.7388
  3.7453   3.7530   3.7603   3.7826   3.8053   3.8145   3.8274   3.8395
  3.8539   3.8726   3.8984   3.9097   3.9172   3.9302   3.9337   3.9474
  3.9533   3.9678   3.9990   4.0076   4.0144   4.0448   4.0515   4.0742
  4.1047   4.1159   4.1471   4.1758   4.1943   4.2227   4.2430   4.2550
  4.2814   4.2861   4.2966   4.3110   4.3385   4.3519   4.3633   4.3732
  4.3811   4.3890   4.4088   4.4247   4.4328   4.4537   4.4792   4.4958
  4.5037   4.5200   4.5232   4.5553   4.5648   4.6032   4.6136   4.6449
  4.6490   4.6629   4.7148   4.7329   4.7405   4.7609   4.7713   4.8197
  4.8933   4.9460   4.9946   5.0832   5.0909   5.1726   5.2309   5.2354
  5.2728   5.2844   5.2981   5.3016   5.3093   5.3325   5.3457   5.3483
  5.3537   5.3712   5.3820   5.3967   5.4191   5.4367   5.4579   5.4682
  5.4946   5.5149   5.5351   5.5487   5.5597   5.5933   5.6066   5.6106
  5.6284   5.6333   5.6744   5.6977   5.7171   5.7497   5.7570   5.7689
  5.7892   5.7953   5.8160   5.8660   5.8869   5.9438   5.9674   5.9897
  6.0273   6.0358   6.0469   6.0717   6.1008   6.2478   6.4815   6.5836
  6.6252   6.6557   6.6775   6.7468   6.7811   7.0464   7.1119   7.1376
  7.1815   7.2789   7.3000   7.3082   7.3347   7.3517   7.3836   7.4104
  7.4309   7.4421   7.4663   7.4824   7.5108   7.5603   7.6358   7.6636
  7.7150   7.7515   7.7949   7.8386   7.8768   7.9120   7.9672   8.2640
 24.5035  24.7088  24.7439  24.7867  24.8332  24.9265  24.9550  50.5985
 50.6230  50.6559  50.6941  50.7213
 
 Beta MOs
 -- Occupied --
-19.4080 -19.4037 -19.3578 -19.3483 -19.3445 -10.4168 -10.4117 -10.4090
-10.4064 -10.4043 -10.3941 -10.3564  -1.2732  -1.2102  -1.1741  -1.1612
 -1.0724  -0.9447  -0.8596  -0.8456  -0.8039  -0.7509  -0.7167  -0.6956
 -0.6653  -0.6370  -0.6127  -0.6037  -0.5941  -0.5835  -0.5663  -0.5447
 -0.5276  -0.5217  -0.5082  -0.4967  -0.4901  -0.4759  -0.4466  -0.4437
 -0.4210  -0.4110  -0.3922  -0.3781  -0.3617
 -- Virtual --
 -0.0185   0.0253   0.0344   0.0364   0.0479   0.0550   0.0565   0.0606
  0.0782   0.0835   0.0847   0.0897   0.0981   0.1165   0.1254   0.1254
  0.1327   0.1372   0.1410   0.1473   0.1508   0.1559   0.1606   0.1615
  0.1665   0.1720   0.1753   0.1793   0.1864   0.1927   0.1955   0.1993
  0.2027   0.2145   0.2202   0.2205   0.2298   0.2324   0.2425   0.2521
  0.2552   0.2714   0.2771   0.2806   0.2900   0.2981   0.3049   0.3072
  0.3198   0.3237   0.3279   0.3358   0.3392   0.3475   0.3495   0.3508
  0.3556   0.3628   0.3749   0.3788   0.3798   0.3829   0.3866   0.3942
  0.3959   0.4005   0.4097   0.4163   0.4217   0.4273   0.4356   0.4396
  0.4509   0.4620   0.4670   0.4737   0.4803   0.4878   0.5136   0.5286
  0.5304   0.5454   0.5663   0.5950   0.6058   0.6125   0.6233   0.6255
  0.6348   0.6513   0.6582   0.6656   0.6706   0.6750   0.6848   0.6869
  0.6980   0.7037   0.7144   0.7201   0.7317   0.7393   0.7419   0.7510
  0.7563   0.7639   0.7810   0.7900   0.8051   0.8237   0.8409   0.8571
  0.8642   0.8847   0.8956   0.9052   0.9271   0.9378   0.9615   0.9744
  0.9903   1.0232   1.0394   1.0503   1.0574   1.0695   1.0779   1.0918
  1.1117   1.1189   1.1238   1.1350   1.1488   1.1537   1.1686   1.1807
  1.1890   1.1941   1.1991   1.2159   1.2261   1.2336   1.2465   1.2526
  1.2697   1.2733   1.2843   1.2935   1.3039   1.3078   1.3187   1.3223
  1.3273   1.3369   1.3444   1.3569   1.3642   1.3715   1.3771   1.3841
  1.3918   1.4075   1.4146   1.4308   1.4428   1.4645   1.4748   1.4880
  1.4967   1.5024   1.5129   1.5325   1.5439   1.5514   1.5564   1.5631
  1.5892   1.5924   1.6124   1.6277   1.6363   1.6545   1.6584   1.6686
  1.6912   1.7022   1.7174   1.7471   1.7689   1.7827   1.8037   1.8148
  1.8279   1.8396   1.8672   1.8899   1.9089   1.9455   1.9836   2.0155
  2.0273   2.0355   2.0459   2.0800   2.0962   2.1157   2.1244   2.1517
  2.1775   2.1985   2.2200   2.2408   2.2703   2.2901   2.3158   2.3398
  2.3625   2.3877   2.4164   2.4242   2.4478   2.4825   2.5163   2.5699
  2.6633   2.6847   2.7013   2.7067   2.7351   2.7827   2.7949   2.8049
  2.8140   2.8372   2.8641   2.8811   2.8939   2.9072   2.9158   2.9321
  2.9770   2.9950   3.0208   3.0331   3.0363   3.0501   3.0604   3.0749
  3.0950   3.1112   3.1273   3.1426   3.1624   3.1933   3.2038   3.2191
  3.2340   3.2489   3.2749   3.2880   3.3024   3.3159   3.3422   3.3710
  3.3861   3.3975   3.4167   3.4262   3.4537   3.4662   3.4835   3.4967
  3.5117   3.5242   3.5344   3.5645   3.5679   3.5805   3.5986   3.6154
  3.6267   3.6372   3.6570   3.6689   3.6856   3.6955   3.7078   3.7183
  3.7466   3.7506   3.7712   3.7716   3.7877   3.8110   3.8209   3.8351
  3.8441   3.8635   3.8780   3.9057   3.9147   3.9227   3.9341   3.9376
  3.9521   3.9619   3.9725   4.0046   4.0114   4.0216   4.0554   4.0603
  4.0808   4.1103   4.1295   4.1536   4.1822   4.1990   4.2262   4.2481
  4.2579   4.2856   4.2965   4.3012   4.3197   4.3438   4.3607   4.3688
  4.3766   4.3864   4.3973   4.4198   4.4280   4.4389   4.4676   4.4858
  4.4997   4.5104   4.5267   4.5329   4.5630   4.5786   4.6097   4.6181
  4.6529   4.6618   4.6664   4.7181   4.7367   4.7517   4.7664   4.7765
  4.8252   4.8968   4.9522   5.0047   5.0920   5.1039   5.1815   5.2375
  5.2424   5.2755   5.2888   5.3006   5.3045   5.3107   5.3377   5.3501
  5.3518   5.3575   5.3740   5.3838   5.4011   5.4226   5.4431   5.4635
  5.4705   5.4970   5.5182   5.5399   5.5518   5.5615   5.5969   5.6101
  5.6165   5.6362   5.6521   5.6757   5.6997   5.7206   5.7517   5.7600
  5.7721   5.7910   5.8160   5.8217   5.8689   5.8925   5.9508   5.9707
  5.9988   6.0301   6.0404   6.0489   6.0747   6.1017   6.2493   6.4895
  6.5868   6.6274   6.6578   6.6787   6.7486   6.7820   7.0490   7.1127
  7.1387   7.1892   7.2852   7.3018   7.3113   7.3356   7.3527   7.3847
  7.4132   7.4318   7.4445   7.4680   7.4867   7.5155   7.5618   7.6382
  7.6648   7.7161   7.7602   7.7955   7.8451   7.8794   7.9149   7.9705
  8.2655  24.5088  24.7108  24.7441  24.7869  24.8334  24.9272  24.9594
 50.5989  50.6233  50.6568  50.6953  50.7228
 --------------------------------------------------------------
 
          Ground-State Mulliken Net Atomic Charges

     Atom                 Charge (a.u.)    Spin (a.u.)
  --------------------------------------------------------
      1 C                    -0.178014       0.045540
      2 C                    -0.028117      -0.022717
      3 C                    -0.416373       0.067713
      4 C                    -0.087973      -0.042908
      5 C                    -0.461902       0.924080
      6 C                     0.186187      -0.105327
      7 C                    -0.324108       0.013207
      8 H                     0.331708      -0.001265
      9 H                     0.270476       0.000774
     10 H                     0.273996       0.002085
     11 H                     0.257973       0.008509
     12 H                     0.329875      -0.016514
     13 H                     0.250002       0.000012
     14 O                    -0.377247       0.003141
     15 H                     0.237070      -0.000997
     16 H                     0.326125       0.000843
     17 O                    -0.418041       0.004829
     18 H                     0.337378       0.003269
     19 O                    -0.108381       0.003630
     20 O                    -0.121199       0.037257
     21 O                    -0.279434       0.074838
  --------------------------------------------------------
  Sum of atomic charges =     0.000000
  Sum of spin   charges =     1.000000

 -----------------------------------------------------------------
                    Cartesian Multipole Moments
 -----------------------------------------------------------------
    Charge (ESU x 10^10)
                 0.0000
    Dipole Moment (Debye)
         X      -1.4959      Y       1.2692      Z      -2.6213
       Tot       3.2741
    Quadrupole Moments (Debye-Ang)
        XX     -71.9059     XY       7.2196     YY     -78.3830
        XZ       8.4069     YZ      -3.9515     ZZ     -60.8427
    Octopole Moments (Debye-Ang^2)
       XXX     198.1567    XXY      15.5112    XYY      47.9027
       YYY     140.2312    XXZ     -39.0408    XYZ      13.2918
       YYZ      -7.0285    XZZ      64.4465    YZZ      16.8201
       ZZZ     -69.0736
    Hexadecapole Moments (Debye-Ang^3)
      XXXX    -866.5679   XXXY    -102.5025   XXYY    -262.4726
      XYYY    -145.3152   YYYY   -1082.0466   XXXZ     152.9394
      XXYZ      36.8463   XYYZ      36.1973   YYYZ     123.7441
      XXZZ    -261.3776   XYZZ     -40.6727   YYZZ    -253.8456
      XZZZ     147.6630   YZZZ      99.9964   ZZZZ    -597.6091
 -----------------------------------------------------------------
 Calculating analytic gradient of the SCF energy
 Gradient of CDS energy
            1           2           3           4           5           6
    1   0.0018739   0.0000211   0.0000293  -0.0001747  -0.0001368   0.0000437
    2  -0.0012498   0.0001198  -0.0003804  -0.0004027   0.0000775   0.0000659
    3  -0.0010811   0.0001907   0.0002288  -0.0001783  -0.0002529   0.0001564
            7           8           9          10          11          12
    1   0.0000154  -0.0000510   0.0000680  -0.0000968  -0.0001545  -0.0000444
    2   0.0010017   0.0001903  -0.0000104  -0.0000899  -0.0001009   0.0000764
    3  -0.0003594   0.0000976   0.0002048   0.0001404  -0.0000546  -0.0001211
           13          14          15          16          17          18
    1  -0.0002185  -0.0001437   0.0001387   0.0001853  -0.0019053   0.0004411
    2  -0.0002640  -0.0002243  -0.0001163   0.0000532   0.0011239  -0.0000547
    3  -0.0000533   0.0002739   0.0002824  -0.0004973   0.0011697  -0.0001609
           19          20          21
    1   0.0000065   0.0000675   0.0000353
    2   0.0000863  -0.0000704   0.0001687
    3  -0.0000933   0.0000866   0.0000207
 Gradient of SCF Energy
            1           2           3           4           5           6
    1   0.0047217  -0.0087980   0.0057778   0.0059015   0.0027316  -0.0045224
    2  -0.0080871   0.0075381  -0.0006716   0.0038833  -0.0022384   0.0034300
    3  -0.0032828  -0.0046937  -0.0014804   0.0020832   0.0089882   0.0035703
            7           8           9          10          11          12
[...]
    3   0.0024959   0.0021718   0.0056712   0.0041149  -0.0024953  -0.0142904
           13          14          15          16          17          18
    1  -0.0080527   0.0054177   0.0012077  -0.0065616  -0.0005109   0.0013558
    2   0.0023596   0.0156070   0.0052524  -0.0112135  -0.0100044   0.0059680
    3  -0.0072402   0.0128040   0.0045465  -0.0126382   0.0044538  -0.0053580
           19          20          21
    1  -0.0012939  -0.0021884   0.0030088
    2   0.0020853   0.0008380  -0.0032035
    3   0.0017719   0.0008275  -0.0010440
 Max gradient component =       1.561E-02
 RMS gradient           =       6.006E-03
 Computing fast CPCM-SWIG gradient
 Updating gradient with PCM contributions...
 -- total gradient after adding PCM contribution --
---------------------------------------------------
  Atom         X              Y              Z     
---------------------------------------------------
   1      -0.000095       0.000035       0.000062
   2       0.000022      -0.000004      -0.000014
   3       0.000007      -0.000018      -0.000039
   4      -0.000080       0.000060      -0.000028
   5       0.000004       0.000027       0.000044
   6       0.000149      -0.000109      -0.000144
   7      -0.000019       0.000004       0.000022
   8      -0.000007      -0.000009      -0.000001
   9      -0.000029       0.000011      -0.000004
  10      -0.000012       0.000018      -0.000007
  11       0.000015       0.000010      -0.000004
  12       0.000010      -0.000000       0.000007
  13       0.000030      -0.000006       0.000001
  14       0.000032      -0.000024       0.000005
  15       0.000004      -0.000007      -0.000008
  16       0.000019      -0.000003       0.000012
  17       0.000023      -0.000035       0.000002
  18       0.000030      -0.000004      -0.000017
  19      -0.000035       0.000014      -0.000004
  20      -0.000087       0.000059       0.000076
  21       0.000020      -0.000019       0.000037
---------------------------------------------------
 Number of fixed atoms: 0
 Gradient time:  CPU 780.14 s  wall 61.51 s
 Geometry Optimization Parameters
   NAtoms,    NIC,     NZ,  NCons,   NDum,   NFix, NCnnct, MaxDiis
       21     182       0       0       0       0       0       0

 Cartesian Hessian Update
 Hessian updated using BFGS update


** GEOMETRY OPTIMIZATION IN DELOCALIZED INTERNAL COORDINATES **
   Searching for a Minimum

   Optimization Cycle:   8

                       Coordinates (Angstroms)
     ATOM                X               Y               Z
      1  C         0.0236043376   -0.2131652861    0.8025716002
      2  C        -0.8079937956   -0.9944727489    1.8119988750
      3  C        -1.5614650554   -2.1820327628    1.2452598923
      4  C        -2.0376520010   -2.0769881719   -0.1408602532
      5  C        -1.7186387183   -0.8531574725   -0.8710066965
      6  C        -1.1271927671    0.2693352622   -0.0894535026
      7  C        -0.7654342214    1.4946268605   -0.9125166498
      8  H         0.4454334215    0.6506726203    1.3218052905
      9  H        -0.2736415591   -1.2305359006    2.7294025047
     10  H        -2.1382098076   -2.7476544068    1.9672542828
     11  H        -2.9092696647   -2.6402610795   -0.4444501699
     12  H        -2.0685491144   -0.7013681340   -1.8823655345
     13  H        -1.6151778919    1.8229052855   -1.5121994620
     14  O         0.3616277228    1.2097156511   -1.7361380907
     15  H        -0.4736220415    2.2970926620   -0.2387377678
     16  H         0.0747583999    0.6566340872   -2.4715593949
     17  O         1.0290402955   -0.9433179048    0.1437850338
     18  H         1.3580161388   -0.3722081217   -0.5640118547
     19  O        -1.7721475847   -0.0016739797    2.1641128793
     20  O        -2.1037304273    0.6831301320    0.9073342406
     21  O        -0.9214681660   -2.9542541916    0.2399341777
   Point Group: c1    Number of degrees of freedom:    57


   Energy is   -648.103855938

 Hessian updated using BFGS update

 56 Hessian modes will be used to form the next step
  Hessian Eigenvalues:
     0.001936    0.006285    0.009650    0.011960    0.013373    0.018454
     0.020839    0.023511    0.025357    0.031307    0.036766    0.041779
     0.052340    0.053897    0.056534    0.060763    0.074032    0.078753
     0.082347    0.084598    0.091162    0.101365    0.104898    0.110279
     0.114348    0.116486    0.125340    0.139658    0.151427    0.157781
     0.163125    0.177560    0.179789    0.222061    0.227428    0.244981
     0.260822    0.272676    0.277643    0.296366    0.323324    0.326317
     0.330861    0.339264    0.342725    0.345547    0.346505    0.349668
     0.351592    0.375764    0.381016    0.384551    0.421471    0.483001
     0.504300    0.536185

 Minimum search - taking simple RFO step
 Searching for Lamda that Minimizes Along All modes
 Value Taken    Lamda =  -0.00000025
 Step Taken.  Stepsize is  0.004739

                             Maximum     Tolerance    Cnvgd?
         Gradient           0.000073      0.000300     YES
         Displacement       0.001631      0.001200      NO
         Energy change     -0.000001      0.000001     YES

 Final energy is   -648.103855938132     


 ******************************
 **  OPTIMIZATION CONVERGED  **
 ******************************

                       Coordinates (Angstroms)
     ATOM                X               Y               Z
      1  C         0.0236043376   -0.2131652861    0.8025716002
      2  C        -0.8079937956   -0.9944727489    1.8119988750
      3  C        -1.5614650554   -2.1820327628    1.2452598923
      4  C        -2.0376520010   -2.0769881719   -0.1408602532
      5  C        -1.7186387183   -0.8531574725   -0.8710066965
      6  C        -1.1271927671    0.2693352622   -0.0894535026
      7  C        -0.7654342214    1.4946268605   -0.9125166498
      8  H         0.4454334215    0.6506726203    1.3218052905
      9  H        -0.2736415591   -1.2305359006    2.7294025047
     10  H        -2.1382098076   -2.7476544068    1.9672542828
     11  H        -2.9092696647   -2.6402610795   -0.4444501699
     12  H        -2.0685491144   -0.7013681340   -1.8823655345
     13  H        -1.6151778919    1.8229052855   -1.5121994620
     14  O         0.3616277228    1.2097156511   -1.7361380907
     15  H        -0.4736220415    2.2970926620   -0.2387377678
     16  H         0.0747583999    0.6566340872   -2.4715593949
     17  O         1.0290402955   -0.9433179048    0.1437850338
     18  H         1.3580161388   -0.3722081217   -0.5640118547
     19  O        -1.7721475847   -0.0016739797    2.1641128793
     20  O        -2.1037304273    0.6831301320    0.9073342406
     21  O        -0.9214681660   -2.9542541916    0.2399341777

Z-matrix Print:
$molecule
0 2
O 
C  1 1.455485
O  1 1.469148 2 107.572039
C  3 1.428015 1 105.397526 2 -11.805678 0
H  4 1.087606 3 105.939870 1 158.195930 0
C  2 1.490176 1 107.881136 3 95.973790 0
H  6 1.080890 2 120.893035 1 106.066992 0
C  6 1.460358 2 117.112415 1 -62.538367 0
H  8 1.081277 6 118.181931 2 145.211804 0
C  8 1.469394 6 117.436164 2 -9.348254 0
H  10 1.083438 8 119.566650 6 148.702248 0
O  10 1.420071 8 61.125450 6 -106.890662 0
C  2 1.519751 1 107.541208 3 -139.808571 0
H  13 1.087697 2 108.856527 1 52.332838 0
H  13 1.090619 2 110.793814 1 -67.664532 0
O  13 1.424709 2 109.886687 1 169.285325 0
H  16 0.963866 13 108.686500 2 75.087082 0
C  4 1.523463 3 100.100686 1 39.800140 0
H  18 1.092593 4 107.538054 3 60.726122 0
O  18 1.406422 4 115.743629 3 -174.654638 0
H  20 0.967144 18 106.224851 4 170.129044 0
$end

 
 --------------------------------------------------------------
 
                    Orbital Energies (a.u.)
 --------------------------------------------------------------
 
 Alpha MOs
 -- Occupied --
-19.4079 -19.4055 -19.3609 -19.3482 -19.3452 -10.4161 -10.4118 -10.4097
-10.4054 -10.4049 -10.3941 -10.3690  -1.2751  -1.2153  -1.1744  -1.1617
 -1.0744  -0.9515  -0.8738  -0.8469  -0.8059  -0.7561  -0.7198  -0.6995
 -0.6683  -0.6411  -0.6150  -0.6071  -0.5981  -0.5862  -0.5686  -0.5512
 -0.5307  -0.5266  -0.5155  -0.4996  -0.4935  -0.4787  -0.4499  -0.4468
 -0.4265  -0.4170  -0.3932  -0.3804  -0.3668  -0.3153
 -- Virtual --
  0.0252   0.0347   0.0363   0.0453   0.0552   0.0563   0.0603   0.0769
  0.0833   0.0849   0.0887   0.0969   0.1164   0.1252   0.1255   0.1329
  0.1366   0.1408   0.1473   0.1515   0.1557   0.1601   0.1617   0.1659
  0.1721   0.1746   0.1796   0.1860   0.1917   0.1954   0.1975   0.2024
  0.2150   0.2199   0.2205   0.2299   0.2322   0.2408   0.2485   0.2533
  0.2695   0.2764   0.2798   0.2883   0.2972   0.3050   0.3058   0.3177
  0.3231   0.3264   0.3350   0.3388   0.3459   0.3477   0.3500   0.3541
  0.3585   0.3744   0.3780   0.3781   0.3820   0.3861   0.3924   0.3954
  0.3986   0.4079   0.4150   0.4200   0.4261   0.4355   0.4398   0.4479
  0.4596   0.4640   0.4706   0.4778   0.4870   0.5113   0.5265   0.5284
  0.5445   0.5647   0.5926   0.5992   0.6104   0.6173   0.6227   0.6324
  0.6495   0.6566   0.6637   0.6694   0.6723   0.6828   0.6874   0.6975
  0.7011   0.7129   0.7190   0.7307   0.7326   0.7382   0.7482   0.7551
  0.7575   0.7773   0.7884   0.7980   0.8219   0.8362   0.8522   0.8622
  0.8820   0.8923   0.9001   0.9246   0.9355   0.9602   0.9717   0.9889
  1.0193   1.0366   1.0507   1.0555   1.0682   1.0771   1.0901   1.1084
  1.1185   1.1225   1.1336   1.1469   1.1521   1.1662   1.1790   1.1872
  1.1925   1.1969   1.2139   1.2235   1.2305   1.2452   1.2504   1.2667
  1.2709   1.2824   1.2911   1.3017   1.3052   1.3174   1.3179   1.3262
  1.3357   1.3427   1.3548   1.3623   1.3702   1.3752   1.3816   1.3894
  1.4054   1.4119   1.4305   1.4404   1.4626   1.4704   1.4871   1.4917
  1.5002   1.5116   1.5277   1.5418   1.5451   1.5534   1.5594   1.5851
  1.5888   1.6102   1.6234   1.6355   1.6509   1.6556   1.6637   1.6858
  1.6994   1.7119   1.7407   1.7605   1.7767   1.7965   1.8132   1.8255
  1.8325   1.8649   1.8856   1.9069   1.9408   1.9813   2.0112   2.0225
  2.0327   2.0435   2.0755   2.0932   2.1134   2.1206   2.1443   2.1700
  2.1951   2.2164   2.2379   2.2673   2.2878   2.3105   2.3370   2.3601
  2.3856   2.4145   2.4208   2.4448   2.4815   2.5131   2.5657   2.6526
  2.6781   2.6955   2.7052   2.7308   2.7767   2.7903   2.7921   2.8080
  2.8286   2.8575   2.8717   2.8857   2.8966   2.9067   2.9249   2.9509
  2.9696   2.9981   3.0072   3.0235   3.0346   3.0551   3.0660   3.0870
  3.0983   3.1226   3.1323   3.1544   3.1891   3.1973   3.2117   3.2315
  3.2408   3.2622   3.2785   3.2959   3.3050   3.3368   3.3590   3.3736
  3.3914   3.4037   3.4179   3.4447   3.4588   3.4680   3.4895   3.5070
  3.5175   3.5298   3.5421   3.5620   3.5748   3.5943   3.6005   3.6198
  3.6291   3.6451   3.6577   3.6750   3.6825   3.7015   3.7124   3.7372
  3.7449   3.7527   3.7596   3.7829   3.8058   3.8128   3.8282   3.8383
  3.8539   3.8729   3.8973   3.9077   3.9165   3.9304   3.9333   3.9462
  3.9535   3.9683   3.9986   4.0056   4.0133   4.0453   4.0507   4.0723
  4.1062   4.1151   4.1472   4.1751   4.1931   4.2210   4.2416   4.2542
  4.2810   4.2821   4.2946   4.3102   4.3357   4.3518   4.3632   4.3724
  4.3793   4.3872   4.4064   4.4228   4.4310   4.4521   4.4779   4.4943
  4.5036   4.5188   4.5222   4.5543   4.5613   4.6029   4.6120   4.6447
  4.6477   4.6621   4.7147   4.7327   4.7394   4.7610   4.7702   4.8195
  4.8915   4.9451   4.9944   5.0819   5.0906   5.1716   5.2295   5.2364
  5.2732   5.2840   5.2980   5.3023   5.3102   5.3299   5.3453   5.3464
  5.3528   5.3699   5.3805   5.3975   5.4175   5.4359   5.4583   5.4680
  5.4945   5.5139   5.5358   5.5472   5.5601   5.5922   5.6059   5.6082
  5.6276   5.6318   5.6758   5.6941   5.7135   5.7468   5.7552   5.7676
  5.7887   5.7922   5.8145   5.8666   5.8855   5.9416   5.9664   5.9867
  6.0266   6.0349   6.0470   6.0725   6.0990   6.2486   6.4769   6.5779
  6.6248   6.6534   6.6768   6.7493   6.7808   7.0466   7.1131   7.1388
  7.1809   7.2776   7.3005   7.3081   7.3316   7.3505   7.3806   7.4066
  7.4271   7.4410   7.4659   7.4813   7.5099   7.5603   7.6355   7.6649
  7.7147   7.7513   7.7943   7.8384   7.8763   7.9130   7.9668   8.2636
 24.5027  24.7079  24.7407  24.7858  24.8309  24.9242  24.9528  50.5981
 50.6218  50.6550  50.6923  50.7202
 
 Beta MOs
 -- Occupied --
-19.4079 -19.4035 -19.3579 -19.3480 -19.3451 -10.4169 -10.4118 -10.4092
-10.4065 -10.4044 -10.3941 -10.3566  -1.2731  -1.2098  -1.1740  -1.1613
 -1.0716  -0.9448  -0.8594  -0.8454  -0.8038  -0.7507  -0.7166  -0.6956
 -0.6650  -0.6368  -0.6128  -0.6034  -0.5939  -0.5832  -0.5669  -0.5449
 -0.5273  -0.5217  -0.5078  -0.4965  -0.4901  -0.4761  -0.4460  -0.4440
 -0.4212  -0.4108  -0.3921  -0.3783  -0.3616
 -- Virtual --
 -0.0186   0.0252   0.0344   0.0364   0.0478   0.0550   0.0565   0.0608
  0.0779   0.0836   0.0848   0.0898   0.0984   0.1165   0.1253   0.1254
  0.1327   0.1374   0.1409   0.1472   0.1508   0.1560   0.1605   0.1614
  0.1663   0.1718   0.1753   0.1795   0.1864   0.1926   0.1953   0.1988
  0.2025   0.2145   0.2200   0.2210   0.2301   0.2323   0.2421   0.2516
  0.2555   0.2711   0.2773   0.2809   0.2900   0.2982   0.3045   0.3071
  0.3190   0.3238   0.3279   0.3355   0.3390   0.3474   0.3492   0.3509
  0.3554   0.3629   0.3749   0.3789   0.3792   0.3828   0.3864   0.3941
  0.3958   0.3999   0.4096   0.4156   0.4216   0.4271   0.4357   0.4400
  0.4502   0.4612   0.4657   0.4728   0.4803   0.4877   0.5137   0.5285
  0.5303   0.5453   0.5663   0.5952   0.6054   0.6125   0.6232   0.6251
  0.6346   0.6505   0.6574   0.6649   0.6702   0.6748   0.6855   0.6871
  0.6983   0.7043   0.7141   0.7213   0.7329   0.7380   0.7394   0.7502
  0.7565   0.7636   0.7820   0.7894   0.8034   0.8250   0.8387   0.8566
  0.8643   0.8842   0.8947   0.9048   0.9264   0.9369   0.9625   0.9741
  0.9904   1.0222   1.0373   1.0513   1.0566   1.0694   1.0784   1.0920
  1.1107   1.1196   1.1237   1.1352   1.1486   1.1545   1.1684   1.1799
  1.1883   1.1941   1.1991   1.2154   1.2260   1.2321   1.2466   1.2529
  1.2695   1.2730   1.2840   1.2932   1.3038   1.3074   1.3185   1.3208
  1.3274   1.3365   1.3444   1.3572   1.3644   1.3718   1.3764   1.3845
  1.3918   1.4074   1.4145   1.4314   1.4420   1.4648   1.4743   1.4884
  1.4959   1.5026   1.5131   1.5319   1.5445   1.5486   1.5566   1.5618
  1.5893   1.5915   1.6112   1.6271   1.6370   1.6547   1.6586   1.6682
  1.6895   1.7019   1.7167   1.7458   1.7625   1.7815   1.8025   1.8144
  1.8270   1.8385   1.8670   1.8885   1.9103   1.9444   1.9830   2.0145
  2.0273   2.0341   2.0453   2.0780   2.0955   2.1159   2.1234   2.1501
  2.1747   2.1967   2.2196   2.2398   2.2698   2.2900   2.3148   2.3380
  2.3614   2.3868   2.4158   2.4224   2.4471   2.4825   2.5157   2.5691
  2.6632   2.6832   2.7008   2.7071   2.7349   2.7829   2.7956   2.8031
  2.8135   2.8381   2.8631   2.8823   2.8943   2.9074   2.9146   2.9298
  2.9761   2.9943   3.0187   3.0307   3.0363   3.0484   3.0596   3.0747
  3.0944   3.1106   3.1280   3.1403   3.1610   3.1927   3.2021   3.2180
  3.2336   3.2489   3.2744   3.2876   3.3062   3.3147   3.3420   3.3698
  3.3851   3.3963   3.4164   3.4276   3.4535   3.4653   3.4838   3.4946
  3.5115   3.5242   3.5326   3.5625   3.5677   3.5801   3.5977   3.6137
  3.6263   3.6371   3.6555   3.6666   3.6846   3.6932   3.7083   3.7196
  3.7450   3.7505   3.7689   3.7725   3.7879   3.8113   3.8193   3.8360
  3.8430   3.8621   3.8788   3.9044   3.9130   3.9216   3.9344   3.9371
  3.9508   3.9622   3.9729   4.0039   4.0097   4.0203   4.0546   4.0611
  4.0790   4.1118   4.1291   4.1537   4.1815   4.1978   4.2244   4.2465
  4.2570   4.2854   4.2931   4.2995   4.3184   4.3413   4.3585   4.3698
  4.3758   4.3854   4.3952   4.4178   4.4269   4.4359   4.4666   4.4847
  4.4981   4.5099   4.5257   4.5323   4.5627   4.5740   4.6095   4.6162
  4.6527   4.6606   4.6655   4.7176   4.7365   4.7506   4.7666   4.7757
  4.8250   4.8951   4.9511   5.0046   5.0911   5.1034   5.1804   5.2363
  5.2433   5.2761   5.2881   5.3006   5.3049   5.3118   5.3349   5.3477
  5.3515   5.3568   5.3729   5.3823   5.4021   5.4206   5.4425   5.4640
  5.4702   5.4970   5.5172   5.5403   5.5504   5.5618   5.5959   5.6094
  5.6143   5.6340   5.6518   5.6774   5.6962   5.7169   5.7492   5.7578
  5.7712   5.7901   5.8150   5.8186   5.8694   5.8910   5.9487   5.9698
  5.9960   6.0296   6.0393   6.0488   6.0753   6.1000   6.2501   6.4849
  6.5813   6.6269   6.6553   6.6780   6.7510   6.7819   7.0491   7.1139
  7.1399   7.1885   7.2843   7.3020   7.3112   7.3325   7.3515   7.3816
  7.4096   7.4277   7.4435   7.4677   7.4855   7.5146   7.5618   7.6379
  7.6661   7.7159   7.7599   7.7949   7.8450   7.8789   7.9158   7.9701
  8.2651  24.5080  24.7099  24.7409  24.7861  24.8311  24.9249  24.9573
 50.5985  50.6221  50.6558  50.6935  50.7217
 --------------------------------------------------------------
 
          Ground-State Mulliken Net Atomic Charges

     Atom                 Charge (a.u.)    Spin (a.u.)
  --------------------------------------------------------
      1 C                    -0.182080       0.045712
      2 C                    -0.024823      -0.022827
      3 C                    -0.416571       0.066478
      4 C                    -0.094637      -0.041570
      5 C                    -0.457457       0.923357
      6 C                     0.194196      -0.103900
      7 C                    -0.328579       0.012027
      8 H                     0.331241      -0.001167
      9 H                     0.270546       0.000757
     10 H                     0.274248       0.002062
     11 H                     0.257773       0.008782
     12 H                     0.330480      -0.016689
     13 H                     0.249597      -0.000054
     14 O                    -0.378042       0.003361
     15 H                     0.237351      -0.001044
     16 H                     0.326484       0.000784
     17 O                    -0.416933       0.004952
     18 H                     0.338184       0.003103
     19 O                    -0.109153       0.003430
     20 O                    -0.120798       0.037354
     21 O                    -0.281025       0.075091
  --------------------------------------------------------
  Sum of atomic charges =     0.000000
  Sum of spin   charges =     1.000000

 -----------------------------------------------------------------
                    Cartesian Multipole Moments
 -----------------------------------------------------------------
    Charge (ESU x 10^10)
                 0.0000
    Dipole Moment (Debye)
         X      -1.3988      Y       1.2725      Z      -2.5771
       Tot       3.1965
    Quadrupole Moments (Debye-Ang)
        XX     -71.7412     XY       7.1956     YY     -78.5903
        XZ       8.4148     YZ      -3.8927     ZZ     -60.9750
    Octopole Moments (Debye-Ang^2)
       XXX     198.8610    XXY      15.5348    XYY      48.1514
       YYY     140.6344    XXZ     -38.8902    XYZ      13.2402
       YYZ      -6.7776    XZZ      64.5581    YZZ      16.6497
       ZZZ     -68.8767
    Hexadecapole Moments (Debye-Ang^3)
      XXXX    -867.1110   XXXY    -102.8720   XXYY    -263.2177
      XYYY    -147.0249   YYYY   -1086.2702   XXXZ     152.1192
      XXYZ      36.9893   XYYZ      36.1747   YYYZ     124.7552
      XXZZ    -261.8272   XYZZ     -40.8021   YYZZ    -254.6886
      XZZZ     147.5315   YZZZ     101.1209   ZZZZ    -598.7664
 -----------------------------------------------------------------
 Total job time:  2935.65s(wall), 41618.85s(cpu) 
 Tue Jun 25 22:30:56 2024

        *************************************************************
        *                                                           *
        *  Thank you very much for using Q-Chem.  Have a nice day.  *
        *                                                           *
        *************************************************************


