
Running Job 1 of 1 Q_in.in
qchem Q_in.in_24690.0 /scratch/ari.fischer/qChem2192752.hpc-mn1/qchem24690/ 0
/usr/local/qchem-5.4.1/exe/qcprog.exe_s Q_in.in_24690.0 /scratch/ari.fischer/qChem2192752.hpc-mn1/qchem24690/
                  Welcome to Q-Chem
     A Quantum Leap Into The Future Of Chemistry


 Q-Chem 5.4, Q-Chem, Inc., Pleasanton, CA (2021)

 License issued to: Nanyang Technological University (site)

 E. Epifanovsky,  A. T. B. Gilbert,  Xintian Feng,  Joonho Lee,  Yuezhi Mao,  
 N. Mardirossian,  P. Pokhilko,  A. White,  M. Wormit,  M. P. Coons,  
 A. L. Dempwolff,  Zhengting Gan,  D. Hait,  P. R. Horn,  L. D. Jacobson,  
 I. Kaliman,  J. Kussmann,  A. W. Lange,  Ka Un Lao,  D. S. Levine,  Jie Liu,  
 S. C. McKenzie,  A. F. Morrison,  K. Nanda,  F. Plasser,  D. R. Rehn,  
 M. L. Vidal,  Zhi-Qiang You,  Ying Zhu,  B. Alam,  B. Albrecht,  
 A. Aldossary,  E. Alguire,  J. H. Andersen,  D. Barton,  K. Begam,  A. Behn,  
 Y. A. Bernard,  E. J. Berquist,  H. Burton,  A. Carreras,  K. Carter-Fenk,  
 R. Chakraborty,  A. D. Chien,  K. D. Closser,  V. Cofer-Shabica,  
 S. Dasgupta,  Jia Deng,  M. de Wergifosse,  M. Diedenhofen,  Hainam Do,  
 S. Ehlert,  Po-Tung Fang,  S. Fatehi,  Qingguo Feng,  T. Friedhoff,  
 J. Gayvert,  Qinghui Ge,  G. Gidofalvi,  M. Goldey,  J. Gomes,  
 C. Gonzalez-Espinoza,  S. Gulania,  A. Gunina,  M. W. D. Hanson-Heine,  
 P. H. P. Harbach,  A. W. Hauser,  M. F. Herbst,  M. Hernandez Vera,  
 M. Hodecker,  Z. C. Holden,  S. Houck,  Xunkun Huang,  Kerwin Hui,  
 B. C. Huynh,  M. Ivanov,  Hyunjun Ji,  Hanjie Jiang,  B. Kaduk,  S. Kaehler,  
 K. Khistyaev,  Jaehoon Kim,  P. Klunzinger,  Z. Koczor-Benda,  
 Joong Hoon Koh,  D. Kosenkov,  L. Koulias,  T. Kowalczyk,  C. M. Krauter,  
 K. Kue,  A. Kunitsa,  T. Kus,  A. Landau,  K. V. Lawler,  D. Lefrancois,  
 S. Lehtola,  Rain Li,  Yi-Pei Li,  Jiashu Liang,  M. Liebenthal,  
 Hung-Hsuan Lin,  You-Sheng Lin,  Fenglai Liu,  Kuan-Yu Liu,  
 M. Loipersberger,  A. Luenser,  A. Manjanath,  P. Manohar,  E. Mansoor,  
 S. F. Manzer,  Shan-Ping Mao,  A. V. Marenich,  T. Markovich,  S. Mason,  
 S. A. Maurer,  P. F. McLaughlin,  M. F. S. J. Menger,  J.-M. Mewes,  
 S. A. Mewes,  P. Morgante,  J. W. Mullinax,  K. J. Oosterbaan,  G. Paran,  
 Alexander C. Paul,  Suranjan K. Paul,  F. Pavosevic,  Zheng Pei,  S. Prager,  
 E. I. Proynov,  E. Ramos,  B. Rana,  A. E. Rask,  A. Rettig,  R. M. Richard,  
 F. Rob,  E. Rossomme,  T. Scheele,  M. Scheurer,  M. Schneider,  
 N. Sergueev,  S. M. Sharada,  W. Skomorowski,  D. W. Small,  C. J. Stein,  
 Yu-Chuan Su,  E. J. Sundstrom,  Zhen Tao,  J. Thirman,  T. Tsuchimochi,  
 N. M. Tubman,  S. P. Veccham,  O. Vydrov,  J. Wenzel,  J. Witte,  A. Yamada,  
 Kun Yao,  S. Yeganeh,  S. R. Yost,  A. Zech,  Igor Ying Zhang,  Xing Zhang,  
 Yu Zhang,  D. Zuev,  A. Aspuru-Guzik,  A. T. Bell,  N. A. Besley,  
 K. B. Bravaya,  B. R. Brooks,  D. Casanova,  Jeng-Da Chai,  S. Coriani,  
 C. J. Cramer,  A. E. DePrince, III,  R. A. DiStasio Jr.,  A. Dreuw,  
 B. D. Dunietz,  T. R. Furlani,  W. A. Goddard III,  S. Grimme,  
 S. Hammes-Schiffer,  T. Head-Gordon,  W. J. Hehre,  Chao-Ping Hsu,  
 T.-C. Jagau,  Yousung Jung,  A. Klamt,  Jing Kong,  D. S. Lambrecht,  
 WanZhen Liang,  N. J. Mayhall,  C. W. McCurdy,  J. B. Neaton,  
 C. Ochsenfeld,  J. A. Parkhill,  R. Peverati,  V. A. Rassolov,  Yihan Shao,  
 L. V. Slipchenko,  T. Stauch,  R. P. Steele,  J. E. Subotnik,  
 A. J. W. Thom,  A. Tkatchenko,  D. G. Truhlar,  T. Van Voorhis,  
 T. A. Wesolowski,  K. B. Whaley,  H. L. Woodcock III,  P. M. Zimmerman,  
 S. Faraji,  P. M. W. Gill,  M. Head-Gordon,  J. M. Herbert,  A. I. Krylov

 Additional authors for Version 5.4.1: 
 S. Kotaru,  Shaozhi Li,  Xiangyuan Li,  F. Matz,  A. Molle,  Haisheng Ren,  
 Yingli Su,  Hung-Yi Tsai,  C. Utku,  Fang Wang

 Contributors to earlier versions of Q-Chem not listed above: 
 R. D. Adamson,  B. Austin,  R. Baer,  J. Baker,  G. J. O. Beran,  
 K. Brandhorst,  S. T. Brown,  E. F. C. Byrd,  A. K. Chakraborty,  
 G. K. L. Chan,  Chun-Min Chang,  Yunqing Chen,  C.-L. Cheng,  
 Siu Hung Chien,  D. M. Chipman,  D. L. Crittenden,  H. Dachsel,  
 R. J. Doerksen,  A. D. Dutoi,  R. G. Edgar,  J. Fosso-Tande,  
 L. Fusti-Molnar,  D. Ghosh,  A. Ghysels,  A. Golubeva-Zadorozhnaya,  
 J. Gonthier,  M. S. Gordon,  S. R. Gwaltney,  G. Hawkins,  J. E. Herr,  
 A. Heyden,  S. Hirata,  E. G. Hohenstein,  G. Kedziora,  F. J. Keil,  
 C. Kelley,  Jihan Kim,  R. A. King,  R. Z. Khaliullin,  P. P. Korambath,  
 W. Kurlancheek,  A. Laurent,  A. M. Lee,  M. S. Lee,  S. V. Levchenko,  
 Ching Yeh Lin,  D. Liotard,  E. Livshits,  R. C. Lochan,  I. Lotan,  
 L. A. Martinez-Martinez,  P. E. Maslen,  N. Nair,  D. P. O'Neill,  
 D. Neuhauser,  E. Neuscamman,  C. M. Oana,  R. Olivares-Amaya,  R. Olson,  
 T. M. Perrine,  B. Peters,  P. A. Pieniazek,  A. Prociuk,  Y. M. Rhee,  
 J. Ritchie,  M. A. Rohrdanz,  E. Rosta,  N. J. Russ,  H. F. Schaefer III,  
 M. W. Schmidt,  N. E. Schultz,  S. Sharma,  N. Shenvi,  C. D. Sherrill,  
 A. C. Simmonett,  A. Sodt,  T. Stein,  D. Stuck,  K. S. Thanthiriwatte,  
 V. Vanovschi,  L. Vogt,  Tao Wang,  A. Warshel,  M. A. Watson,  
 C. F. Williams,  Q. Wu,  X. Xu,  Jun Yang,  W. Zhang,  Yan Zhao

 Please cite Q-Chem as follows:
 Y. Shao et al., Mol. Phys. 113, 184-215 (2015)
 DOI: 10.1080/00268976.2014.952696

 Q-Chem 5.4.1 for Intel X86 EM64T Linux

 Parts of Q-Chem use Armadillo 9.800.1 (Horizon Scraper).
 http://arma.sourceforge.net/

 Q-Chem begins on Thu Jun 27 13:56:08 2024  

 Host: 
0

     Scratch files written to /scratch/ari.fischer/qChem2192752.hpc-mn1/qchem24690//
 Aug1521 |scratch|qcdevops|jenkins|workspace|build_RNUM 8249   
 Processing $rem in /usr/local/qchem-5.4.1/config/preferences:
 Processing $rem in /home/ari.fischer/.qchemrc:
 Symmetry turned off for PCM/SM12/SMD calculation


!!********************************************.
!!******************Warning*******************.
!!Desired Analytical derivatives not available.
!!Finite difference job might take a long time.
!!********************************************.
!!********************************************.


 2-order derivative to be evaluated numerically with 1-order analytical derivatives

 Checking the input file for inconsistencies... 	...done.

--------------------------------------------------------------
User input:
--------------------------------------------------------------
$molecule
0 2
C         2.5538333358   -0.2642609420   -0.3671721806
O         1.6316300896    0.6216314436   -0.9233350552
C         3.0620789606    0.3811369657    0.9301258927
O         2.0762214555    0.4240509636    1.8936722693
C         3.6915815799    1.7519652094    0.8151355061
C         4.9033557376    1.8321052106   -0.0972425296
O         4.4005058080    1.8709237346   -1.4350548529
O         5.3755052713    1.3223005795   -2.3212959808
C         5.7258565586    3.0839960614    0.2036783852
O         6.3447309196    2.8518093783    1.4480592892
O         6.6716698318    3.3618852110   -0.8001995030
H         5.0781214402    0.4028368192   -2.3995466351
H         1.4350601087    0.3260166158   -1.8201718901
H         3.9815104090    2.0560003960    1.8195674726
H         2.9281414977    2.4486776249    0.4700119624
H         5.5476244089    0.9568421861    0.0076924012
H         5.0826240446    3.9640240330    0.2483720267
H         6.6728763945    3.6929940439    1.7854577665
H         7.1852975661    2.5615944215   -0.9692863117
O         1.8785201587   -1.4649569288   -0.0472657441
O         4.1101257744   -0.5981607039    1.3495888858
O         4.5958472048   -0.3197465250    2.5224155925
H         1.5436637778   -0.3825065557    1.8120657603
H         3.3856621556   -0.4717088820   -1.0413570840
H         2.5110289106   -2.1931114608   -0.0570490435
$end

$rem
BASIS = 6-311++G(2df,2p)
GUI = 2
JOB_TYPE = Frequency
METHOD = wB97M-V
SOLVENT_METHOD = SMD
SCF_ALGORITHM = DIIS_GDM
MAX_SCF_CYCLES = 400
SCF_CONVERGENCE = 7
THRESH = 12
$end
--------------------------------------------------------------
 ----------------------------------------------------------------
             Standard Nuclear Orientation (Angstroms)
    I     Atom           X                Y                Z
 ----------------------------------------------------------------
    1      C       2.5538333358    -0.2642609420    -0.3671721806
    2      O       1.6316300896     0.6216314436    -0.9233350552
    3      C       3.0620789606     0.3811369657     0.9301258927
    4      O       2.0762214555     0.4240509636     1.8936722693
    5      C       3.6915815799     1.7519652094     0.8151355061
    6      C       4.9033557376     1.8321052106    -0.0972425296
    7      O       4.4005058080     1.8709237346    -1.4350548529
    8      O       5.3755052713     1.3223005795    -2.3212959808
    9      C       5.7258565586     3.0839960614     0.2036783852
   10      O       6.3447309196     2.8518093783     1.4480592892
   11      O       6.6716698318     3.3618852110    -0.8001995030
   12      H       5.0781214402     0.4028368192    -2.3995466351
   13      H       1.4350601087     0.3260166158    -1.8201718901
   14      H       3.9815104090     2.0560003960     1.8195674726
   15      H       2.9281414977     2.4486776249     0.4700119624
   16      H       5.5476244089     0.9568421861     0.0076924012
   17      H       5.0826240446     3.9640240330     0.2483720267
   18      H       6.6728763945     3.6929940439     1.7854577665
   19      H       7.1852975661     2.5615944215    -0.9692863117
   20      O       1.8785201587    -1.4649569288    -0.0472657441
   21      O       4.1101257744    -0.5981607039     1.3495888858
   22      O       4.5958472048    -0.3197465250     2.5224155925
   23      H       1.5436637778    -0.3825065557     1.8120657603
   24      H       3.3856621556    -0.4717088820    -1.0413570840
   25      H       2.5110289106    -2.1931114608    -0.0570490435
 ----------------------------------------------------------------
 Nuclear Repulsion Energy =        1081.75582497 hartrees
 There are       57 alpha and       56 beta electrons
 Requested basis set is 6-311++G(2df,2p)
 There are 178 shells and 586 basis functions

 Total QAlloc Memory Limit 288000 MB
 Mega-Array Size       188 MB
 MEM_STATIC part       192 MB
 
 Citation of the SMD model:
 Marenich, A.V.; Cramer, C.J.; Truhlar, D.G.
 J. Phys. Chem. B 2009, 113, 6378-6396.
 iSolventCode=           1
 Solvent: water                                                           
 
 vradii
            1           2           3           4           5           6
    1   1.8500000   1.5200000   1.8500000   1.5200000   1.8500000   1.8500000
            7           8           9          10          11          12
    1   1.5200000   1.5200000   1.8500000   1.5200000   1.5200000   1.2000000
           13          14          15          16          17          18
    1   1.2000000   1.2000000   1.2000000   1.2000000   1.2000000   1.2000000
           19          20          21          22          23          24
    1   1.2000000   1.5200000   1.5200000   1.5200000   1.2000000   1.2000000
           25
    1   1.2000000
 Changing PCM_VDW_RADII to SMD_RADIUS
 Discretize the solute cavity surface with Lebedev spheres
	Using 110 Lebedev grid points for each H atom
	Using 194 Lebedev grid points for other atoms
	Atomic van der Waals radii will be scaled by 1.20
 Remove points where switching function is < 1.0e-08
 Keep 1957 surface tesserae and discard 1969 interior tesserae
 Molecular Surface Area = 212.150 Angst**2
 A cutoff of  1.0D-12 yielded  13151 shell pairs
 There are    139279 function pairs (    172153 Cartesian)
 Smallest overlap matrix eigenvalue = 3.99E-06
 Guess from superposition of atomic densities
 Warning:  Energy on first SCF cycle will be non-variational
 SAD guess density has 113.000000 electrons

 -----------------------------------------------------------------------
  General SCF calculation program by
  Eric Jon Sundstrom, Paul Horn, Yuezhi Mao, Dmitri Zuev, Alec White,
  David Stuck, Shaama M.S., Shane Yost, Joonho Lee, David Small,
  Daniel Levine, Susi Lehtola, Hugh Burton, Evgeny Epifanovsky,
  Bang C. Huynh
 -----------------------------------------------------------------------
 Exchange:     0.1500 Hartree-Fock + 1.0000 wB97M-V + LR-HF
 Correlation:  1.0000 wB97M-V
 Using SG-2 standard quadrature grid
 Nonlocal Correlation:  VV10 with C = 0.0100 and b = 6.00 and scale = 1.00000
 Grid used for NLC:  SG-1 standard quadrature
 using 16 threads for integral computing
 -------------------------------------------------------
 OpenMP Integral computing Module                
 Release: version 1.0, May 2013, Q-Chem Inc. Pittsburgh 
 -------------------------------------------------------
 
 Citation of the SMD model:
 Marenich, A.V.; Cramer, C.J.; Truhlar, D.G.
 J. Phys. Chem. B 2009, 113, 6378-6396.
 iSolventCode=           1
 Solvent: water                                                           
 
 vradii
            1           2           3           4           5           6
    1   1.8500000   1.5200000   1.8500000   1.5200000   1.8500000   1.8500000
            7           8           9          10          11          12
    1   1.5200000   1.5200000   1.8500000   1.5200000   1.5200000   1.2000000
           13          14          15          16          17          18
    1   1.2000000   1.2000000   1.2000000   1.2000000   1.2000000   1.2000000
           19          20          21          22          23          24
    1   1.2000000   1.5200000   1.5200000   1.5200000   1.2000000   1.2000000
           25
    1   1.2000000
 -------------------------------------------------------
 OpenMP BLAS3 based DFT computing Module                
 Release: version 1.0, May 2013, Q-Chem Inc. Pittsburgh 
 -------------------------------------------------------
 A unrestricted SCF calculation will be
 performed using DIIS, GDM
 SCF converges when RMS gradient is below 1.0e-07
 ---------------------------------------
  Cycle       Energy         DIIS error
 ---------------------------------------
    1    -876.8008373775      1.02e-02  
    2    -873.7868354199      1.37e-03  Done DIIS. Switching to GDM
 ---------------------------------------
  Cycle       Energy        RMS Gradient
 ---------------------------------------
    1    -873.7868354199      8.84e-02   Descent step
    2    -873.9902720276      2.07e-02   Normal BFGS step
    3    -874.0345014998      3.42e-02   Normal BFGS step
    4    -874.0369243541      1.76e-02   Normal BFGS step
    5    -874.0399672419      4.46e-03   Normal BFGS step
    6    -874.0401269766      3.50e-03   Normal BFGS step
    7    -874.0402011651      1.86e-03   Normal BFGS step
    8    -874.0402245825      4.56e-04   Normal BFGS step
    9    -874.0402275319      2.84e-04   Normal BFGS step
   10    -874.0402289799      2.22e-04   Normal BFGS step
   11    -874.0402291497      2.06e-04   Normal BFGS step
   12    -874.0402292690      1.78e-04   Normal BFGS step
   13    -874.0402293804      1.26e-04   Normal BFGS step
   14    -874.0402294687      4.74e-05   Normal BFGS step
   15    -874.0402294945      1.50e-05   Normal BFGS step
   16    -874.0402295002      5.08e-06   Normal BFGS step
   17    -874.0402295014      2.62e-06   Normal BFGS step
   18    -874.0402295015      1.16e-06   Normal BFGS step
   19    -874.0402295016      5.36e-07   Normal BFGS step
   20    -874.0402295015      2.53e-07   Normal BFGS step
   21    -874.0402295015      7.69e-08  Convergence criterion met
 ---------------------------------------
 SCF time:   CPU 6470.71s  wall 453.00s 
<S^2> =          0.753881535
(3)  G-ENP(liq) elect-nuc-pol free energy of system     -874.040229502 a.u.
(4)  G-CDS(liq) cavity-dispersion-solvent structure 
     free energy                                                4.1900 kcal/mol
(6)  G-S(liq) free energy of system                     -874.033552243 a.u.
 SCF   energy in the final basis set =     -874.0335522434
 Total energy in the final basis set =     -874.0335522434
 
 --------------------------------------------------------------
 
                    Orbital Energies (a.u.)
 --------------------------------------------------------------
 
 Alpha MOs
 -- Occupied --
-19.4614 -19.4215 -19.4031 -19.3956 -19.3635 -19.3545 -19.3534 -19.3463
-19.3445 -10.4721 -10.4589 -10.4456 -10.4055 -10.3538  -1.3490  -1.2708
 -1.2223  -1.2016  -1.1875  -1.1450  -1.1351  -1.0552  -1.0134  -0.9128
 -0.8513  -0.8100  -0.7538  -0.7195  -0.6890  -0.6795  -0.6657  -0.6595
 -0.6500  -0.6387  -0.6226  -0.6098  -0.5910  -0.5858  -0.5684  -0.5505
 -0.5401  -0.5321  -0.5286  -0.5032  -0.4845  -0.4721  -0.4703  -0.4591
 -0.4548  -0.4342  -0.4303  -0.4177  -0.4117  -0.4044  -0.3994  -0.3948
 -0.3846
 -- Virtual --
  0.0250   0.0332   0.0365   0.0430   0.0555   0.0587   0.0629   0.0671
  0.0817   0.0851   0.0943   0.1023   0.1160   0.1221   0.1252   0.1335
  0.1362   0.1423   0.1453   0.1516   0.1547   0.1567   0.1611   0.1632
  0.1729   0.1733   0.1758   0.1806   0.1987   0.2024   0.2082   0.2105
  0.2153   0.2262   0.2288   0.2457   0.2509   0.2557   0.2592   0.2616
  0.2678   0.2712   0.2766   0.2859   0.2892   0.2973   0.3007   0.3026
  0.3089   0.3132   0.3147   0.3237   0.3270   0.3312   0.3360   0.3374
  0.3453   0.3487   0.3541   0.3555   0.3643   0.3668   0.3700   0.3748
  0.3784   0.3821   0.3869   0.3928   0.3977   0.4038   0.4059   0.4114
  0.4185   0.4235   0.4279   0.4301   0.4328   0.4410   0.4530   0.4574
  0.4613   0.4651   0.4701   0.4732   0.4844   0.4903   0.5080   0.5158
  0.5251   0.5366   0.5474   0.5897   0.5964   0.6058   0.6218   0.6245
  0.6312   0.6368   0.6427   0.6493   0.6662   0.6703   0.6780   0.6896
  0.6976   0.7073   0.7148   0.7214   0.7304   0.7408   0.7479   0.7629
  0.7672   0.7772   0.7857   0.7915   0.8026   0.8144   0.8485   0.8563
  0.8774   0.8867   0.8881   0.8921   0.9187   0.9302   0.9544   0.9562
  0.9715   0.9810   0.9962   1.0088   1.0305   1.0412   1.0536   1.0642
  1.0713   1.0816   1.0937   1.1014   1.1148   1.1201   1.1311   1.1376
  1.1501   1.1517   1.1625   1.1683   1.1714   1.1782   1.1938   1.1970
  1.2035   1.2075   1.2138   1.2279   1.2325   1.2376   1.2512   1.2528
  1.2604   1.2623   1.2658   1.2796   1.2812   1.2924   1.3006   1.3113
  1.3164   1.3352   1.3440   1.3622   1.3648   1.3753   1.3866   1.4030
  1.4155   1.4300   1.4333   1.4425   1.4469   1.4642   1.4810   1.4899
  1.4987   1.5085   1.5125   1.5221   1.5270   1.5361   1.5425   1.5517
  1.5606   1.5649   1.5779   1.5926   1.6044   1.6213   1.6332   1.6438
  1.6598   1.6616   1.6674   1.6839   1.7058   1.7167   1.7268   1.7413
  1.7539   1.7561   1.7767   1.7950   1.8104   1.8213   1.8288   1.8418
  1.8583   1.8611   1.8863   1.9004   1.9260   1.9410   1.9587   1.9744
  1.9844   1.9947   2.0108   2.0228   2.0480   2.0722   2.1101   2.1382
  2.1500   2.1800   2.2051   2.2229   2.2414   2.2587   2.2673   2.2926
  2.3127   2.3290   2.3306   2.3575   2.3667   2.3797   2.4059   2.4191
  2.4265   2.4399   2.4468   2.4627   2.4679   2.4852   2.5054   2.5362
  2.5528   2.5812   2.6079   2.6858   2.7106   2.7464   2.7573   2.7718
  2.7959   2.8131   2.8321   2.8596   2.8682   2.8818   2.8967   2.9329
  2.9618   2.9770   3.0030   3.0470   3.0622   3.0874   3.1180   3.1491
  3.1515   3.1754   3.1977   3.2053   3.2270   3.2378   3.2610   3.2890
  3.3379   3.3561   3.3723   3.3784   3.3960   3.4311   3.4399   3.4745
  3.4781   3.4964   3.5248   3.5298   3.5456   3.5746   3.5861   3.6217
  3.6325   3.6424   3.6505   3.6757   3.6802   3.6983   3.7225   3.7348
  3.7467   3.7545   3.7745   3.7875   3.8004   3.8109   3.8211   3.8461
  3.8553   3.8639   3.8711   3.8857   3.8944   3.8983   3.9122   3.9345
  3.9432   3.9547   3.9722   3.9762   3.9848   4.0038   4.0239   4.0458
  4.0603   4.1022   4.1048   4.1247   4.1347   4.1758   4.1972   4.2075
  4.2142   4.2325   4.2495   4.2609   4.2734   4.2862   4.3081   4.3217
  4.3387   4.3625   4.3631   4.3847   4.4002   4.4246   4.4419   4.4672
  4.4801   4.4979   4.5391   4.5441   4.5763   4.5882   4.5949   4.6314
  4.6486   4.6697   4.6909   4.7016   4.7528   4.7738   4.8079   4.8165
  4.8566   4.8869   4.9216   4.9890   4.9972   5.0200   5.0534   5.0763
  5.0959   5.1049   5.1290   5.1813   5.1971   5.2093   5.2186   5.2453
  5.2470   5.2555   5.2687   5.2813   5.2836   5.2875   5.3009   5.3070
  5.3144   5.3295   5.3357   5.3406   5.3470   5.3625   5.3652   5.3808
  5.3885   5.4119   5.4286   5.4336   5.4493   5.4697   5.4781   5.4984
  5.5041   5.5186   5.5271   5.5404   5.5566   5.5698   5.5806   5.5987
  5.6159   5.6204   5.6282   5.6343   5.6381   5.6552   5.6745   5.6782
  5.6854   5.7131   5.7412   5.7643   5.7773   5.7891   5.8208   5.8270
  5.8814   5.9047   5.9462   5.9904   6.0127   6.0291   6.0814   6.0947
  6.1246   6.1284   6.1464   6.1627   6.2592   6.3572   6.4815   6.5414
  6.5755   6.6135   6.6514   6.7615   6.7745   6.8049   6.8698   6.8869
  6.8991   6.9813   7.0207   7.0533   7.0584   7.0775   7.0954   7.1181
  7.1473   7.1506   7.1753   7.1865   7.2465   7.2634   7.2691   7.2721
  7.2891   7.2921   7.3159   7.3236   7.3360   7.3461   7.3534   7.3810
  7.3886   7.4029   7.4100   7.4279   7.4489   7.4632   7.4862   7.5398
  7.5437   7.5640   7.6307   7.6629   7.7006   7.7177   7.7467   7.7609
  7.7866   7.8105   7.8411   7.8592   7.9074   7.9188   7.9565   7.9924
  8.1187   8.1557   8.1985  24.6611  24.7101  24.8038  24.8422  24.8709
 50.4446  50.5158  50.5728  50.5972  50.6137  50.6344  50.6389  50.6627
 50.7084
 
 Beta MOs
 -- Occupied --
-19.4513 -19.4031 -19.4025 -19.3956 -19.3634 -19.3545 -19.3534 -19.3463
-19.3445 -10.4724 -10.4589 -10.4456 -10.4055 -10.3536  -1.3234  -1.2708
 -1.2212  -1.2016  -1.1864  -1.1449  -1.1351  -1.0550  -0.9849  -0.9068
 -0.8466  -0.8093  -0.7528  -0.7144  -0.6860  -0.6766  -0.6637  -0.6566
 -0.6418  -0.6338  -0.6181  -0.5856  -0.5777  -0.5754  -0.5635  -0.5493
 -0.5351  -0.5283  -0.5147  -0.4944  -0.4827  -0.4715  -0.4683  -0.4575
 -0.4525  -0.4340  -0.4288  -0.4172  -0.4101  -0.3998  -0.3854  -0.3805
 -- Virtual --
 -0.0330   0.0251   0.0332   0.0366   0.0431   0.0556   0.0590   0.0631
  0.0676   0.0818   0.0854   0.0945   0.1025   0.1165   0.1228   0.1260
  0.1338   0.1366   0.1433   0.1460   0.1520   0.1550   0.1572   0.1619
  0.1635   0.1737   0.1750   0.1762   0.1824   0.1994   0.2039   0.2091
  0.2110   0.2174   0.2267   0.2291   0.2471   0.2526   0.2564   0.2595
  0.2657   0.2697   0.2718   0.2772   0.2869   0.2902   0.2983   0.3009
  0.3029   0.3091   0.3150   0.3162   0.3239   0.3276   0.3323   0.3364
  0.3389   0.3462   0.3507   0.3552   0.3562   0.3645   0.3674   0.3711
  0.3754   0.3790   0.3824   0.3871   0.3932   0.3982   0.4047   0.4076
  0.4124   0.4189   0.4252   0.4287   0.4304   0.4334   0.4412   0.4533
  0.4583   0.4621   0.4653   0.4706   0.4740   0.4848   0.4913   0.5083
  0.5164   0.5255   0.5372   0.5482   0.5900   0.5966   0.6067   0.6219
  0.6249   0.6314   0.6370   0.6431   0.6495   0.6664   0.6704   0.6782
  0.6897   0.6979   0.7075   0.7150   0.7216   0.7309   0.7416   0.7483
  0.7632   0.7676   0.7774   0.7861   0.7921   0.8031   0.8144   0.8489
  0.8574   0.8779   0.8880   0.8895   0.8924   0.9190   0.9307   0.9546
  0.9576   0.9720   0.9815   0.9966   1.0093   1.0316   1.0434   1.0545
  1.0650   1.0720   1.0839   1.0943   1.1018   1.1153   1.1218   1.1360
  1.1383   1.1508   1.1532   1.1632   1.1708   1.1749   1.1794   1.1954
  1.2025   1.2055   1.2091   1.2152   1.2299   1.2348   1.2388   1.2532
  1.2560   1.2631   1.2668   1.2759   1.2807   1.2893   1.2934   1.3023
  1.3143   1.3175   1.3388   1.3479   1.3634   1.3653   1.3765   1.3873
  1.4041   1.4168   1.4311   1.4352   1.4446   1.4480   1.4657   1.4818
  1.4916   1.4992   1.5102   1.5157   1.5239   1.5379   1.5381   1.5432
  1.5530   1.5613   1.5658   1.5790   1.5938   1.6063   1.6228   1.6381
  1.6447   1.6603   1.6642   1.6739   1.6857   1.7081   1.7229   1.7312
  1.7430   1.7548   1.7731   1.7808   1.8025   1.8137   1.8242   1.8319
  1.8436   1.8597   1.8686   1.8893   1.9011   1.9285   1.9420   1.9599
  1.9752   1.9852   1.9957   2.0121   2.0257   2.0502   2.0739   2.1107
  2.1404   2.1530   2.1835   2.2065   2.2249   2.2438   2.2641   2.2712
  2.2999   2.3167   2.3302   2.3368   2.3633   2.3694   2.3814   2.4064
  2.4201   2.4268   2.4409   2.4494   2.4642   2.4688   2.4864   2.5060
  2.5367   2.5536   2.5825   2.6104   2.6863   2.7141   2.7467   2.7577
  2.7755   2.7962   2.8136   2.8323   2.8599   2.8684   2.8821   2.8981
  2.9339   2.9622   2.9773   3.0033   3.0479   3.0624   3.0877   3.1186
  3.1494   3.1518   3.1757   3.1982   3.2061   3.2276   3.2381   3.2612
  3.2892   3.3381   3.3562   3.3724   3.3792   3.3963   3.4312   3.4403
  3.4746   3.4784   3.4967   3.5251   3.5299   3.5458   3.5749   3.5862
  3.6218   3.6327   3.6428   3.6511   3.6758   3.6803   3.6985   3.7226
  3.7350   3.7470   3.7545   3.7749   3.7877   3.8004   3.8118   3.8211
  3.8462   3.8554   3.8641   3.8713   3.8859   3.8944   3.8984   3.9125
  3.9347   3.9433   3.9549   3.9727   3.9764   3.9850   4.0042   4.0240
  4.0464   4.0605   4.1025   4.1050   4.1254   4.1348   4.1759   4.1974
  4.2077   4.2144   4.2329   4.2498   4.2612   4.2736   4.2863   4.3086
  4.3219   4.3392   4.3627   4.3636   4.3852   4.4003   4.4249   4.4425
  4.4678   4.4805   4.4990   4.5415   4.5450   4.5803   4.5890   4.6056
  4.6441   4.6509   4.6745   4.6912   4.7030   4.7574   4.7876   4.8101
  4.8304   4.8578   4.8928   4.9297   4.9946   5.0007   5.0267   5.0642
  5.0791   5.1427   5.1518   5.1925   5.2024   5.2143   5.2173   5.2235
  5.2476   5.2552   5.2713   5.2795   5.2864   5.2900   5.2981   5.3078
  5.3152   5.3256   5.3348   5.3377   5.3453   5.3495   5.3661   5.3692
  5.3835   5.3898   5.4159   5.4317   5.4395   5.4509   5.4801   5.4828
  5.4994   5.5049   5.5224   5.5288   5.5434   5.5577   5.5716   5.5937
  5.6036   5.6163   5.6210   5.6302   5.6377   5.6397   5.6632   5.6759
  5.6791   5.6875   5.7141   5.7425   5.7657   5.7851   5.7989   5.8210
  5.8300   5.8828   5.9053   5.9473   5.9908   6.0183   6.0295   6.0824
  6.0950   6.1261   6.1289   6.1466   6.1636   6.2593   6.3680   6.5223
  6.5415   6.5832   6.6249   6.6520   6.7619   6.7783   6.8073   6.8711
  6.9661   6.9784   7.0210   7.0369   7.0584   7.0741   7.0789   7.0969
  7.1188   7.1501   7.1678   7.1809   7.2056   7.2567   7.2666   7.2697
  7.2732   7.2913   7.2930   7.3208   7.3241   7.3393   7.3467   7.3650
  7.3857   7.3981   7.4044   7.4179   7.4380   7.4597   7.4811   7.4951
  7.5434   7.5478   7.5759   7.6317   7.6631   7.7016   7.7180   7.7476
  7.7648   7.7914   7.8122   7.8422   7.8595   7.9074   7.9225   7.9596
  7.9926   8.1305   8.1743   8.1987  24.6612  24.7100  24.8039  24.8422
 24.8709  50.4572  50.5159  50.5782  50.5980  50.6141  50.6344  50.6398
 50.6647  50.7086
 --------------------------------------------------------------
 
          Ground-State Mulliken Net Atomic Charges

     Atom                 Charge (a.u.)    Spin (a.u.)
  --------------------------------------------------------
      1 C                    -0.029707      -0.000753
      2 O                    -0.412154      -0.000193
      3 C                     0.004847      -0.000897
      4 O                    -0.402668       0.001927
      5 C                    -0.618481       0.006851
      6 C                    -0.060219       0.003657
      7 O                    -0.070252       0.000175
      8 O                    -0.336832      -0.000142
      9 C                    -0.358555      -0.000873
     10 O                    -0.393775       0.000411
     11 O                    -0.462591       0.000100
     12 H                     0.346784       0.000016
     13 H                     0.344713      -0.000154
     14 H                     0.292692       0.001427
     15 H                     0.316401      -0.000708
     16 H                     0.348173       0.000758
     17 H                     0.291859      -0.000065
     18 H                     0.338514      -0.000073
     19 H                     0.348004      -0.000024
     20 O                    -0.456568       0.003855
     21 O                     0.092879       0.304672
     22 O                    -0.187452       0.680727
     23 H                     0.355590       0.000047
     24 H                     0.364146      -0.000051
     25 H                     0.344654      -0.000689
  --------------------------------------------------------
  Sum of atomic charges =     0.000000
  Sum of spin   charges =     1.000000

 -----------------------------------------------------------------
                    Cartesian Multipole Moments
 -----------------------------------------------------------------
    Charge (ESU x 10^10)
                 0.0000
    Dipole Moment (Debye)
         X       0.1388      Y      -3.6682      Z      -3.1335
       Tot       4.8263
    Quadrupole Moments (Debye-Ang)
        XX     -87.2400     XY     -13.1731     YY     -79.5715
        XZ      -8.2233     YZ      15.1266     ZZ     -90.4040
    Octopole Moments (Debye-Ang^2)
       XXX   -1051.3066    XXY    -145.1723    XYY    -329.5468
       YYY    -261.8096    XXZ     -37.0753    XYZ      93.7084
       YYZ      38.8204    XZZ    -386.5277    YZZ    -107.3632
       ZZZ     -81.7580
    Hexadecapole Moments (Debye-Ang^3)
      XXXX   -9812.5531   XXXY   -1799.1145   XXYY   -1918.3703
      XYYY   -1498.8703   YYYY   -1560.2496   XXXZ    -193.7358
      XXYZ     561.5900   XYYZ     283.8052   YYYZ     260.8245
      XXZZ   -2005.2540   XYZZ    -569.5624   YYZZ    -460.8500
      XZZZ    -237.9019   YZZZ      97.5790   ZZZZ   -1026.9466
 -----------------------------------------------------------------
 Calculating analytic gradient of the SCF energy
 Gradient of CDS energy
            1           2           3           4           5           6
    1  -0.0027851   0.0025468  -0.0033742   0.0035316  -0.0000439  -0.0000606
    2   0.0016440  -0.0024010   0.0001153  -0.0000321   0.0000858   0.0000831
    3  -0.0016227   0.0017329   0.0033111  -0.0033576   0.0000953  -0.0000465
            7           8           9          10          11          12
    1   0.0000328  -0.0001342   0.0023544  -0.0008346  -0.0017968   0.0001110
    2  -0.0000758   0.0002720   0.0005274   0.0001122  -0.0006096  -0.0003258
    3   0.0000105   0.0001670  -0.0002408  -0.0017276   0.0017226  -0.0003447
           13          14          15          16          17          18
    1  -0.0002685   0.0001063  -0.0001265   0.0000400  -0.0001537   0.0002260
    2   0.0001559  -0.0000773   0.0000606  -0.0000994   0.0000634   0.0001861
    3  -0.0004028   0.0001338  -0.0001603   0.0000492  -0.0000513   0.0004268
           19          20          21          22          23          24
    1   0.0004761   0.0003336   0.0000366   0.0000072  -0.0003285   0.0001143
    2  -0.0000474   0.0008366   0.0001170  -0.0000293  -0.0001829   0.0001338
    3  -0.0001462  -0.0000317   0.0000443  -0.0000041   0.0002635   0.0002120
           25
    1  -0.0000102
    2  -0.0005127
    3  -0.0000329
 Gradient of SCF Energy
            1           2           3           4           5           6
    1  -0.0177970   0.0011461   0.0021526   0.0026262   0.0007377  -0.0082730
    2   0.0059735   0.0075419  -0.0030715   0.0082977  -0.0069929   0.0098693
    3   0.0177575   0.0161305  -0.0047277   0.0033170   0.0005550  -0.0042384
            7           8           9          10          11          12
    1  -0.0011972   0.0062525   0.0068866  -0.0021559  -0.0034870  -0.0074451
    2   0.0034116   0.0226825  -0.0041655  -0.0128661   0.0093975  -0.0229507
    3  -0.0001567  -0.0012278   0.0016766   0.0002354  -0.0046350   0.0015549
           13          14          15          16          17          18
    1  -0.0004180  -0.0007237   0.0003487   0.0056942  -0.0037417   0.0024308
    2  -0.0069354   0.0020270   0.0025854  -0.0097295   0.0041681   0.0115096
    3  -0.0161471  -0.0013973  -0.0000803  -0.0016725   0.0030390   0.0034405
           19          20          21          22          23          24
    1   0.0042937  -0.0157107   0.0027595  -0.0020284  -0.0026798   0.0159779
    2  -0.0084755   0.0152255   0.0001862   0.0006129  -0.0070392  -0.0065241
    3   0.0014597   0.0002070   0.0025319  -0.0013123  -0.0003329  -0.0142605
           25
    1   0.0143510
    2  -0.0147382
    3  -0.0017164
 Max gradient component =       2.295E-02
 RMS gradient           =       8.225E-03
 Computing fast CPCM-SWIG gradient
 Updating gradient with PCM contributions...
 -- total gradient after adding PCM contribution --
---------------------------------------------------
  Atom         X              Y              Z     
---------------------------------------------------
   1       0.000018      -0.000030       0.000029
   2      -0.000010       0.000043       0.000007
   3      -0.000109      -0.000005       0.000070
   4       0.000032       0.000029      -0.000056
   5       0.000037      -0.000038       0.000012
   6       0.000008       0.000034       0.000047
   7      -0.000038       0.000016      -0.000027
   8      -0.000005       0.000014      -0.000013
   9       0.000009      -0.000022       0.000030
  10       0.000012      -0.000028      -0.000026
  11      -0.000002       0.000047      -0.000014
  12      -0.000008      -0.000024      -0.000021
  13      -0.000029      -0.000020      -0.000019
  14       0.000009       0.000008       0.000026
  15      -0.000014      -0.000001      -0.000001
  16      -0.000005      -0.000023      -0.000014
  17      -0.000007       0.000016       0.000011
  18      -0.000006       0.000026       0.000021
  19       0.000016      -0.000015       0.000001
  20      -0.000030       0.000020      -0.000036
  21       0.000043      -0.000020      -0.000013
  22       0.000046       0.000025       0.000004
  23      -0.000003      -0.000045       0.000005
  24       0.000011       0.000012      -0.000028
  25       0.000026      -0.000020       0.000005
---------------------------------------------------
 Number of fixed atoms: 0
 Gradient time:  CPU 882.87 s  wall 80.79 s
 ######################################################
 ######################################################
 # Starting finite difference calculation for IDERIV  #
 Finite diff step size:  1.88973e-03 a.u.
 ----------------------------------------------------------------
             Standard Nuclear Orientation (Angstroms)
    I     Atom           X                Y                Z
 ----------------------------------------------------------------
    1      C       2.5548333358    -0.2642609420    -0.3671721806
    2      O       1.6316300896     0.6216314436    -0.9233350552
    3      C       3.0620789606     0.3811369657     0.9301258927
    4      O       2.0762214555     0.4240509636     1.8936722693
    5      C       3.6915815799     1.7519652094     0.8151355061
    6      C       4.9033557376     1.8321052106    -0.0972425296
    7      O       4.4005058080     1.8709237346    -1.4350548529
    8      O       5.3755052713     1.3223005795    -2.3212959808
    9      C       5.7258565586     3.0839960614     0.2036783852
   10      O       6.3447309196     2.8518093783     1.4480592892
   11      O       6.6716698318     3.3618852110    -0.8001995030
   12      H       5.0781214402     0.4028368192    -2.3995466351
   13      H       1.4350601087     0.3260166158    -1.8201718901
   14      H       3.9815104090     2.0560003960     1.8195674726
   15      H       2.9281414977     2.4486776249     0.4700119624
   16      H       5.5476244089     0.9568421861     0.0076924012
   17      H       5.0826240446     3.9640240330     0.2483720267
   18      H       6.6728763945     3.6929940439     1.7854577665
   19      H       7.1852975661     2.5615944215    -0.9692863117
   20      O       1.8785201587    -1.4649569288    -0.0472657441
   21      O       4.1101257744    -0.5981607039     1.3495888858
   22      O       4.5958472048    -0.3197465250     2.5224155925
   23      H       1.5436637778    -0.3825065557     1.8120657603
   24      H       3.3856621556    -0.4717088820    -1.0413570840
   25      H       2.5110289106    -2.1931114608    -0.0570490435
 ----------------------------------------------------------------
 Nuclear Repulsion Energy =        1081.75692389 hartrees
 There are       57 alpha and       56 beta electrons
 Discretize the solute cavity surface with Lebedev spheres
	Using 110 Lebedev grid points for each H atom
	Using 194 Lebedev grid points for other atoms
	Atomic van der Waals radii will be scaled by 1.20
 Remove points where switching function is < 1.0e-08
 Keep 1957 surface tesserae and discard 1969 interior tesserae
 Molecular Surface Area = 212.148 Angst**2
 Requested basis set is 6-311++G(2df,2p)
 There are 178 shells and 586 basis functions
 A cutoff of  1.0D-12 yielded  13152 shell pairs
 There are    139283 function pairs (    172157 Cartesian)
 Smallest overlap matrix eigenvalue = 3.99E-06
 Guess MOs from SCF MO coefficient file

 -----------------------------------------------------------------------
  General SCF calculation program by
  Eric Jon Sundstrom, Paul Horn, Yuezhi Mao, Dmitri Zuev, Alec White,
  David Stuck, Shaama M.S., Shane Yost, Joonho Lee, David Small,
  Daniel Levine, Susi Lehtola, Hugh Burton, Evgeny Epifanovsky,
  Bang C. Huynh
 -----------------------------------------------------------------------
 Exchange:     0.1500 Hartree-Fock + 1.0000 wB97M-V + LR-HF
 Correlation:  1.0000 wB97M-V
 Using SG-2 standard quadrature grid
 Nonlocal Correlation:  VV10 with C = 0.0100 and b = 6.00 and scale = 1.00000
 Grid used for NLC:  SG-1 standard quadrature
 
 Citation of the SMD model:
 Marenich, A.V.; Cramer, C.J.; Truhlar, D.G.
 J. Phys. Chem. B 2009, 113, 6378-6396.
 iSolventCode=           1
 Solvent: water                                                           
 
 vradii
            1           2           3           4           5           6
    1   1.8500000   1.5200000   1.8500000   1.5200000   1.8500000   1.8500000
            7           8           9          10          11          12
    1   1.5200000   1.5200000   1.8500000   1.5200000   1.5200000   1.2000000
           13          14          15          16          17          18
    1   1.2000000   1.2000000   1.2000000   1.2000000   1.2000000   1.2000000
           19          20          21          22          23          24
    1   1.2000000   1.5200000   1.5200000   1.5200000   1.2000000   1.2000000
           25
    1   1.2000000
 -------------------------------------------------------
 OpenMP BLAS3 based DFT computing Module                
 Release: version 1.0, May 2013, Q-Chem Inc. Pittsburgh 
 -------------------------------------------------------
 A unrestricted SCF calculation will be
 performed using Roothaan-Hall, DIIS, GDM
 SCF converges when RMS gradient is below 1.0e-07
 ---------------------------------------
  Cycle       Energy         DIIS error
 ---------------------------------------
    1    -873.9665755821      2.20e-04  Roothaan Step
 ---------------------------------------
  Cycle       Energy         DIIS error
 ---------------------------------------
    1    -874.0248275905      2.54e-04  
    2    -874.0337098443      2.37e-04  Done DIIS. Switching to GDM
 ---------------------------------------
  Cycle       Energy        RMS Gradient
 ---------------------------------------
    1    -874.0337098443      2.66e-02   Normal BFGS step
    2    -874.0301754136      4.17e-02  Line search: overstep
    3    -874.0397979703      3.84e-03   Normal BFGS step
    4    -874.0401183275      1.08e-03   Normal BFGS step
    5    -874.0402063912      1.03e-03   Normal BFGS step
    6    -874.0402208662      3.69e-04   Normal BFGS step
    7    -874.0402223388      2.57e-04   Normal BFGS step
    8    -874.0402228858      1.19e-04   Normal BFGS step
    9    -874.0402230797      4.05e-05   Normal BFGS step
   10    -874.0402231031      3.85e-05   Normal BFGS step
   11    -874.0402231112      3.59e-05   Normal BFGS step
   12    -874.0402231140      3.13e-05   Normal BFGS step
   13    -874.0402231170      2.43e-05   Normal BFGS step
   14    -874.0402231207      4.59e-06   Normal BFGS step
   15    -874.0402231213      1.21e-06   Normal BFGS step
   16    -874.0402231215      4.23e-07   Normal BFGS step
   17    -874.0402231215      2.97e-07   Normal BFGS step
   18    -874.0402231215      8.07e-08  Convergence criterion met
 ---------------------------------------
 SCF time:   CPU 5410.02s  wall 374.00s 
<S^2> =          0.753881467
(3)  G-ENP(liq) elect-nuc-pol free energy of system     -874.040223122 a.u.
(4)  G-CDS(liq) cavity-dispersion-solvent structure 
     free energy                                                4.1868 kcal/mol
(6)  G-S(liq) free energy of system                     -874.033551058 a.u.
 SCF   energy in the final basis set =     -874.0335510578
 Total energy in the final basis set =     -874.0335510578
 
 --------------------------------------------------------------
 
                    Orbital Energies (a.u.)
 --------------------------------------------------------------
 
 Alpha MOs
 -- Occupied --
-19.4614 -19.4215 -19.4032 -19.3956 -19.3636 -19.3545 -19.3534 -19.3463
-19.3445 -10.4721 -10.4589 -10.4457 -10.4055 -10.3538  -1.3490  -1.2708
 -1.2222  -1.2016  -1.1874  -1.1449  -1.1351  -1.0552  -1.0134  -0.9129
 -0.8513  -0.8101  -0.7538  -0.7195  -0.6890  -0.6795  -0.6656  -0.6596
 -0.6500  -0.6387  -0.6225  -0.6098  -0.5910  -0.5858  -0.5684  -0.5505
 -0.5402  -0.5321  -0.5285  -0.5032  -0.4845  -0.4721  -0.4703  -0.4591
 -0.4548  -0.4342  -0.4303  -0.4177  -0.4117  -0.4044  -0.3994  -0.3949
 -0.3846
 -- Virtual --
  0.0250   0.0332   0.0365   0.0430   0.0555   0.0587   0.0629   0.0671
  0.0817   0.0851   0.0943   0.1023   0.1160   0.1221   0.1252   0.1335
  0.1363   0.1423   0.1453   0.1516   0.1547   0.1567   0.1611   0.1632
  0.1729   0.1733   0.1758   0.1806   0.1987   0.2024   0.2082   0.2105
  0.2152   0.2262   0.2288   0.2457   0.2508   0.2556   0.2591   0.2616
  0.2678   0.2712   0.2765   0.2859   0.2893   0.2973   0.3007   0.3026
  0.3089   0.3131   0.3148   0.3237   0.3270   0.3312   0.3360   0.3374
  0.3453   0.3488   0.3541   0.3555   0.3643   0.3668   0.3700   0.3748
  0.3784   0.3821   0.3869   0.3928   0.3977   0.4038   0.4060   0.4114
  0.4185   0.4235   0.4278   0.4301   0.4328   0.4410   0.4530   0.4574
  0.4613   0.4651   0.4701   0.4732   0.4844   0.4903   0.5080   0.5158
  0.5251   0.5366   0.5474   0.5897   0.5964   0.6057   0.6218   0.6245
  0.6312   0.6368   0.6427   0.6493   0.6662   0.6703   0.6780   0.6896
  0.6976   0.7074   0.7148   0.7214   0.7305   0.7407   0.7479   0.7629
  0.7672   0.7772   0.7857   0.7916   0.8026   0.8144   0.8485   0.8563
  0.8774   0.8867   0.8881   0.8922   0.9187   0.9302   0.9544   0.9562
  0.9715   0.9810   0.9962   1.0089   1.0305   1.0412   1.0535   1.0642
  1.0713   1.0816   1.0936   1.1014   1.1148   1.1202   1.1312   1.1376
  1.1501   1.1517   1.1625   1.1683   1.1714   1.1782   1.1938   1.1970
  1.2036   1.2075   1.2138   1.2279   1.2325   1.2376   1.2512   1.2529
  1.2604   1.2624   1.2658   1.2796   1.2812   1.2924   1.3006   1.3113
  1.3164   1.3352   1.3440   1.3622   1.3648   1.3753   1.3866   1.4030
  1.4155   1.4300   1.4334   1.4425   1.4470   1.4641   1.4810   1.4899
  1.4987   1.5085   1.5125   1.5221   1.5270   1.5361   1.5425   1.5517
  1.5606   1.5649   1.5779   1.5927   1.6044   1.6213   1.6332   1.6438
  1.6598   1.6617   1.6674   1.6839   1.7058   1.7167   1.7267   1.7413
  1.7539   1.7562   1.7767   1.7950   1.8105   1.8212   1.8289   1.8418
  1.8583   1.8611   1.8863   1.9004   1.9260   1.9411   1.9588   1.9744
  1.9844   1.9946   2.0107   2.0228   2.0480   2.0722   2.1100   2.1382
  2.1500   2.1800   2.2051   2.2228   2.2414   2.2587   2.2673   2.2927
  2.3127   2.3289   2.3305   2.3574   2.3666   2.3797   2.4059   2.4189
  2.4264   2.4398   2.4467   2.4626   2.4678   2.4852   2.5053   2.5362
  2.5528   2.5810   2.6079   2.6858   2.7106   2.7463   2.7572   2.7717
  2.7958   2.8132   2.8321   2.8596   2.8681   2.8818   2.8966   2.9330
  2.9618   2.9768   3.0029   3.0470   3.0622   3.0875   3.1179   3.1490
  3.1515   3.1754   3.1977   3.2053   3.2271   3.2377   3.2609   3.2889
  3.3379   3.3561   3.3723   3.3783   3.3957   3.4311   3.4399   3.4744
  3.4780   3.4961   3.5246   3.5298   3.5457   3.5745   3.5861   3.6219
  3.6324   3.6424   3.6504   3.6756   3.6802   3.6983   3.7226   3.7348
  3.7466   3.7545   3.7747   3.7875   3.8004   3.8109   3.8213   3.8461
  3.8552   3.8639   3.8712   3.8857   3.8944   3.8983   3.9121   3.9345
  3.9433   3.9548   3.9721   3.9763   3.9848   4.0038   4.0240   4.0459
  4.0607   4.1023   4.1048   4.1247   4.1347   4.1757   4.1971   4.2076
  4.2142   4.2324   4.2497   4.2609   4.2734   4.2863   4.3081   4.3217
  4.3387   4.3626   4.3629   4.3847   4.4001   4.4247   4.4420   4.4674
  4.4805   4.4981   4.5395   4.5442   4.5764   4.5883   4.5949   4.6315
  4.6489   4.6698   4.6911   4.7017   4.7528   4.7738   4.8079   4.8166
  4.8567   4.8869   4.9216   4.9890   4.9974   5.0200   5.0535   5.0763
  5.0959   5.1049   5.1290   5.1813   5.1970   5.2093   5.2186   5.2452
  5.2471   5.2554   5.2687   5.2813   5.2836   5.2875   5.3009   5.3071
  5.3146   5.3296   5.3357   5.3406   5.3470   5.3624   5.3653   5.3810
  5.3885   5.4120   5.4288   5.4336   5.4493   5.4696   5.4782   5.4985
  5.5041   5.5186   5.5272   5.5404   5.5566   5.5700   5.5806   5.5987
  5.6159   5.6204   5.6281   5.6340   5.6381   5.6553   5.6743   5.6782
  5.6854   5.7130   5.7412   5.7645   5.7772   5.7891   5.8208   5.8269
  5.8813   5.9045   5.9459   5.9897   6.0119   6.0291   6.0810   6.0947
  6.1236   6.1284   6.1462   6.1620   6.2592   6.3573   6.4814   6.5414
  6.5751   6.6135   6.6513   6.7615   6.7742   6.8036   6.8698   6.8869
  6.8991   6.9813   7.0207   7.0533   7.0584   7.0775   7.0954   7.1180
  7.1473   7.1506   7.1753   7.1865   7.2465   7.2634   7.2691   7.2721
  7.2890   7.2921   7.3159   7.3236   7.3360   7.3458   7.3534   7.3810
  7.3886   7.4029   7.4100   7.4277   7.4489   7.4632   7.4862   7.5397
  7.5437   7.5640   7.6307   7.6629   7.7005   7.7176   7.7467   7.7609
  7.7866   7.8105   7.8406   7.8592   7.9074   7.9187   7.9563   7.9924
  8.1187   8.1558   8.1985  24.6612  24.7098  24.8038  24.8420  24.8710
 50.4446  50.5158  50.5728  50.5971  50.6137  50.6344  50.6389  50.6626
 50.7083
 
 Beta MOs
 -- Occupied --
-19.4513 -19.4032 -19.4025 -19.3956 -19.3634 -19.3545 -19.3534 -19.3463
-19.3445 -10.4725 -10.4589 -10.4457 -10.4055 -10.3536  -1.3235  -1.2708
 -1.2211  -1.2016  -1.1864  -1.1448  -1.1351  -1.0550  -0.9849  -0.9068
 -0.8467  -0.8093  -0.7528  -0.7144  -0.6860  -0.6766  -0.6635  -0.6567
 -0.6418  -0.6337  -0.6180  -0.5856  -0.5777  -0.5754  -0.5635  -0.5493
 -0.5351  -0.5282  -0.5147  -0.4944  -0.4827  -0.4715  -0.4683  -0.4575
 -0.4525  -0.4340  -0.4288  -0.4172  -0.4102  -0.3999  -0.3854  -0.3806
 -- Virtual --
 -0.0331   0.0251   0.0332   0.0366   0.0431   0.0556   0.0590   0.0631
  0.0676   0.0818   0.0854   0.0945   0.1025   0.1165   0.1228   0.1260
  0.1338   0.1366   0.1433   0.1460   0.1520   0.1550   0.1572   0.1619
  0.1635   0.1737   0.1750   0.1762   0.1824   0.1994   0.2039   0.2091
  0.2110   0.2174   0.2267   0.2291   0.2471   0.2526   0.2564   0.2594
  0.2657   0.2696   0.2718   0.2772   0.2869   0.2903   0.2983   0.3009
  0.3029   0.3091   0.3150   0.3163   0.3239   0.3277   0.3323   0.3364
  0.3389   0.3462   0.3507   0.3552   0.3562   0.3645   0.3674   0.3711
  0.3754   0.3790   0.3824   0.3871   0.3932   0.3982   0.4047   0.4076
  0.4124   0.4189   0.4252   0.4287   0.4304   0.4334   0.4411   0.4533
  0.4583   0.4621   0.4653   0.4706   0.4740   0.4848   0.4913   0.5083
  0.5163   0.5255   0.5372   0.5482   0.5899   0.5966   0.6066   0.6219
  0.6249   0.6314   0.6370   0.6431   0.6496   0.6664   0.6704   0.6782
  0.6897   0.6979   0.7076   0.7150   0.7215   0.7309   0.7415   0.7483
  0.7632   0.7676   0.7774   0.7861   0.7922   0.8031   0.8145   0.8489
  0.8574   0.8779   0.8879   0.8894   0.8924   0.9190   0.9307   0.9546
  0.9576   0.9720   0.9815   0.9966   1.0093   1.0316   1.0434   1.0545
  1.0650   1.0720   1.0839   1.0942   1.1018   1.1153   1.1219   1.1360
  1.1383   1.1508   1.1532   1.1632   1.1708   1.1749   1.1794   1.1954
  1.2025   1.2055   1.2090   1.2152   1.2299   1.2348   1.2389   1.2532
  1.2560   1.2632   1.2668   1.2759   1.2807   1.2893   1.2935   1.3024
  1.3143   1.3175   1.3388   1.3479   1.3634   1.3653   1.3766   1.3873
  1.4041   1.4168   1.4311   1.4353   1.4446   1.4481   1.4657   1.4819
  1.4917   1.4993   1.5102   1.5157   1.5239   1.5379   1.5381   1.5432
  1.5530   1.5613   1.5658   1.5790   1.5940   1.6062   1.6228   1.6380
  1.6447   1.6604   1.6643   1.6738   1.6857   1.7081   1.7229   1.7312
  1.7431   1.7548   1.7731   1.7808   1.8025   1.8137   1.8242   1.8319
  1.8436   1.8598   1.8686   1.8893   1.9011   1.9285   1.9420   1.9600
  1.9752   1.9852   1.9956   2.0121   2.0257   2.0502   2.0739   2.1107
  2.1403   2.1530   2.1835   2.2065   2.2247   2.2438   2.2641   2.2712
  2.3000   2.3167   2.3301   2.3368   2.3633   2.3694   2.3813   2.4063
  2.4199   2.4267   2.4409   2.4494   2.4641   2.4687   2.4865   2.5059
  2.5367   2.5536   2.5824   2.6104   2.6863   2.7141   2.7466   2.7576
  2.7755   2.7962   2.8137   2.8323   2.8598   2.8684   2.8821   2.8980
  2.9340   2.9621   2.9771   3.0033   3.0478   3.0624   3.0878   3.1186
  3.1493   3.1517   3.1756   3.1981   3.2061   3.2277   3.2381   3.2612
  3.2891   3.3381   3.3562   3.3725   3.3791   3.3960   3.4312   3.4403
  3.4745   3.4783   3.4964   3.5249   3.5299   3.5459   3.5749   3.5862
  3.6219   3.6326   3.6428   3.6510   3.6758   3.6802   3.6985   3.7227
  3.7350   3.7470   3.7545   3.7750   3.7877   3.8005   3.8118   3.8214
  3.8462   3.8553   3.8641   3.8714   3.8860   3.8944   3.8985   3.9124
  3.9347   3.9434   3.9550   3.9725   3.9765   3.9850   4.0042   4.0240
  4.0465   4.0609   4.1026   4.1051   4.1254   4.1348   4.1758   4.1973
  4.2078   4.2144   4.2328   4.2500   4.2612   4.2735   4.2864   4.3087
  4.3219   4.3392   4.3628   4.3635   4.3852   4.4003   4.4250   4.4426
  4.4680   4.4809   4.4991   4.5418   4.5451   4.5804   4.5890   4.6057
  4.6442   4.6512   4.6745   4.6914   4.7031   4.7574   4.7876   4.8101
  4.8305   4.8579   4.8928   4.9298   4.9946   5.0008   5.0268   5.0643
  5.0791   5.1427   5.1518   5.1924   5.2024   5.2143   5.2173   5.2235
  5.2476   5.2553   5.2714   5.2795   5.2864   5.2900   5.2981   5.3078
  5.3153   5.3256   5.3349   5.3377   5.3453   5.3495   5.3661   5.3692
  5.3836   5.3898   5.4160   5.4319   5.4395   5.4509   5.4801   5.4829
  5.4994   5.5049   5.5225   5.5288   5.5434   5.5578   5.5718   5.5938
  5.6036   5.6163   5.6209   5.6301   5.6374   5.6396   5.6633   5.6758
  5.6791   5.6874   5.7140   5.7425   5.7658   5.7851   5.7988   5.8210
  5.8299   5.8827   5.9052   5.9470   5.9901   6.0174   6.0294   6.0821
  6.0950   6.1252   6.1288   6.1463   6.1629   6.2593   6.3680   6.5221
  6.5415   6.5828   6.6248   6.6520   6.7619   6.7780   6.8060   6.8711
  6.9661   6.9784   7.0210   7.0369   7.0584   7.0741   7.0789   7.0969
  7.1188   7.1500   7.1678   7.1809   7.2056   7.2567   7.2666   7.2697
  7.2732   7.2912   7.2930   7.3207   7.3241   7.3393   7.3465   7.3650
  7.3857   7.3980   7.4044   7.4179   7.4380   7.4597   7.4811   7.4950
  7.5434   7.5477   7.5759   7.6317   7.6631   7.7015   7.7179   7.7476
  7.7648   7.7914   7.8121   7.8418   7.8594   7.9074   7.9224   7.9594
  7.9926   8.1305   8.1743   8.1988  24.6612  24.7097  24.8038  24.8420
 24.8709  50.4572  50.5159  50.5781  50.5979  50.6141  50.6344  50.6397
 50.6646  50.7085
 --------------------------------------------------------------
 
          Ground-State Mulliken Net Atomic Charges

     Atom                 Charge (a.u.)    Spin (a.u.)
  --------------------------------------------------------
      1 C                    -0.030328      -0.000755
      2 O                    -0.412352      -0.000195
      3 C                     0.005020      -0.000899
      4 O                    -0.402637       0.001928
      5 C                    -0.618491       0.006854
      6 C                    -0.060169       0.003657
      7 O                    -0.070190       0.000176
      8 O                    -0.336855      -0.000142
      9 C                    -0.358600      -0.000872
     10 O                    -0.393772       0.000411
     11 O                    -0.462589       0.000100
     12 H                     0.346783       0.000016
     13 H                     0.344668      -0.000155
     14 H                     0.292694       0.001426
     15 H                     0.316431      -0.000708
     16 H                     0.348215       0.000759
     17 H                     0.291859      -0.000065
     18 H                     0.338516      -0.000073
     19 H                     0.348004      -0.000024
     20 O                    -0.456691       0.003854
     21 O                     0.092995       0.304640
     22 O                    -0.187487       0.680757
     23 H                     0.355620       0.000048
     24 H                     0.364782      -0.000048
     25 H                     0.344574      -0.000690
  --------------------------------------------------------
  Sum of atomic charges =     0.000000
  Sum of spin   charges =     1.000000

 -----------------------------------------------------------------
                    Cartesian Multipole Moments
 -----------------------------------------------------------------
    Charge (ESU x 10^10)
                 0.0000
    Dipole Moment (Debye)
         X       0.1436      Y      -3.6679      Z      -3.1321
       Tot       4.8254
    Quadrupole Moments (Debye-Ang)
        XX     -87.2133     XY     -13.1721     YY     -79.5729
        XZ      -8.2246     YZ      15.1289     ZZ     -90.4006
    Octopole Moments (Debye-Ang^2)
       XXX   -1051.1976    XXY    -145.1670    XYY    -329.5497
       YYY    -261.8013    XXZ     -37.0898    XYZ      93.7145
       YYZ      38.8227    XZZ    -386.5163    YZZ    -107.3636
       ZZZ     -81.7483
    Hexadecapole Moments (Debye-Ang^3)
      XXXX   -9812.1315   XXXY   -1799.0719   XXYY   -1918.3608
      XYYY   -1498.8304   YYYY   -1560.2542   XXXZ    -193.8034
      XXYZ     561.6063   XYYZ     283.8086   YYYZ     260.8307
      XXZZ   -2005.2076   XYZZ    -569.5604   YYZZ    -460.8475
      XZZZ    -237.8872   YZZZ      97.5889   ZZZZ   -1026.9171
 -----------------------------------------------------------------
 Calculating analytic gradient of the SCF energy
 Gradient of CDS energy
            1           2           3           4           5           6
    1  -0.0027123   0.0025120  -0.0033742   0.0035314  -0.0000439  -0.0000606
    2   0.0016700  -0.0023644   0.0001153  -0.0000320   0.0000858   0.0000831
    3  -0.0016164   0.0017102   0.0033111  -0.0033578   0.0000953  -0.0000465
            7           8           9          10          11          12
    1   0.0000324  -0.0001342   0.0023544  -0.0008346  -0.0017968   0.0001110
    2  -0.0000758   0.0002720   0.0005274   0.0001122  -0.0006096  -0.0003259
    3   0.0000104   0.0001670  -0.0002408  -0.0017276   0.0017226  -0.0003447
           13          14          15          16          17          18
    1  -0.0002692   0.0001063  -0.0001269   0.0000400  -0.0001537   0.0002260
    2   0.0001566  -0.0000773   0.0000606  -0.0000994   0.0000634   0.0001861
    3  -0.0004031   0.0001338  -0.0001605   0.0000492  -0.0000513   0.0004268
           19          20          21          22          23          24
    1   0.0004761   0.0002978   0.0000366   0.0000072  -0.0003286   0.0001140
    2  -0.0000474   0.0007730   0.0001170  -0.0000293  -0.0001829   0.0001342
    3  -0.0001462  -0.0000148   0.0000444  -0.0000041   0.0002635   0.0002123
           25
    1  -0.0000104
    2  -0.0005128
    3  -0.0000328
 Gradient of SCF Energy
            1           2           3           4           5           6
    1  -0.0165543   0.0007827   0.0019961   0.0026138   0.0007314  -0.0082798
    2   0.0059163   0.0077175  -0.0031016   0.0083102  -0.0070082   0.0098749
    3   0.0176809   0.0159868  -0.0048025   0.0033914   0.0005388  -0.0042388
            7           8           9          10          11          12
    1  -0.0012000   0.0062568   0.0068886  -0.0021565  -0.0034876  -0.0074511
    2   0.0034123   0.0226943  -0.0041695  -0.0128666   0.0094012  -0.0229614
    3  -0.0001557  -0.0012287   0.0016751   0.0002340  -0.0046345   0.0015587
           13          14          15          16          17          18
    1  -0.0004338  -0.0007219   0.0003511   0.0056982  -0.0037431   0.0024317
    2  -0.0069108   0.0020274   0.0025869  -0.0097369   0.0041701   0.0115109
    3  -0.0161443  -0.0013930  -0.0000792  -0.0016722   0.0030393   0.0034417
           19          20          21          22          23          24
    1   0.0042948  -0.0160409   0.0027288  -0.0020329  -0.0026739   0.0156282
    2  -0.0084788   0.0149908   0.0001801   0.0006176  -0.0070329  -0.0064621
    3   0.0014590   0.0002903   0.0024792  -0.0013142  -0.0003241  -0.0140547
           25
    1   0.0143735
    2  -0.0146818
    3  -0.0017330
 Max gradient component =       2.296E-02
 RMS gradient           =       8.175E-03
 Computing fast CPCM-SWIG gradient
 Updating gradient with PCM contributions...
 -- total gradient after adding PCM contribution --
---------------------------------------------------
  Atom         X              Y              Z     
---------------------------------------------------
   1       0.001237      -0.000093      -0.000075
   2      -0.000349       0.000213      -0.000125
   3      -0.000263      -0.000037      -0.000002
   4       0.000025       0.000046       0.000022
   5       0.000033      -0.000052      -0.000002
   6       0.000006       0.000033       0.000046
   7      -0.000038       0.000017      -0.000027
   8      -0.000004       0.000015      -0.000013
   9       0.000008      -0.000023       0.000029
  10       0.000012      -0.000028      -0.000026
  11      -0.000001       0.000048      -0.000015
  12      -0.000010      -0.000025      -0.000019
  13      -0.000052       0.000002      -0.000027
  14       0.000009       0.000008       0.000027
  15      -0.000014       0.000000      -0.000002
  16      -0.000006      -0.000023      -0.000014
  17      -0.000007       0.000016       0.000011
  18      -0.000006       0.000026       0.000021
  19       0.000016      -0.000015       0.000001
  20      -0.000339      -0.000204       0.000043
  21       0.000014      -0.000026      -0.000063
  22       0.000040       0.000030       0.000002
  23      -0.000001      -0.000041       0.000009
  24      -0.000355       0.000087       0.000208
  25       0.000045       0.000026      -0.000009
---------------------------------------------------
 Number of fixed atoms: 0
 Gradient time:  CPU 705.70 s  wall 59.68 s
 ----------------------------------------------------------------
             Standard Nuclear Orientation (Angstroms)
    I     Atom           X                Y                Z
 ----------------------------------------------------------------
    1      C       2.5528333358    -0.2642609420    -0.3671721806
    2      O       1.6316300896     0.6216314436    -0.9233350552
    3      C       3.0620789606     0.3811369657     0.9301258927
    4      O       2.0762214555     0.4240509636     1.8936722693
    5      C       3.6915815799     1.7519652094     0.8151355061
    6      C       4.9033557376     1.8321052106    -0.0972425296
    7      O       4.4005058080     1.8709237346    -1.4350548529
    8      O       5.3755052713     1.3223005795    -2.3212959808
    9      C       5.7258565586     3.0839960614     0.2036783852
   10      O       6.3447309196     2.8518093783     1.4480592892
   11      O       6.6716698318     3.3618852110    -0.8001995030
   12      H       5.0781214402     0.4028368192    -2.3995466351
   13      H       1.4350601087     0.3260166158    -1.8201718901
   14      H       3.9815104090     2.0560003960     1.8195674726
   15      H       2.9281414977     2.4486776249     0.4700119624
   16      H       5.5476244089     0.9568421861     0.0076924012
   17      H       5.0826240446     3.9640240330     0.2483720267
   18      H       6.6728763945     3.6929940439     1.7854577665
   19      H       7.1852975661     2.5615944215    -0.9692863117
   20      O       1.8785201587    -1.4649569288    -0.0472657441
   21      O       4.1101257744    -0.5981607039     1.3495888858
   22      O       4.5958472048    -0.3197465250     2.5224155925
   23      H       1.5436637778    -0.3825065557     1.8120657603
   24      H       3.3856621556    -0.4717088820    -1.0413570840
   25      H       2.5110289106    -2.1931114608    -0.0570490435
 ----------------------------------------------------------------
 Nuclear Repulsion Energy =        1081.75472366 hartrees
 There are       57 alpha and       56 beta electrons
 Discretize the solute cavity surface with Lebedev spheres
	Using 110 Lebedev grid points for each H atom
	Using 194 Lebedev grid points for other atoms
	Atomic van der Waals radii will be scaled by 1.20
 Remove points where switching function is < 1.0e-08
 Keep 1957 surface tesserae and discard 1969 interior tesserae
 Molecular Surface Area = 212.152 Angst**2
 Requested basis set is 6-311++G(2df,2p)
 There are 178 shells and 586 basis functions
 A cutoff of  1.0D-12 yielded  13151 shell pairs
 There are    139279 function pairs (    172153 Cartesian)
 Smallest overlap matrix eigenvalue = 3.99E-06
 Guess MOs from SCF MO coefficient file

 -----------------------------------------------------------------------
  General SCF calculation program by
  Eric Jon Sundstrom, Paul Horn, Yuezhi Mao, Dmitri Zuev, Alec White,
  David Stuck, Shaama M.S., Shane Yost, Joonho Lee, David Small,
  Daniel Levine, Susi Lehtola, Hugh Burton, Evgeny Epifanovsky,
  Bang C. Huynh
 -----------------------------------------------------------------------
 Exchange:     0.1500 Hartree-Fock + 1.0000 wB97M-V + LR-HF
 Correlation:  1.0000 wB97M-V
 Using SG-2 standard quadrature grid
 Nonlocal Correlation:  VV10 with C = 0.0100 and b = 6.00 and scale = 1.00000
 Grid used for NLC:  SG-1 standard quadrature
 
 Citation of the SMD model:
 Marenich, A.V.; Cramer, C.J.; Truhlar, D.G.
 J. Phys. Chem. B 2009, 113, 6378-6396.
 iSolventCode=           1
 Solvent: water                                                           
 
 vradii
            1           2           3           4           5           6
    1   1.8500000   1.5200000   1.8500000   1.5200000   1.8500000   1.8500000
            7           8           9          10          11          12
    1   1.5200000   1.5200000   1.8500000   1.5200000   1.5200000   1.2000000
           13          14          15          16          17          18
    1   1.2000000   1.2000000   1.2000000   1.2000000   1.2000000   1.2000000
           19          20          21          22          23          24
    1   1.2000000   1.5200000   1.5200000   1.5200000   1.2000000   1.2000000
           25
    1   1.2000000
 -------------------------------------------------------
 OpenMP BLAS3 based DFT computing Module                
 Release: version 1.0, May 2013, Q-Chem Inc. Pittsburgh 
 -------------------------------------------------------
 A unrestricted SCF calculation will be
 performed using Roothaan-Hall, DIIS, GDM
 SCF converges when RMS gradient is below 1.0e-07
 ---------------------------------------
  Cycle       Energy         DIIS error
 ---------------------------------------
    1    -873.9665868190      2.20e-04  Roothaan Step
 ---------------------------------------
  Cycle       Energy         DIIS error
 ---------------------------------------
    1    -874.0248767847      2.53e-04  
    2    -874.0337549941      2.37e-04  Done DIIS. Switching to GDM
 ---------------------------------------
  Cycle       Energy        RMS Gradient
 ---------------------------------------
    1    -874.0337549941      2.65e-02   Normal BFGS step
    2    -874.0302328729      4.16e-02  Line search: overstep
    3    -874.0398093928      3.83e-03   Normal BFGS step
    4    -874.0401294853      1.06e-03   Normal BFGS step
    5    -874.0402169897      1.03e-03   Normal BFGS step
    6    -874.0402314555      3.69e-04   Normal BFGS step
    7    -874.0402329310      2.58e-04   Normal BFGS step
    8    -874.0402334812      1.19e-04   Normal BFGS step
    9    -874.0402336754      4.08e-05   Normal BFGS step
   10    -874.0402336989      3.88e-05   Normal BFGS step
   11    -874.0402337069      3.61e-05   Normal BFGS step
   12    -874.0402337098      3.14e-05   Normal BFGS step
   13    -874.0402337128      2.43e-05   Normal BFGS step
   14    -874.0402337166      4.53e-06   Normal BFGS step
   15    -874.0402337171      1.22e-06   Normal BFGS step
   16    -874.0402337173      4.23e-07   Normal BFGS step
   17    -874.0402337173      2.96e-07   Normal BFGS step
   18    -874.0402337174      8.10e-08  Convergence criterion met
 ---------------------------------------
 SCF time:   CPU 5025.76s  wall 347.00s 
<S^2> =          0.753881607
(3)  G-ENP(liq) elect-nuc-pol free energy of system     -874.040233717 a.u.
(4)  G-CDS(liq) cavity-dispersion-solvent structure 
     free energy                                                4.1934 kcal/mol
(6)  G-S(liq) free energy of system                     -874.033551128 a.u.
 SCF   energy in the final basis set =     -874.0335511278
 Total energy in the final basis set =     -874.0335511278
 
 --------------------------------------------------------------
 
                    Orbital Energies (a.u.)
 --------------------------------------------------------------
 
 Alpha MOs
 -- Occupied --
-19.4614 -19.4215 -19.4031 -19.3956 -19.3635 -19.3546 -19.3534 -19.3463
-19.3445 -10.4720 -10.4589 -10.4456 -10.4054 -10.3538  -1.3490  -1.2708
 -1.2224  -1.2016  -1.1875  -1.1452  -1.1351  -1.0552  -1.0133  -0.9128
 -0.8512  -0.8100  -0.7538  -0.7195  -0.6890  -0.6795  -0.6658  -0.6595
 -0.6500  -0.6387  -0.6227  -0.6098  -0.5910  -0.5858  -0.5684  -0.5505
 -0.5401  -0.5321  -0.5286  -0.5031  -0.4845  -0.4721  -0.4703  -0.4590
 -0.4548  -0.4342  -0.4303  -0.4177  -0.4116  -0.4044  -0.3994  -0.3947
 -0.3846
 -- Virtual --
  0.0250   0.0332   0.0365   0.0430   0.0555   0.0587   0.0629   0.0672
  0.0817   0.0851   0.0943   0.1023   0.1160   0.1221   0.1252   0.1335
  0.1362   0.1423   0.1453   0.1517   0.1548   0.1567   0.1611   0.1632
  0.1729   0.1733   0.1758   0.1806   0.1987   0.2024   0.2082   0.2105
  0.2153   0.2262   0.2288   0.2457   0.2509   0.2557   0.2593   0.2616
  0.2678   0.2712   0.2766   0.2859   0.2892   0.2973   0.3007   0.3026
  0.3089   0.3132   0.3147   0.3237   0.3270   0.3312   0.3361   0.3374
  0.3453   0.3487   0.3541   0.3555   0.3643   0.3669   0.3700   0.3748
  0.3783   0.3821   0.3869   0.3928   0.3977   0.4038   0.4059   0.4114
  0.4185   0.4235   0.4279   0.4301   0.4329   0.4410   0.4530   0.4574
  0.4613   0.4651   0.4701   0.4732   0.4844   0.4903   0.5080   0.5159
  0.5251   0.5366   0.5474   0.5898   0.5964   0.6058   0.6218   0.6245
  0.6312   0.6368   0.6427   0.6493   0.6662   0.6703   0.6779   0.6896
  0.6976   0.7073   0.7148   0.7214   0.7304   0.7408   0.7479   0.7630
  0.7672   0.7772   0.7857   0.7914   0.8026   0.8143   0.8485   0.8563
  0.8774   0.8867   0.8882   0.8921   0.9187   0.9302   0.9544   0.9562
  0.9715   0.9809   0.9962   1.0088   1.0305   1.0413   1.0536   1.0642
  1.0713   1.0817   1.0937   1.1014   1.1148   1.1201   1.1311   1.1376
  1.1501   1.1517   1.1625   1.1683   1.1714   1.1782   1.1937   1.1970
  1.2035   1.2076   1.2138   1.2280   1.2324   1.2376   1.2512   1.2528
  1.2603   1.2623   1.2658   1.2796   1.2812   1.2924   1.3005   1.3112
  1.3164   1.3352   1.3439   1.3622   1.3648   1.3753   1.3866   1.4030
  1.4155   1.4300   1.4333   1.4425   1.4469   1.4642   1.4810   1.4899
  1.4987   1.5084   1.5125   1.5221   1.5269   1.5361   1.5425   1.5517
  1.5606   1.5649   1.5779   1.5924   1.6045   1.6213   1.6333   1.6439
  1.6597   1.6615   1.6674   1.6839   1.7058   1.7167   1.7268   1.7412
  1.7538   1.7561   1.7767   1.7950   1.8104   1.8214   1.8288   1.8417
  1.8583   1.8612   1.8863   1.9004   1.9261   1.9410   1.9587   1.9744
  1.9844   1.9948   2.0108   2.0228   2.0480   2.0723   2.1101   2.1383
  2.1500   2.1801   2.2052   2.2231   2.2413   2.2587   2.2673   2.2926
  2.3127   2.3290   2.3306   2.3575   2.3667   2.3798   2.4059   2.4193
  2.4266   2.4400   2.4468   2.4628   2.4680   2.4852   2.5056   2.5363
  2.5528   2.5813   2.6079   2.6858   2.7106   2.7465   2.7574   2.7718
  2.7959   2.8130   2.8321   2.8597   2.8683   2.8818   2.8968   2.9329
  2.9619   2.9772   3.0030   3.0471   3.0622   3.0874   3.1180   3.1491
  3.1516   3.1755   3.1978   3.2053   3.2269   3.2378   3.2610   3.2891
  3.3379   3.3561   3.3722   3.3786   3.3963   3.4311   3.4399   3.4746
  3.4781   3.4966   3.5251   3.5298   3.5455   3.5746   3.5861   3.6215
  3.6326   3.6423   3.6506   3.6757   3.6803   3.6984   3.7224   3.7348
  3.7467   3.7545   3.7744   3.7875   3.8003   3.8110   3.8208   3.8462
  3.8553   3.8639   3.8710   3.8856   3.8944   3.8982   3.9122   3.9344
  3.9431   3.9546   3.9724   3.9762   3.9848   4.0038   4.0238   4.0458
  4.0599   4.1021   4.1047   4.1248   4.1347   4.1758   4.1972   4.2075
  4.2142   4.2325   4.2494   4.2609   4.2735   4.2862   4.3081   4.3217
  4.3387   4.3624   4.3632   4.3846   4.4002   4.4245   4.4417   4.4670
  4.4798   4.4978   4.5388   4.5440   4.5763   4.5882   4.5949   4.6313
  4.6482   4.6697   4.6906   4.7015   4.7528   4.7738   4.8078   4.8164
  4.8566   4.8869   4.9215   4.9890   4.9971   5.0200   5.0533   5.0763
  5.0959   5.1049   5.1290   5.1813   5.1971   5.2093   5.2186   5.2453
  5.2470   5.2555   5.2686   5.2813   5.2835   5.2875   5.3009   5.3070
  5.3143   5.3294   5.3357   5.3406   5.3471   5.3625   5.3652   5.3807
  5.3885   5.4118   5.4283   5.4336   5.4493   5.4697   5.4780   5.4984
  5.5040   5.5185   5.5271   5.5403   5.5565   5.5696   5.5806   5.5987
  5.6158   5.6204   5.6282   5.6346   5.6381   5.6551   5.6746   5.6782
  5.6854   5.7131   5.7412   5.7642   5.7774   5.7891   5.8208   5.8270
  5.8814   5.9049   5.9464   5.9912   6.0135   6.0292   6.0817   6.0947
  6.1256   6.1285   6.1467   6.1635   6.2592   6.3572   6.4815   6.5414
  6.5760   6.6136   6.6514   6.7615   6.7747   6.8062   6.8698   6.8870
  6.8991   6.9814   7.0207   7.0533   7.0584   7.0775   7.0954   7.1181
  7.1474   7.1506   7.1754   7.1864   7.2465   7.2634   7.2691   7.2721
  7.2892   7.2921   7.3160   7.3236   7.3360   7.3463   7.3534   7.3810
  7.3885   7.4029   7.4100   7.4280   7.4489   7.4633   7.4862   7.5399
  7.5437   7.5641   7.6307   7.6629   7.7007   7.7179   7.7467   7.7609
  7.7866   7.8106   7.8415   7.8592   7.9074   7.9189   7.9567   7.9924
  8.1187   8.1556   8.1985  24.6611  24.7104  24.8038  24.8424  24.8709
 50.4446  50.5158  50.5729  50.5972  50.6137  50.6344  50.6390  50.6628
 50.7085
 
 Beta MOs
 -- Occupied --
-19.4513 -19.4031 -19.4025 -19.3956 -19.3634 -19.3546 -19.3534 -19.3463
-19.3445 -10.4724 -10.4590 -10.4456 -10.4055 -10.3536  -1.3234  -1.2708
 -1.2213  -1.2016  -1.1864  -1.1451  -1.1351  -1.0549  -0.9848  -0.9068
 -0.8466  -0.8093  -0.7528  -0.7144  -0.6860  -0.6765  -0.6638  -0.6565
 -0.6418  -0.6338  -0.6181  -0.5856  -0.5777  -0.5754  -0.5635  -0.5493
 -0.5351  -0.5283  -0.5147  -0.4944  -0.4827  -0.4715  -0.4683  -0.4575
 -0.4525  -0.4340  -0.4288  -0.4172  -0.4101  -0.3998  -0.3854  -0.3805
 -- Virtual --
 -0.0330   0.0251   0.0332   0.0366   0.0431   0.0556   0.0590   0.0631
  0.0676   0.0818   0.0854   0.0945   0.1025   0.1165   0.1228   0.1260
  0.1338   0.1366   0.1433   0.1460   0.1520   0.1550   0.1572   0.1619
  0.1635   0.1737   0.1750   0.1762   0.1824   0.1994   0.2039   0.2092
  0.2110   0.2174   0.2268   0.2291   0.2471   0.2526   0.2564   0.2595
  0.2657   0.2697   0.2719   0.2772   0.2870   0.2902   0.2983   0.3009
  0.3029   0.3091   0.3150   0.3162   0.3240   0.3276   0.3323   0.3364
  0.3389   0.3462   0.3507   0.3553   0.3562   0.3645   0.3674   0.3711
  0.3754   0.3790   0.3824   0.3871   0.3932   0.3982   0.4047   0.4076
  0.4124   0.4189   0.4252   0.4287   0.4304   0.4334   0.4412   0.4533
  0.4583   0.4621   0.4654   0.4706   0.4740   0.4848   0.4914   0.5083
  0.5164   0.5255   0.5372   0.5482   0.5900   0.5966   0.6067   0.6219
  0.6249   0.6314   0.6370   0.6431   0.6495   0.6664   0.6704   0.6781
  0.6897   0.6979   0.7075   0.7150   0.7216   0.7308   0.7416   0.7483
  0.7632   0.7676   0.7774   0.7861   0.7920   0.8031   0.8144   0.8489
  0.8574   0.8779   0.8880   0.8895   0.8924   0.9190   0.9307   0.9546
  0.9576   0.9720   0.9815   0.9966   1.0092   1.0316   1.0434   1.0546
  1.0650   1.0720   1.0839   1.0943   1.1018   1.1154   1.1218   1.1360
  1.1383   1.1508   1.1532   1.1632   1.1708   1.1749   1.1794   1.1953
  1.2025   1.2055   1.2092   1.2152   1.2298   1.2348   1.2388   1.2532
  1.2560   1.2631   1.2668   1.2759   1.2807   1.2893   1.2934   1.3023
  1.3143   1.3175   1.3388   1.3478   1.3634   1.3653   1.3765   1.3873
  1.4041   1.4168   1.4311   1.4352   1.4446   1.4479   1.4657   1.4818
  1.4916   1.4992   1.5102   1.5157   1.5239   1.5379   1.5380   1.5432
  1.5530   1.5613   1.5658   1.5790   1.5936   1.6064   1.6228   1.6381
  1.6448   1.6602   1.6642   1.6739   1.6857   1.7081   1.7229   1.7313
  1.7430   1.7548   1.7731   1.7808   1.8025   1.8137   1.8243   1.8319
  1.8435   1.8597   1.8687   1.8892   1.9011   1.9285   1.9419   1.9598
  1.9752   1.9852   1.9959   2.0122   2.0258   2.0502   2.0739   2.1107
  2.1404   2.1530   2.1836   2.2066   2.2250   2.2438   2.2641   2.2712
  2.2999   2.3167   2.3302   2.3369   2.3634   2.3694   2.3814   2.4064
  2.4202   2.4269   2.4410   2.4494   2.4644   2.4689   2.4864   2.5061
  2.5367   2.5537   2.5827   2.6104   2.6863   2.7141   2.7467   2.7577
  2.7755   2.7963   2.8136   2.8323   2.8599   2.8685   2.8821   2.8982
  2.9339   2.9622   2.9775   3.0034   3.0479   3.0624   3.0877   3.1186
  3.1494   3.1519   3.1757   3.1982   3.2062   3.2275   3.2382   3.2612
  3.2893   3.3381   3.3562   3.3723   3.3793   3.3966   3.4312   3.4403
  3.4747   3.4784   3.4970   3.5254   3.5299   3.5457   3.5749   3.5862
  3.6216   3.6328   3.6427   3.6512   3.6759   3.6803   3.6986   3.7226
  3.7350   3.7470   3.7545   3.7748   3.7877   3.8004   3.8119   3.8209
  3.8463   3.8554   3.8641   3.8713   3.8858   3.8944   3.8983   3.9125
  3.9346   3.9432   3.9548   3.9728   3.9763   3.9850   4.0042   4.0239
  4.0464   4.0601   4.1025   4.1050   4.1254   4.1347   4.1759   4.1974
  4.2077   4.2145   4.2329   4.2497   4.2612   4.2736   4.2863   4.3086
  4.3219   4.3393   4.3626   4.3637   4.3851   4.4004   4.4248   4.4424
  4.4676   4.4802   4.4988   4.5411   4.5450   4.5803   4.5889   4.6056
  4.6439   4.6506   4.6745   4.6909   4.7029   4.7574   4.7875   4.8101
  4.8303   4.8578   4.8927   4.9297   4.9945   5.0006   5.0266   5.0642
  5.0791   5.1427   5.1518   5.1926   5.2024   5.2143   5.2173   5.2235
  5.2476   5.2552   5.2713   5.2795   5.2864   5.2900   5.2981   5.3077
  5.3151   5.3256   5.3347   5.3377   5.3453   5.3495   5.3661   5.3692
  5.3833   5.3897   5.4157   5.4314   5.4395   5.4508   5.4801   5.4827
  5.4993   5.5049   5.5223   5.5288   5.5434   5.5577   5.5714   5.5937
  5.6037   5.6163   5.6210   5.6303   5.6380   5.6397   5.6631   5.6760
  5.6791   5.6875   5.7141   5.7425   5.7656   5.7852   5.7989   5.8210
  5.8300   5.8828   5.9055   5.9476   5.9915   6.0191   6.0296   6.0827
  6.0951   6.1268   6.1291   6.1468   6.1644   6.2593   6.3679   6.5224
  6.5416   6.5835   6.6249   6.6520   6.7619   6.7786   6.8085   6.8711
  6.9661   6.9784   7.0210   7.0369   7.0584   7.0742   7.0789   7.0969
  7.1188   7.1501   7.1678   7.1809   7.2056   7.2567   7.2665   7.2697
  7.2732   7.2914   7.2931   7.3209   7.3242   7.3393   7.3469   7.3650
  7.3857   7.3982   7.4044   7.4179   7.4381   7.4598   7.4811   7.4951
  7.5434   7.5479   7.5759   7.6317   7.6631   7.7017   7.7181   7.7476
  7.7649   7.7914   7.8123   7.8426   7.8595   7.9074   7.9226   7.9597
  7.9926   8.1305   8.1742   8.1987  24.6611  24.7103  24.8039  24.8423
 24.8708  50.4572  50.5159  50.5782  50.5980  50.6142  50.6344  50.6399
 50.6648  50.7087
 --------------------------------------------------------------
 
          Ground-State Mulliken Net Atomic Charges

     Atom                 Charge (a.u.)    Spin (a.u.)
  --------------------------------------------------------
      1 C                    -0.029089      -0.000752
      2 O                    -0.411954      -0.000190
      3 C                     0.004676      -0.000896
      4 O                    -0.402699       0.001926
      5 C                    -0.618473       0.006848
      6 C                    -0.060269       0.003658
      7 O                    -0.070315       0.000175
      8 O                    -0.336810      -0.000142
      9 C                    -0.358510      -0.000875
     10 O                    -0.393779       0.000411
     11 O                    -0.462593       0.000100
     12 H                     0.346785       0.000016
     13 H                     0.344759      -0.000154
     14 H                     0.292690       0.001427
     15 H                     0.316372      -0.000708
     16 H                     0.348131       0.000758
     17 H                     0.291858      -0.000065
     18 H                     0.338512      -0.000073
     19 H                     0.348003      -0.000024
     20 O                    -0.456445       0.003856
     21 O                     0.092764       0.304704
     22 O                    -0.187417       0.680697
     23 H                     0.355560       0.000046
     24 H                     0.363508      -0.000054
     25 H                     0.344734      -0.000689
  --------------------------------------------------------
  Sum of atomic charges =    -0.000000
  Sum of spin   charges =     1.000000

 -----------------------------------------------------------------
                    Cartesian Multipole Moments
 -----------------------------------------------------------------
    Charge (ESU x 10^10)
                -0.0000
    Dipole Moment (Debye)
         X       0.1340      Y      -3.6684      Z      -3.1348
       Tot       4.8272
    Quadrupole Moments (Debye-Ang)
        XX     -87.2668     XY     -13.1742     YY     -79.5701
        XZ      -8.2220     YZ      15.1243     ZZ     -90.4075
    Octopole Moments (Debye-Ang^2)
       XXX   -1051.4157    XXY    -145.1776    XYY    -329.5439
       YYY    -261.8180    XXZ     -37.0607    XYZ      93.7022
       YYZ      38.8180    XZZ    -386.5391    YZZ    -107.3628
       ZZZ     -81.7677
    Hexadecapole Moments (Debye-Ang^3)
      XXXX   -9812.9755   XXXY   -1799.1570   XXYY   -1918.3797
      XYYY   -1498.9103   YYYY   -1560.2450   XXXZ    -193.6679
      XXYZ     561.5736   XYYZ     283.8019   YYYZ     260.8183
      XXZZ   -2005.3005   XYZZ    -569.5643   YYZZ    -460.8525
      XZZZ    -237.9165   YZZZ      97.5691   ZZZZ   -1026.9761
 -----------------------------------------------------------------
 Calculating analytic gradient of the SCF energy
 Gradient of CDS energy
            1           2           3           4           5           6
    1  -0.0028573   0.0025789  -0.0033742   0.0035318  -0.0000439  -0.0000606
[...]
 C          0.051  0.021 -0.012   -0.042 -0.012  0.058   -0.002 -0.031 -0.020
 C          0.037 -0.016 -0.111   -0.019 -0.016 -0.079   -0.057 -0.007 -0.007
 O         -0.018  0.011 -0.002   -0.015  0.015 -0.003    0.001 -0.003 -0.002
 O          0.009  0.003 -0.001    0.007  0.002  0.000    0.009  0.006 -0.007
 C         -0.092  0.013  0.063    0.068 -0.056 -0.034    0.071 -0.047 -0.043
 O          0.008  0.004 -0.002   -0.015  0.034 -0.017   -0.010  0.022 -0.009
 O          0.029 -0.023 -0.020   -0.017  0.016  0.011   -0.017  0.022  0.011
 H         -0.099  0.032  0.093   -0.078  0.025  0.071   -0.131  0.042  0.115
 H         -0.026  0.030 -0.008    0.079 -0.091  0.020   -0.183  0.210 -0.045
 H         -0.426 -0.279  0.220    0.135  0.092 -0.028   -0.117 -0.173  0.054
 H          0.062  0.034 -0.011    0.188  0.117 -0.190    0.062  0.021 -0.049
 H         -0.175 -0.082  0.627    0.260  0.253  0.562    0.231  0.215  0.143
 H          0.029  0.105  0.045    0.028 -0.107  0.194    0.022 -0.099  0.094
 H          0.025 -0.020  0.039    0.105 -0.110  0.209    0.067 -0.072  0.139
 H          0.222  0.156 -0.241   -0.162 -0.122  0.190   -0.184 -0.134  0.206
 O          0.004  0.004 -0.001   -0.003  0.000  0.005    0.013 -0.009 -0.014
 O         -0.001 -0.003 -0.010    0.003  0.009  0.013   -0.003 -0.013 -0.011
 O         -0.001  0.004  0.001   -0.001 -0.004 -0.008    0.000  0.004  0.007
 H          0.024 -0.007 -0.025    0.216 -0.095 -0.289   -0.335  0.150  0.439
 H         -0.132 -0.029 -0.160    0.147  0.051  0.151   -0.276 -0.243 -0.204
 H         -0.006 -0.004 -0.001    0.023  0.021 -0.008   -0.112 -0.112  0.037
 TransDip  -0.151 -0.039  0.120    0.177 -0.199 -0.138   -0.130  0.168  0.238

 Mode:                52                     53                     54
 Frequency:      1405.53                1421.76                1437.75
 Force Cnst:      1.7533                 1.7446                 1.6167
 Red. Mass:       1.5063                 1.4649                 1.3274
 IR Active:          YES                    YES                    YES
 IR Intens:       36.634                 63.476                 71.595
 Raman Active:       YES                    YES                    YES
               X      Y      Z        X      Y      Z        X      Y      Z
 C          0.012 -0.083 -0.010    0.025 -0.078  0.043    0.001  0.011  0.006
 O         -0.001  0.009 -0.004    0.002 -0.000 -0.018    0.000 -0.002 -0.001
 C         -0.030 -0.009  0.045    0.057  0.074 -0.016    0.005  0.009 -0.004
 O          0.005 -0.001 -0.006   -0.008 -0.017 -0.005   -0.001 -0.002 -0.000
 C          0.094  0.079 -0.062   -0.075 -0.066  0.050   -0.020 -0.018  0.008
 C         -0.070 -0.044  0.021    0.035  0.026 -0.048    0.031  0.026  0.020
 O          0.005  0.023  0.020   -0.010  0.034  0.014    0.003  0.003  0.003
 O         -0.015 -0.016  0.004   -0.024 -0.021  0.016   -0.005 -0.003  0.003
 C          0.008 -0.045 -0.044    0.008  0.018  0.026   -0.042  0.023 -0.138
 O         -0.004  0.025 -0.001    0.002 -0.010 -0.001    0.001  0.024  0.022
 O         -0.001  0.015  0.002   -0.002 -0.006 -0.001    0.010 -0.041  0.018
 H          0.304 -0.103 -0.263    0.440 -0.145 -0.389    0.078 -0.025 -0.073
 H          0.022 -0.031  0.004   -0.096  0.102 -0.026   -0.011  0.013 -0.003
 H         -0.298 -0.181  0.132    0.215 -0.006 -0.055    0.082  0.012 -0.032
 H         -0.252 -0.166  0.202    0.200  0.078 -0.253    0.035  0.012 -0.049
 H          0.272  0.189 -0.108   -0.120 -0.050  0.233   -0.153 -0.114 -0.081
 H          0.122  0.016  0.197   -0.076 -0.030 -0.125   -0.148 -0.112  0.848
 H          0.081 -0.082  0.168   -0.035  0.036 -0.075    0.097 -0.078  0.172
 H         -0.087 -0.068  0.109    0.027  0.021 -0.033    0.208  0.137 -0.193
 O         -0.025  0.012  0.013   -0.028  0.005  0.006    0.003 -0.002 -0.003
 O         -0.002 -0.002 -0.008   -0.004 -0.008 -0.008   -0.000 -0.000  0.000
 O          0.000  0.002  0.003    0.000  0.003  0.004    0.000  0.000  0.000
 H          0.029 -0.016 -0.034   -0.129  0.060  0.161   -0.016  0.007  0.021
 H          0.079  0.446 -0.098   -0.012  0.441 -0.167   -0.030 -0.075 -0.006
 H          0.155  0.161 -0.056    0.137  0.141 -0.052   -0.018 -0.019  0.006
 TransDip   0.043 -0.189 -0.009    0.248 -0.013 -0.060    0.083  0.057 -0.252

 Mode:                55                     56                     57
 Frequency:      1437.85                1448.18                1479.56
 Force Cnst:      1.3629                 1.4764                 2.2805
 Red. Mass:       1.1189                 1.1949                 1.7681
 IR Active:          YES                    YES                    YES
 IR Intens:       16.159                 38.482                 87.048
 Raman Active:       YES                    YES                    YES
               X      Y      Z        X      Y      Z        X      Y      Z
 C         -0.011 -0.000 -0.007    0.029 -0.082  0.019    0.016 -0.000  0.022
 O         -0.001  0.001  0.003    0.000  0.004 -0.013   -0.000 -0.002 -0.006
 C          0.031  0.013 -0.022    0.020  0.027 -0.011   -0.002  0.005 -0.014
 O         -0.006 -0.005  0.002   -0.004 -0.005  0.001   -0.001 -0.000  0.002
 C          0.008 -0.083 -0.027   -0.008 -0.018  0.004   -0.028 -0.021  0.011
 C          0.006 -0.007 -0.016    0.002  0.003  0.015    0.094  0.062  0.020
 O         -0.003  0.009  0.004    0.004 -0.038 -0.020   -0.005 -0.007 -0.009
 O         -0.004 -0.004  0.003    0.027  0.024 -0.015    0.001  0.001  0.002
 C          0.001  0.000 -0.005    0.005  0.014 -0.013   -0.145 -0.158 -0.018
 O         -0.000  0.001  0.001   -0.001 -0.002  0.002    0.010  0.041  0.003
 O         -0.001 -0.000  0.001   -0.000 -0.007  0.004    0.020  0.048 -0.025
 H          0.079 -0.026 -0.071   -0.537  0.178  0.489   -0.025  0.009  0.020
 H          0.017 -0.017  0.004   -0.048  0.046 -0.014   -0.042  0.045 -0.011
 H         -0.395  0.559 -0.097    0.000  0.066 -0.024    0.114  0.064 -0.056
 H          0.116  0.352  0.581    0.022  0.030  0.036    0.006  0.001 -0.009
 H         -0.004 -0.003  0.098   -0.028 -0.032 -0.057   -0.200 -0.164 -0.089
 H          0.014  0.008  0.019   -0.052 -0.032  0.079    0.643  0.399 -0.043
 H          0.004 -0.005  0.010   -0.006  0.007 -0.014    0.164 -0.163  0.335
 H         -0.002 -0.001  0.003    0.027  0.020 -0.032   -0.169 -0.130  0.199
 O          0.000 -0.001  0.000   -0.032  0.004  0.013   -0.004 -0.002 -0.001
 O         -0.001  0.001  0.000   -0.003 -0.003 -0.005   -0.001  0.000 -0.000
 O          0.000 -0.000  0.001    0.000  0.001  0.003    0.001 -0.000  0.001
 H         -0.047  0.021  0.062   -0.032  0.014  0.038   -0.001 -0.000  0.001
 H          0.056  0.008  0.069    0.068  0.571 -0.121   -0.052  0.022 -0.063
 H         -0.007 -0.007  0.004    0.148  0.152 -0.056    0.013  0.012 -0.006
 TransDip   0.018  0.116  0.052   -0.029  0.119  0.156   -0.149 -0.137  0.220

 Mode:                58                     59                     60
 Frequency:      1483.36                3079.22                3092.57
 Force Cnst:      2.5012                 6.0590                 6.0941
 Red. Mass:       1.9293                 1.0846                 1.0815
 IR Active:          YES                    YES                    YES
 IR Intens:       14.730                  1.644                 33.873
 Raman Active:       YES                    YES                    YES
               X      Y      Z        X      Y      Z        X      Y      Z
 C          0.122  0.042  0.174   -0.000  0.000  0.000   -0.000  0.000  0.000
 O          0.000 -0.024 -0.047   -0.000 -0.000 -0.000   -0.000 -0.000 -0.000
 C         -0.086 -0.108 -0.092    0.000 -0.000 -0.000   -0.000 -0.000  0.000
 O          0.003  0.030  0.029    0.000  0.000 -0.000    0.000  0.000 -0.000
 C          0.023  0.024  0.011   -0.008  0.009  0.000   -0.017  0.028  0.011
 C         -0.010 -0.015  0.003    0.043 -0.060  0.005    0.017 -0.022  0.002
 O         -0.000  0.004  0.002    0.000 -0.000  0.000   -0.000 -0.000 -0.000
 O         -0.002 -0.002  0.001   -0.000  0.000 -0.000   -0.000  0.000 -0.000
 C          0.013  0.017  0.006   -0.021  0.032  0.002    0.040 -0.056 -0.004
 O         -0.001 -0.005 -0.001   -0.000 -0.000 -0.000    0.000  0.001  0.000
 O         -0.001 -0.005  0.002    0.000 -0.001  0.000   -0.000  0.001 -0.000
 H          0.048 -0.016 -0.039   -0.001  0.005  0.004   -0.000  0.002  0.001
 H         -0.333  0.362 -0.088    0.000 -0.000  0.000    0.000 -0.000  0.000
 H          0.020  0.224 -0.051   -0.013 -0.011 -0.046   -0.080 -0.077 -0.265
 H         -0.055 -0.004  0.115    0.095 -0.090  0.048    0.280 -0.257  0.133
 H          0.049  0.025 -0.011   -0.511  0.706 -0.081   -0.190  0.272 -0.030
 H         -0.060 -0.034 -0.005    0.265 -0.365 -0.022   -0.465  0.647  0.040
 H         -0.019  0.018 -0.038   -0.000  0.002 -0.003   -0.002 -0.004  0.003
 H          0.018  0.014 -0.021   -0.006  0.008  0.001    0.003 -0.014  0.002
 O         -0.014 -0.008 -0.011    0.000  0.000  0.000    0.000  0.000  0.000
 O         -0.005  0.012  0.000   -0.000 -0.000  0.000    0.000 -0.000  0.000
 O          0.007 -0.003  0.008   -0.000 -0.000 -0.000   -0.000 -0.000  0.000
 H          0.208 -0.094 -0.281    0.000 -0.000 -0.000    0.000 -0.000 -0.001
 H         -0.461 -0.057 -0.481    0.005 -0.001 -0.003    0.004 -0.001 -0.003
 H          0.052  0.044 -0.029   -0.000  0.000  0.000   -0.000  0.000  0.000
 TransDip   0.091  0.068 -0.046   -0.011  0.021  0.034    0.137 -0.121  0.036

 Mode:                61                     62                     63
 Frequency:      3097.75                3102.05                3144.31
 Force Cnst:      6.0361                 6.1591                 6.4211
 Red. Mass:       1.0676                 1.0863                 1.1023
 IR Active:          YES                    YES                    YES
 IR Intens:       30.585                 41.775                  1.590
 Raman Active:       YES                    YES                    YES
               X      Y      Z        X      Y      Z        X      Y      Z
 C         -0.001  0.000  0.001   -0.063  0.017  0.054   -0.000  0.001  0.000
 O          0.000  0.000  0.000   -0.000 -0.000 -0.001   -0.000 -0.000 -0.000
 C          0.001 -0.000 -0.001   -0.001 -0.000 -0.000   -0.001  0.000 -0.001
 O         -0.000 -0.000  0.000    0.000 -0.000 -0.001    0.000 -0.000  0.000
 C          0.025 -0.048 -0.026   -0.000  0.001  0.001   -0.052  0.015 -0.075
 C          0.016 -0.022  0.002   -0.000  0.001  0.000   -0.004  0.004 -0.001
 O          0.000 -0.000  0.000   -0.000 -0.000  0.000   -0.000 -0.000  0.000
 O         -0.000  0.000 -0.000   -0.000 -0.000 -0.000    0.000  0.000  0.000
 C          0.019 -0.027 -0.002   -0.000  0.001  0.000   -0.001  0.001 -0.000
 O         -0.000  0.000  0.000   -0.000 -0.000 -0.000   -0.000 -0.000  0.000
 O         -0.000  0.001 -0.000   -0.000 -0.000  0.000    0.000  0.000  0.000
 H         -0.001  0.002  0.002   -0.004  0.005  0.005   -0.000 -0.001 -0.000
 H         -0.000  0.001 -0.000    0.000  0.006  0.000   -0.000 -0.001 -0.000
 H          0.156  0.152  0.518   -0.002 -0.001 -0.008    0.204  0.223  0.713
 H         -0.459  0.413 -0.212    0.004 -0.004  0.002    0.436 -0.401  0.192
 H         -0.191  0.267 -0.028    0.007 -0.009  0.001    0.039 -0.050  0.004
 H         -0.219  0.309  0.020    0.004 -0.006 -0.000    0.007 -0.010 -0.001
 H         -0.002 -0.002  0.001    0.000  0.000 -0.000   -0.000 -0.001  0.000
 H          0.000 -0.007  0.002    0.000  0.000 -0.000    0.000  0.000 -0.000
 O         -0.000 -0.000 -0.000    0.001 -0.001  0.000    0.000  0.000  0.000
 O         -0.000  0.000  0.000    0.000  0.000  0.000   -0.000 -0.000 -0.000
 O         -0.000  0.000 -0.000    0.000 -0.000  0.000    0.000  0.000  0.000
 H         -0.000  0.001  0.001    0.001  0.001 -0.003    0.000 -0.001  0.001
 H          0.012 -0.003 -0.010    0.751 -0.185 -0.628    0.002 -0.001 -0.002
 H          0.000 -0.000 -0.000   -0.009 -0.001 -0.000   -0.000 -0.000  0.000
 TransDip   0.134 -0.115  0.012   -0.193  0.026  0.071   -0.022  0.024 -0.024

 Mode:                64                     65                     66
 Frequency:      3729.27                3748.81                3795.29
 Force Cnst:      8.7272                 8.8461                 9.0471
 Red. Mass:       1.0651                 1.0684                 1.0660
 IR Active:          YES                    YES                    YES
 IR Intens:      203.244                111.730                114.467
 Raman Active:       YES                    YES                    YES
               X      Y      Z        X      Y      Z        X      Y      Z
 C          0.000  0.000 -0.000    0.000  0.000 -0.000    0.000  0.000  0.000
 O          0.000 -0.000  0.000   -0.000 -0.000 -0.000    0.000  0.000  0.000
 C         -0.002 -0.001  0.001    0.000  0.000  0.000   -0.000  0.000  0.000
 O         -0.035 -0.051 -0.004   -0.000 -0.000 -0.000   -0.000 -0.000  0.000
 C          0.000  0.000 -0.000    0.000  0.000  0.000   -0.000 -0.000 -0.000
 C          0.000  0.000  0.000   -0.001  0.000 -0.001   -0.000  0.001  0.000
 O         -0.000  0.000  0.000   -0.000  0.001  0.001    0.000 -0.000  0.000
 O          0.000  0.000  0.000   -0.019 -0.060 -0.005    0.000  0.000 -0.000
 C         -0.000 -0.000 -0.000   -0.000 -0.000  0.000    0.001 -0.002 -0.000
 O         -0.000 -0.000  0.000    0.000 -0.000  0.000   -0.001 -0.002 -0.000
 O         -0.000  0.000  0.000    0.000 -0.000 -0.000    0.034 -0.051 -0.012
 H         -0.001 -0.003 -0.000    0.318  0.943  0.072   -0.002 -0.006 -0.001
 H         -0.001 -0.001 -0.002    0.000  0.000  0.001   -0.000 -0.000 -0.001
 H          0.000  0.000 -0.000   -0.001 -0.000  0.001    0.000  0.000  0.000
 H          0.001 -0.000 -0.000    0.000 -0.000 -0.000   -0.000 -0.000  0.000
 H         -0.000 -0.000  0.000    0.003 -0.004 -0.001    0.003 -0.001  0.000
 H         -0.000  0.000  0.000   -0.000  0.000  0.000   -0.009  0.013  0.002
 H          0.000  0.000  0.000    0.001  0.001  0.001    0.010  0.024  0.010
 H          0.000 -0.001 -0.000   -0.004  0.005  0.001   -0.539  0.819  0.186
 O          0.001 -0.001  0.000    0.000 -0.000 -0.000   -0.000  0.000  0.000
 O          0.000 -0.000 -0.000    0.000 -0.000  0.000    0.000 -0.000  0.000
 O         -0.000 -0.000 -0.000   -0.000  0.000  0.000   -0.000  0.000  0.000
 H          0.565  0.820  0.060    0.002  0.003  0.000    0.000  0.001  0.000
 H         -0.002 -0.002 -0.000   -0.003 -0.002  0.003    0.000  0.000 -0.000
 H         -0.013  0.015  0.001   -0.002  0.002  0.000    0.001 -0.001 -0.000
 TransDip   0.291  0.350  0.039    0.066  0.316  0.102   -0.212  0.235  0.131

 Mode:                67                     68                     69
 Frequency:      3816.54                3819.67                3826.42
 Force Cnst:      9.1523                 9.1700                 9.2014
 Red. Mass:       1.0665                 1.0668                 1.0666
 IR Active:          YES                    YES                    YES
 IR Intens:      167.430                157.490                137.979
 Raman Active:       YES                    YES                    YES
               X      Y      Z        X      Y      Z        X      Y      Z
 C          0.000 -0.001 -0.001    0.002 -0.000 -0.001   -0.000  0.000 -0.000
 O         -0.014 -0.017 -0.058   -0.002 -0.002 -0.008    0.000  0.000  0.000
 C          0.000 -0.000  0.000    0.000  0.000 -0.000    0.000 -0.000  0.000
 O         -0.000 -0.000  0.000    0.001  0.001  0.000    0.000  0.000 -0.000
 C          0.000  0.000  0.000    0.000 -0.000  0.000    0.000  0.000 -0.000
 C         -0.000 -0.000 -0.000   -0.000 -0.000  0.000    0.000  0.000  0.000
 O          0.000  0.000 -0.000    0.000  0.000 -0.000    0.000  0.000  0.000
 O          0.000  0.000 -0.000    0.000  0.000  0.000    0.000  0.000  0.000
 C         -0.000 -0.000 -0.000   -0.000 -0.000 -0.000    0.000 -0.002  0.000
 O         -0.000 -0.000 -0.000   -0.000 -0.000 -0.000   -0.022 -0.054 -0.024
 O          0.000 -0.000 -0.000    0.000 -0.000 -0.000   -0.001  0.001  0.001
 H         -0.000 -0.000  0.000   -0.001 -0.002 -0.000   -0.000 -0.001 -0.000
 H          0.208  0.291  0.922    0.029  0.040  0.128   -0.000 -0.001 -0.002
 H          0.000  0.000  0.000    0.000  0.001  0.000    0.000  0.000  0.001
 H          0.000 -0.000  0.000   -0.000  0.000 -0.000    0.000 -0.000  0.000
 H         -0.000 -0.000  0.000    0.000 -0.000  0.000   -0.000  0.001 -0.000
 H         -0.000  0.000  0.000   -0.000  0.000  0.000    0.001  0.003  0.004
 H          0.001  0.001  0.001    0.001  0.004  0.002    0.341  0.866  0.360
 H         -0.000  0.001  0.000   -0.001  0.001  0.000    0.015 -0.023 -0.006
 O         -0.005  0.006  0.000    0.039 -0.048 -0.000   -0.000  0.000  0.000
 O          0.000 -0.000  0.000    0.000  0.000  0.000   -0.000  0.000 -0.000
 O          0.000 -0.000  0.000    0.000  0.000  0.000   -0.000 -0.000 -0.000
 H          0.003  0.004  0.000   -0.010 -0.017 -0.003   -0.000 -0.000 -0.000
 H          0.001 -0.002  0.004   -0.002  0.005  0.002    0.000 -0.000 -0.000
 H          0.089 -0.106 -0.001   -0.638  0.755  0.012    0.003 -0.003 -0.000
 TransDip   0.162 -0.010  0.381   -0.159  0.364  0.064    0.148  0.280  0.203

 STANDARD THERMODYNAMIC QUANTITIES AT   298.15 K  AND     1.00 ATM

   This Molecule has  0 Imaginary Frequencies
   Zero point vibrational energy:      119.146 kcal/mol

   Atom    1 Element C  Has Mass   12.00000
   Atom    2 Element O  Has Mass   15.99491
   Atom    3 Element C  Has Mass   12.00000
   Atom    4 Element O  Has Mass   15.99491
   Atom    5 Element C  Has Mass   12.00000
   Atom    6 Element C  Has Mass   12.00000
   Atom    7 Element O  Has Mass   15.99491
   Atom    8 Element O  Has Mass   15.99491
   Atom    9 Element C  Has Mass   12.00000
   Atom   10 Element O  Has Mass   15.99491
   Atom   11 Element O  Has Mass   15.99491
   Atom   12 Element H  Has Mass    1.00783
   Atom   13 Element H  Has Mass    1.00783
   Atom   14 Element H  Has Mass    1.00783
   Atom   15 Element H  Has Mass    1.00783
   Atom   16 Element H  Has Mass    1.00783
   Atom   17 Element H  Has Mass    1.00783
   Atom   18 Element H  Has Mass    1.00783
   Atom   19 Element H  Has Mass    1.00783
   Atom   20 Element O  Has Mass   15.99491
   Atom   21 Element O  Has Mass   15.99491
   Atom   22 Element O  Has Mass   15.99491
   Atom   23 Element H  Has Mass    1.00783
   Atom   24 Element H  Has Mass    1.00783
   Atom   25 Element H  Has Mass    1.00783
   Molecular Mass:   215.040320 amu
   Principal axes and moments of inertia in amu*Bohr^2:
                             1           2           3
    Eigenvalues --     1819.88405  3748.54242  4700.12676
          X               0.74053     0.25510    -0.62172
          Y               0.64675    -0.01923     0.76246
          Z              -0.18255     0.96672     0.17922
   Rotational Symmetry Number is   1
   The Molecule is an Asymmetric Top
   Translational Enthalpy:        0.889 kcal/mol
   Rotational Enthalpy:           0.889 kcal/mol
   Vibrational Enthalpy:        127.434 kcal/mol
   gas constant (RT):             0.592 kcal/mol
   Translational Entropy:        42.000  cal/mol.K
   Rotational Entropy:           31.839  cal/mol.K
   Vibrational Entropy:          51.992  cal/mol.K

   Total Enthalpy:              129.804 kcal/mol
   Total Entropy:               125.831  cal/mol.K
 Total job time:  63603.53s(wall), 894005.10s(cpu) 
 Fri Jun 28 07:36:12 2024

        *************************************************************
        *                                                           *
        *  Thank you very much for using Q-Chem.  Have a nice day.  *
        *                                                           *
        *************************************************************


