
Running Job 1 of 1 Q_in.in
qchem Q_in.in_18258.0 /scratch/ari.fischer/qChem2183389.hpc-mn1/qchem18258/ 0
/usr/local/qchem-5.4.1/exe/qcprog.exe_s Q_in.in_18258.0 /scratch/ari.fischer/qChem2183389.hpc-mn1/qchem18258/
                  Welcome to Q-Chem
     A Quantum Leap Into The Future Of Chemistry


 Q-Chem 5.4, Q-Chem, Inc., Pleasanton, CA (2021)

 License issued to: Nanyang Technological University (site)

 E. Epifanovsky,  A. T. B. Gilbert,  Xintian Feng,  Joonho Lee,  Yuezhi Mao,  
 N. Mardirossian,  P. Pokhilko,  A. White,  M. Wormit,  M. P. Coons,  
 A. L. Dempwolff,  Zhengting Gan,  D. Hait,  P. R. Horn,  L. D. Jacobson,  
 I. Kaliman,  J. Kussmann,  A. W. Lange,  Ka Un Lao,  D. S. Levine,  Jie Liu,  
 S. C. McKenzie,  A. F. Morrison,  K. Nanda,  F. Plasser,  D. R. Rehn,  
 M. L. Vidal,  Zhi-Qiang You,  Ying Zhu,  B. Alam,  B. Albrecht,  
 A. Aldossary,  E. Alguire,  J. H. Andersen,  D. Barton,  K. Begam,  A. Behn,  
 Y. A. Bernard,  E. J. Berquist,  H. Burton,  A. Carreras,  K. Carter-Fenk,  
 R. Chakraborty,  A. D. Chien,  K. D. Closser,  V. Cofer-Shabica,  
 S. Dasgupta,  Jia Deng,  M. de Wergifosse,  M. Diedenhofen,  Hainam Do,  
 S. Ehlert,  Po-Tung Fang,  S. Fatehi,  Qingguo Feng,  T. Friedhoff,  
 J. Gayvert,  Qinghui Ge,  G. Gidofalvi,  M. Goldey,  J. Gomes,  
 C. Gonzalez-Espinoza,  S. Gulania,  A. Gunina,  M. W. D. Hanson-Heine,  
 P. H. P. Harbach,  A. W. Hauser,  M. F. Herbst,  M. Hernandez Vera,  
 M. Hodecker,  Z. C. Holden,  S. Houck,  Xunkun Huang,  Kerwin Hui,  
 B. C. Huynh,  M. Ivanov,  Hyunjun Ji,  Hanjie Jiang,  B. Kaduk,  S. Kaehler,  
 K. Khistyaev,  Jaehoon Kim,  P. Klunzinger,  Z. Koczor-Benda,  
 Joong Hoon Koh,  D. Kosenkov,  L. Koulias,  T. Kowalczyk,  C. M. Krauter,  
 K. Kue,  A. Kunitsa,  T. Kus,  A. Landau,  K. V. Lawler,  D. Lefrancois,  
 S. Lehtola,  Rain Li,  Yi-Pei Li,  Jiashu Liang,  M. Liebenthal,  
 Hung-Hsuan Lin,  You-Sheng Lin,  Fenglai Liu,  Kuan-Yu Liu,  
 M. Loipersberger,  A. Luenser,  A. Manjanath,  P. Manohar,  E. Mansoor,  
 S. F. Manzer,  Shan-Ping Mao,  A. V. Marenich,  T. Markovich,  S. Mason,  
 S. A. Maurer,  P. F. McLaughlin,  M. F. S. J. Menger,  J.-M. Mewes,  
 S. A. Mewes,  P. Morgante,  J. W. Mullinax,  K. J. Oosterbaan,  G. Paran,  
 Alexander C. Paul,  Suranjan K. Paul,  F. Pavosevic,  Zheng Pei,  S. Prager,  
 E. I. Proynov,  E. Ramos,  B. Rana,  A. E. Rask,  A. Rettig,  R. M. Richard,  
 F. Rob,  E. Rossomme,  T. Scheele,  M. Scheurer,  M. Schneider,  
 N. Sergueev,  S. M. Sharada,  W. Skomorowski,  D. W. Small,  C. J. Stein,  
 Yu-Chuan Su,  E. J. Sundstrom,  Zhen Tao,  J. Thirman,  T. Tsuchimochi,  
 N. M. Tubman,  S. P. Veccham,  O. Vydrov,  J. Wenzel,  J. Witte,  A. Yamada,  
 Kun Yao,  S. Yeganeh,  S. R. Yost,  A. Zech,  Igor Ying Zhang,  Xing Zhang,  
 Yu Zhang,  D. Zuev,  A. Aspuru-Guzik,  A. T. Bell,  N. A. Besley,  
 K. B. Bravaya,  B. R. Brooks,  D. Casanova,  Jeng-Da Chai,  S. Coriani,  
 C. J. Cramer,  A. E. DePrince, III,  R. A. DiStasio Jr.,  A. Dreuw,  
 B. D. Dunietz,  T. R. Furlani,  W. A. Goddard III,  S. Grimme,  
 S. Hammes-Schiffer,  T. Head-Gordon,  W. J. Hehre,  Chao-Ping Hsu,  
 T.-C. Jagau,  Yousung Jung,  A. Klamt,  Jing Kong,  D. S. Lambrecht,  
 WanZhen Liang,  N. J. Mayhall,  C. W. McCurdy,  J. B. Neaton,  
 C. Ochsenfeld,  J. A. Parkhill,  R. Peverati,  V. A. Rassolov,  Yihan Shao,  
 L. V. Slipchenko,  T. Stauch,  R. P. Steele,  J. E. Subotnik,  
 A. J. W. Thom,  A. Tkatchenko,  D. G. Truhlar,  T. Van Voorhis,  
 T. A. Wesolowski,  K. B. Whaley,  H. L. Woodcock III,  P. M. Zimmerman,  
 S. Faraji,  P. M. W. Gill,  M. Head-Gordon,  J. M. Herbert,  A. I. Krylov

 Additional authors for Version 5.4.1: 
 S. Kotaru,  Shaozhi Li,  Xiangyuan Li,  F. Matz,  A. Molle,  Haisheng Ren,  
 Yingli Su,  Hung-Yi Tsai,  C. Utku,  Fang Wang

 Contributors to earlier versions of Q-Chem not listed above: 
 R. D. Adamson,  B. Austin,  R. Baer,  J. Baker,  G. J. O. Beran,  
 K. Brandhorst,  S. T. Brown,  E. F. C. Byrd,  A. K. Chakraborty,  
 G. K. L. Chan,  Chun-Min Chang,  Yunqing Chen,  C.-L. Cheng,  
 Siu Hung Chien,  D. M. Chipman,  D. L. Crittenden,  H. Dachsel,  
 R. J. Doerksen,  A. D. Dutoi,  R. G. Edgar,  J. Fosso-Tande,  
 L. Fusti-Molnar,  D. Ghosh,  A. Ghysels,  A. Golubeva-Zadorozhnaya,  
 J. Gonthier,  M. S. Gordon,  S. R. Gwaltney,  G. Hawkins,  J. E. Herr,  
 A. Heyden,  S. Hirata,  E. G. Hohenstein,  G. Kedziora,  F. J. Keil,  
 C. Kelley,  Jihan Kim,  R. A. King,  R. Z. Khaliullin,  P. P. Korambath,  
 W. Kurlancheek,  A. Laurent,  A. M. Lee,  M. S. Lee,  S. V. Levchenko,  
 Ching Yeh Lin,  D. Liotard,  E. Livshits,  R. C. Lochan,  I. Lotan,  
 L. A. Martinez-Martinez,  P. E. Maslen,  N. Nair,  D. P. O'Neill,  
 D. Neuhauser,  E. Neuscamman,  C. M. Oana,  R. Olivares-Amaya,  R. Olson,  
 T. M. Perrine,  B. Peters,  P. A. Pieniazek,  A. Prociuk,  Y. M. Rhee,  
 J. Ritchie,  M. A. Rohrdanz,  E. Rosta,  N. J. Russ,  H. F. Schaefer III,  
 M. W. Schmidt,  N. E. Schultz,  S. Sharma,  N. Shenvi,  C. D. Sherrill,  
 A. C. Simmonett,  A. Sodt,  T. Stein,  D. Stuck,  K. S. Thanthiriwatte,  
 V. Vanovschi,  L. Vogt,  Tao Wang,  A. Warshel,  M. A. Watson,  
 C. F. Williams,  Q. Wu,  X. Xu,  Jun Yang,  W. Zhang,  Yan Zhao

 Please cite Q-Chem as follows:
 Y. Shao et al., Mol. Phys. 113, 184-215 (2015)
 DOI: 10.1080/00268976.2014.952696

 Q-Chem 5.4.1 for Intel X86 EM64T Linux

 Parts of Q-Chem use Armadillo 9.800.1 (Horizon Scraper).
 http://arma.sourceforge.net/

 Q-Chem begins on Sat Jun 22 19:06:38 2024  

 Host: 
0

     Scratch files written to /scratch/ari.fischer/qChem2183389.hpc-mn1/qchem18258//
 Aug1521 |scratch|qcdevops|jenkins|workspace|build_RNUM 8249   
 Processing $rem in /usr/local/qchem-5.4.1/config/preferences:
 Processing $rem in /home/ari.fischer/.qchemrc:
 Symmetry turned off for PCM/SM12/SMD calculation

 Checking the input file for inconsistencies... 	...done.

--------------------------------------------------------------
User input:
--------------------------------------------------------------
$molecule
0 2
C         2.5409564419   -0.2511675960   -0.3837335790
O         1.6515150325    0.6772307099   -0.9251000210
C         3.0726553026    0.3617393289    0.9225358353
O         2.0890607984    0.3698751711    1.8919056686
C         3.7030194325    1.7376544219    0.8433039936
C         4.9099532542    1.8328849259   -0.0792473840
O         4.4015030739    1.8341941050   -1.4182417393
O         5.4179681655    1.3211705759   -2.2918076034
C         5.7137876166    3.1067998432    0.1867988426
O         6.3231708473    2.9156517888    1.4441856548
O         6.6574361902    3.3671415135   -0.8243163074
H         5.1656833765    0.3784191398   -2.3340221365
H         1.4022744008    0.3534489198   -1.8072696585
H         4.0092065080    2.0116970031    1.8569209492
H         2.9341969956    2.4481446972    0.5241417375
H         5.5727448222    0.9681105330    0.0430283434
H         5.0534819389    3.9814645891    0.1953135818
H         6.6885984588    3.7724802949    1.7199776364
H         7.1677520466    2.5498659659   -0.9608128550
O         1.8105071679   -1.4219565637   -0.0590848655
O         4.1247918001   -0.6306881414    1.3051203602
O         4.6021061419   -0.3782717009    2.4977742484
H         1.5559769942   -0.4363728845    1.7308571161
H         3.3642697271   -0.4936984846   -1.0652954783
H         2.4404568656   -2.1594792559    0.0139340598
$end

$rem
BASIS = 6-311++G(2df,2p)
GUI = 2
JOB_TYPE = Optimization
METHOD = wB97M-V
SCF_ALGORITHM = DIIS_GDM
MAX_SCF_CYCLES = 400
GEOM_OPT_MAX_CYCLES = 150
SCF_CONVERGENCE = 7
THRESH = 12
Solvent_method = SMD
$end
--------------------------------------------------------------
 ----------------------------------------------------------------
             Standard Nuclear Orientation (Angstroms)
    I     Atom           X                Y                Z
 ----------------------------------------------------------------
    1      C       2.5409564419    -0.2511675960    -0.3837335790
    2      O       1.6515150325     0.6772307099    -0.9251000210
    3      C       3.0726553026     0.3617393289     0.9225358353
    4      O       2.0890607984     0.3698751711     1.8919056686
    5      C       3.7030194325     1.7376544219     0.8433039936
    6      C       4.9099532542     1.8328849259    -0.0792473840
    7      O       4.4015030739     1.8341941050    -1.4182417393
    8      O       5.4179681655     1.3211705759    -2.2918076034
    9      C       5.7137876166     3.1067998432     0.1867988426
   10      O       6.3231708473     2.9156517888     1.4441856548
   11      O       6.6574361902     3.3671415135    -0.8243163074
   12      H       5.1656833765     0.3784191398    -2.3340221365
   13      H       1.4022744008     0.3534489198    -1.8072696585
   14      H       4.0092065080     2.0116970031     1.8569209492
   15      H       2.9341969956     2.4481446972     0.5241417375
   16      H       5.5727448222     0.9681105330     0.0430283434
   17      H       5.0534819389     3.9814645891     0.1953135818
   18      H       6.6885984588     3.7724802949     1.7199776364
   19      H       7.1677520466     2.5498659659    -0.9608128550
   20      O       1.8105071679    -1.4219565637    -0.0590848655
   21      O       4.1247918001    -0.6306881414     1.3051203602
   22      O       4.6021061419    -0.3782717009     2.4977742484
   23      H       1.5559769942    -0.4363728845     1.7308571161
   24      H       3.3642697271    -0.4936984846    -1.0652954783
   25      H       2.4404568656    -2.1594792559     0.0139340598
 ----------------------------------------------------------------
 Nuclear Repulsion Energy =        1081.46858676 hartrees
 There are       57 alpha and       56 beta electrons
 Requested basis set is 6-311++G(2df,2p)
 There are 178 shells and 586 basis functions

 Total QAlloc Memory Limit 288000 MB
 Mega-Array Size       188 MB
 MEM_STATIC part       192 MB
 
 Citation of the SMD model:
 Marenich, A.V.; Cramer, C.J.; Truhlar, D.G.
 J. Phys. Chem. B 2009, 113, 6378-6396.
 iSolventCode=           1
 Solvent: water                                                           
 
 vradii
            1           2           3           4           5           6
    1   1.8500000   1.5200000   1.8500000   1.5200000   1.8500000   1.8500000
            7           8           9          10          11          12
    1   1.5200000   1.5200000   1.8500000   1.5200000   1.5200000   1.2000000
           13          14          15          16          17          18
    1   1.2000000   1.2000000   1.2000000   1.2000000   1.2000000   1.2000000
           19          20          21          22          23          24
    1   1.2000000   1.5200000   1.5200000   1.5200000   1.2000000   1.2000000
           25
    1   1.2000000
 Changing PCM_VDW_RADII to SMD_RADIUS
 Discretize the solute cavity surface with Lebedev spheres
	Using 110 Lebedev grid points for each H atom
	Using 194 Lebedev grid points for other atoms
	Atomic van der Waals radii will be scaled by 1.20
 Remove points where switching function is < 1.0e-08
 Keep 1955 surface tesserae and discard 1971 interior tesserae
 Molecular Surface Area = 211.391 Angst**2
 A cutoff of  1.0D-12 yielded  13145 shell pairs
 There are    139145 function pairs (    171949 Cartesian)
 Smallest overlap matrix eigenvalue = 3.75E-06

 Scale SEOQF with 1.000000e-02/1.000000e-01/1.000000e-01

 Standard Electronic Orientation quadrupole field applied
 Nucleus-field energy     =     0.0000000121 hartrees
 Guess from superposition of atomic densities
 Warning:  Energy on first SCF cycle will be non-variational
 SAD guess density has 113.000000 electrons

 -----------------------------------------------------------------------
  General SCF calculation program by
  Eric Jon Sundstrom, Paul Horn, Yuezhi Mao, Dmitri Zuev, Alec White,
  David Stuck, Shaama M.S., Shane Yost, Joonho Lee, David Small,
  Daniel Levine, Susi Lehtola, Hugh Burton, Evgeny Epifanovsky,
  Bang C. Huynh
 -----------------------------------------------------------------------
 Exchange:     0.1500 Hartree-Fock + 1.0000 wB97M-V + LR-HF
 Correlation:  1.0000 wB97M-V
 Using SG-2 standard quadrature grid
 Nonlocal Correlation:  VV10 with C = 0.0100 and b = 6.00 and scale = 1.00000
 Grid used for NLC:  SG-1 standard quadrature
 
 Citation of the SMD model:
 Marenich, A.V.; Cramer, C.J.; Truhlar, D.G.
 J. Phys. Chem. B 2009, 113, 6378-6396.
 iSolventCode=           1
 Solvent: water                                                           
 
 vradii
            1           2           3           4           5           6
    1   1.8500000   1.5200000   1.8500000   1.5200000   1.8500000   1.8500000
            7           8           9          10          11          12
    1   1.5200000   1.5200000   1.8500000   1.5200000   1.5200000   1.2000000
           13          14          15          16          17          18
    1   1.2000000   1.2000000   1.2000000   1.2000000   1.2000000   1.2000000
           19          20          21          22          23          24
    1   1.2000000   1.5200000   1.5200000   1.5200000   1.2000000   1.2000000
           25
    1   1.2000000
 using 16 threads for integral computing
 -------------------------------------------------------
 OpenMP Integral computing Module                
 Release: version 1.0, May 2013, Q-Chem Inc. Pittsburgh 
 -------------------------------------------------------
 -------------------------------------------------------
 OpenMP BLAS3 based DFT computing Module                
 Release: version 1.0, May 2013, Q-Chem Inc. Pittsburgh 
 -------------------------------------------------------
 A unrestricted SCF calculation will be
 performed using DIIS, GDM
 SCF converges when RMS gradient is below 1.0e-07
 ---------------------------------------
  Cycle       Energy         DIIS error
 ---------------------------------------
    1    -876.7121084079      1.01e-02  
    2    -873.7865102752      1.37e-03  Done DIIS. Switching to GDM
 ---------------------------------------
  Cycle       Energy        RMS Gradient
 ---------------------------------------
    1    -873.7865102752      8.54e-02   Descent step
    2    -873.9893663481      2.04e-02   Normal BFGS step
    3    -874.0329586458      3.72e-02   Normal BFGS step
    4    -874.0355012988      1.94e-02   Normal BFGS step
    5    -874.0386939081      4.44e-03   Normal BFGS step
    6    -874.0388662881      3.97e-03   Normal BFGS step
    7    -874.0389482591      2.12e-03   Normal BFGS step
    8    -874.0389743906      5.49e-04   Normal BFGS step
    9    -874.0389777820      3.25e-04   Normal BFGS step
   10    -874.0389794416      2.10e-04   Normal BFGS step
   11    -874.0389796385      1.95e-04   Normal BFGS step
   12    -874.0389797771      1.70e-04   Normal BFGS step
   13    -874.0389799049      1.24e-04   Normal BFGS step
   14    -874.0389800112      4.71e-05   Normal BFGS step
   15    -874.0389800434      1.68e-05   Normal BFGS step
   16    -874.0389800505      5.32e-06   Normal BFGS step
   17    -874.0389800520      3.07e-06   Normal BFGS step
   18    -874.0389800522      1.41e-06   Normal BFGS step
   19    -874.0389800522      7.50e-07   Normal BFGS step
   20    -874.0389800522      3.32e-07   Normal BFGS step
   21    -874.0389800523      1.06e-07   Normal BFGS step
  GDM::WARNING energy changes are now smaller than effective accuracy.
  GDM::        calculation will continue, but THRESH should be increased
  GDM::        or SCF_CONVERGENCE decreased. 
  GDM::        effective_thresh = 5.98e-09
   22    -874.0389800526      4.50e-08  Convergence criterion met
 ---------------------------------------
 SCF time:   CPU 5530.93s  wall 384.00s 
<S^2> =          0.753919924
(3)  G-ENP(liq) elect-nuc-pol free energy of system     -874.038980053 a.u.
(4)  G-CDS(liq) cavity-dispersion-solvent structure 
     free energy                                                4.1312 kcal/mol
(6)  G-S(liq) free energy of system                     -874.032396640 a.u.
 SCF   energy in the final basis set =     -874.0323966403
 Total energy in the final basis set =     -874.0323966403
 
 --------------------------------------------------------------
 
                    Orbital Energies (a.u.)
 --------------------------------------------------------------
 
 Alpha MOs
 -- Occupied --
-19.4613 -19.4228 -19.4033 -19.3961 -19.3630 -19.3562 -19.3558 -19.3475
-19.3458 -10.4721 -10.4600 -10.4460 -10.4061 -10.3554  -1.3435  -1.2674
 -1.2228  -1.2008  -1.1851  -1.1444  -1.1343  -1.0537  -1.0134  -0.9113
 -0.8494  -0.8081  -0.7506  -0.7175  -0.6861  -0.6758  -0.6641  -0.6589
 -0.6482  -0.6367  -0.6199  -0.6073  -0.5901  -0.5830  -0.5666  -0.5509
 -0.5405  -0.5340  -0.5296  -0.5024  -0.4834  -0.4729  -0.4688  -0.4602
 -0.4548  -0.4327  -0.4307  -0.4188  -0.4128  -0.4061  -0.4010  -0.3956
 -0.3842
 -- Virtual --
  0.0251   0.0332   0.0362   0.0431   0.0558   0.0586   0.0623   0.0671
  0.0819   0.0840   0.0947   0.1018   0.1151   0.1218   0.1240   0.1329
  0.1353   0.1426   0.1451   0.1510   0.1552   0.1558   0.1604   0.1634
  0.1725   0.1743   0.1758   0.1812   0.1973   0.2024   0.2082   0.2096
  0.2139   0.2240   0.2270   0.2423   0.2496   0.2559   0.2589   0.2606
  0.2664   0.2700   0.2759   0.2860   0.2879   0.2929   0.3001   0.3037
  0.3090   0.3122   0.3140   0.3217   0.3247   0.3300   0.3358   0.3367
  0.3434   0.3471   0.3524   0.3566   0.3642   0.3666   0.3690   0.3737
  0.3776   0.3817   0.3876   0.3933   0.3967   0.4044   0.4053   0.4084
  0.4170   0.4228   0.4274   0.4293   0.4308   0.4442   0.4510   0.4563
  0.4626   0.4653   0.4686   0.4736   0.4843   0.4906   0.5078   0.5175
  0.5269   0.5365   0.5486   0.5856   0.5934   0.6045   0.6145   0.6206
  0.6297   0.6395   0.6429   0.6480   0.6651   0.6679   0.6752   0.6884
  0.6972   0.7030   0.7189   0.7227   0.7257   0.7409   0.7455   0.7605
  0.7665   0.7784   0.7873   0.7909   0.7994   0.8136   0.8469   0.8531
  0.8781   0.8816   0.8886   0.8945   0.9240   0.9274   0.9463   0.9580
  0.9720   0.9811   0.9970   1.0002   1.0265   1.0409   1.0583   1.0636
  1.0732   1.0883   1.0968   1.1006   1.1055   1.1216   1.1341   1.1386
  1.1493   1.1544   1.1609   1.1727   1.1744   1.1781   1.1957   1.1999
  1.2052   1.2093   1.2152   1.2262   1.2268   1.2346   1.2509   1.2542
  1.2600   1.2626   1.2664   1.2811   1.2837   1.2934   1.3065   1.3111
  1.3175   1.3330   1.3431   1.3605   1.3650   1.3728   1.3920   1.4050
  1.4110   1.4296   1.4350   1.4395   1.4522   1.4595   1.4851   1.4886
  1.4956   1.5048   1.5139   1.5166   1.5299   1.5339   1.5380   1.5523
  1.5589   1.5636   1.5743   1.5911   1.5955   1.6214   1.6306   1.6383
  1.6576   1.6605   1.6649   1.6851   1.7050   1.7139   1.7250   1.7401
  1.7502   1.7578   1.7740   1.7983   1.8114   1.8151   1.8248   1.8425
  1.8552   1.8592   1.8854   1.8955   1.9252   1.9431   1.9565   1.9720
  1.9852   1.9922   2.0008   2.0306   2.0475   2.0724   2.1064   2.1314
  2.1484   2.1769   2.2114   2.2230   2.2435   2.2554   2.2666   2.2967
  2.3093   2.3224   2.3328   2.3490   2.3646   2.3820   2.4074   2.4225
  2.4330   2.4396   2.4437   2.4637   2.4697   2.4896   2.5168   2.5416
  2.5573   2.5902   2.6064   2.6859   2.7108   2.7451   2.7572   2.7758
  2.8030   2.8146   2.8283   2.8571   2.8655   2.8842   2.8964   2.9242
  2.9582   2.9696   2.9965   3.0436   3.0583   3.0859   3.1125   3.1434
  3.1544   3.1703   3.1974   3.2024   3.2173   3.2416   3.2570   3.2854
  3.3322   3.3579   3.3683   3.3750   3.3889   3.4301   3.4390   3.4720
  3.4760   3.4935   3.5214   3.5301   3.5451   3.5741   3.5847   3.6153
  3.6274   3.6464   3.6482   3.6750   3.6787   3.6985   3.7231   3.7346
  3.7436   3.7518   3.7711   3.7862   3.7953   3.8101   3.8214   3.8431
  3.8557   3.8645   3.8706   3.8830   3.8977   3.9033   3.9140   3.9330
  3.9389   3.9458   3.9633   3.9734   3.9785   4.0017   4.0224   4.0431
  4.0529   4.0911   4.1013   4.1208   4.1320   4.1769   4.1895   4.1971
  4.2062   4.2250   4.2401   4.2525   4.2709   4.2773   4.3002   4.3152
  4.3258   4.3473   4.3574   4.3784   4.3873   4.4123   4.4228   4.4563
  4.4770   4.4937   4.5283   4.5402   4.5671   4.5787   4.5906   4.6245
  4.6353   4.6623   4.6807   4.6955   4.7447   4.7702   4.7997   4.8176
  4.8463   4.8804   4.9088   4.9771   4.9938   5.0167   5.0491   5.0766
  5.0973   5.1049   5.1297   5.1845   5.1951   5.2093   5.2183   5.2425
  5.2442   5.2585   5.2646   5.2789   5.2856   5.2890   5.2976   5.3072
  5.3117   5.3311   5.3399   5.3428   5.3502   5.3619   5.3648   5.3837
  5.3874   5.4094   5.4250   5.4316   5.4473   5.4653   5.4731   5.4931
  5.5027   5.5152   5.5222   5.5358   5.5530   5.5642   5.5750   5.5978
  5.6049   5.6098   5.6134   5.6217   5.6273   5.6470   5.6665   5.6760
  5.6854   5.7093   5.7296   5.7505   5.7687   5.7822   5.8127   5.8241
  5.8653   5.8999   5.9363   5.9747   6.0010   6.0105   6.0533   6.0617
  6.1096   6.1141   6.1357   6.1532   6.2322   6.3566   6.4442   6.5347
  6.5612   6.5791   6.6396   6.7548   6.7665   6.8002   6.8429   6.8811
  6.8957   6.9753   7.0199   7.0484   7.0559   7.0753   7.0914   7.1133
  7.1419   7.1511   7.1674   7.1773   7.2223   7.2432   7.2449   7.2553
  7.2653   7.2776   7.2926   7.3038   7.3305   7.3332   7.3518   7.3795
  7.3887   7.4030   7.4151   7.4229   7.4468   7.4565   7.4781   7.5387
  7.5435   7.5741   7.6199   7.6542   7.6881   7.7073   7.7425   7.7477
  7.7761   7.8028   7.8422   7.8543   7.9065   7.9240   7.9536   7.9847
  8.1053   8.1345   8.2061  24.6446  24.7015  24.7889  24.8271  24.8558
 50.4351  50.5155  50.5692  50.5931  50.6096  50.6317  50.6365  50.6621
 50.7051
 
 Beta MOs
 -- Occupied --
-19.4513 -19.4037 -19.4033 -19.3961 -19.3628 -19.3561 -19.3559 -19.3474
-19.3458 -10.4724 -10.4600 -10.4460 -10.4061 -10.3552  -1.3181  -1.2674
 -1.2216  -1.2008  -1.1840  -1.1444  -1.1343  -1.0535  -0.9840  -0.9056
 -0.8449  -0.8073  -0.7496  -0.7121  -0.6836  -0.6730  -0.6631  -0.6554
 -0.6383  -0.6328  -0.6154  -0.5831  -0.5766  -0.5750  -0.5606  -0.5495
 -0.5371  -0.5300  -0.5147  -0.4922  -0.4825  -0.4717  -0.4669  -0.4590
 -0.4522  -0.4324  -0.4290  -0.4184  -0.4111  -0.4003  -0.3855  -0.3818
 -- Virtual --
 -0.0353   0.0253   0.0333   0.0363   0.0433   0.0558   0.0589   0.0625
  0.0675   0.0819   0.0844   0.0950   0.1021   0.1156   0.1225   0.1247
  0.1334   0.1357   0.1435   0.1457   0.1514   0.1557   0.1564   0.1612
  0.1638   0.1742   0.1750   0.1763   0.1830   0.1979   0.2045   0.2091
  0.2102   0.2158   0.2245   0.2275   0.2442   0.2512   0.2570   0.2596
  0.2641   0.2682   0.2705   0.2765   0.2865   0.2890   0.2941   0.3003
  0.3039   0.3093   0.3135   0.3159   0.3221   0.3251   0.3304   0.3366
  0.3377   0.3443   0.3496   0.3534   0.3571   0.3643   0.3674   0.3697
  0.3743   0.3780   0.3822   0.3878   0.3938   0.3974   0.4057   0.4062
  0.4094   0.4174   0.4242   0.4280   0.4299   0.4317   0.4444   0.4512
  0.4569   0.4633   0.4657   0.4690   0.4745   0.4850   0.4914   0.5080
  0.5180   0.5274   0.5371   0.5493   0.5859   0.5935   0.6054   0.6148
  0.6209   0.6298   0.6396   0.6432   0.6482   0.6652   0.6681   0.6755
  0.6885   0.6974   0.7032   0.7191   0.7229   0.7260   0.7423   0.7458
  0.7608   0.7668   0.7786   0.7876   0.7915   0.7998   0.8137   0.8473
  0.8540   0.8798   0.8821   0.8894   0.8951   0.9241   0.9284   0.9467
  0.9590   0.9724   0.9814   0.9975   1.0008   1.0281   1.0422   1.0593
  1.0643   1.0737   1.0910   1.0972   1.1013   1.1058   1.1233   1.1376
  1.1407   1.1496   1.1555   1.1616   1.1751   1.1770   1.1805   1.1990
  1.2042   1.2072   1.2108   1.2170   1.2265   1.2299   1.2362   1.2550
  1.2567   1.2636   1.2671   1.2735   1.2837   1.2890   1.2951   1.3091
  1.3159   1.3182   1.3368   1.3463   1.3615   1.3656   1.3736   1.3925
  1.4062   1.4125   1.4308   1.4361   1.4418   1.4536   1.4611   1.4858
  1.4905   1.4971   1.5065   1.5154   1.5225   1.5334   1.5373   1.5387
  1.5542   1.5599   1.5649   1.5754   1.5923   1.5983   1.6225   1.6339
  1.6410   1.6584   1.6629   1.6719   1.6863   1.7061   1.7202   1.7302
  1.7456   1.7516   1.7724   1.7773   1.8051   1.8149   1.8180   1.8296
  1.8440   1.8575   1.8652   1.8877   1.8967   1.9274   1.9438   1.9571
  1.9742   1.9858   1.9931   2.0018   2.0333   2.0503   2.0742   2.1068
  2.1322   2.1537   2.1806   2.2126   2.2249   2.2463   2.2626   2.2703
  2.3025   2.3120   2.3294   2.3373   2.3526   2.3666   2.3834   2.4081
  2.4227   2.4334   2.4409   2.4456   2.4645   2.4715   2.4910   2.5174
  2.5421   2.5580   2.5917   2.6084   2.6864   2.7150   2.7457   2.7580
  2.7776   2.8036   2.8152   2.8286   2.8573   2.8659   2.8846   2.8978
  2.9253   2.9585   2.9699   2.9969   3.0442   3.0584   3.0862   3.1133
  3.1436   3.1547   3.1705   3.1981   3.2029   3.2179   3.2420   3.2572
  3.2856   3.3325   3.3581   3.3684   3.3756   3.3893   3.4303   3.4393
  3.4723   3.4760   3.4938   3.5215   3.5305   3.5453   3.5744   3.5849
  3.6153   3.6275   3.6469   3.6488   3.6752   3.6789   3.6987   3.7233
  3.7349   3.7438   3.7519   3.7714   3.7865   3.7953   3.8111   3.8216
  3.8432   3.8558   3.8646   3.8708   3.8833   3.8979   3.9033   3.9144
  3.9332   3.9391   3.9460   3.9635   3.9738   3.9788   4.0021   4.0225
  4.0436   4.0531   4.0915   4.1015   4.1213   4.1321   4.1770   4.1897
  4.1972   4.2064   4.2253   4.2404   4.2527   4.2711   4.2774   4.3005
  4.3158   4.3261   4.3475   4.3580   4.3790   4.3876   4.4127   4.4234
  4.4569   4.4774   4.4946   4.5310   4.5408   4.5684   4.5834   4.5984
  4.6310   4.6436   4.6685   4.6813   4.6970   4.7483   4.7845   4.8023
  4.8298   4.8483   4.8874   4.9163   4.9832   4.9987   5.0223   5.0598
  5.0791   5.1450   5.1531   5.1921   5.2048   5.2139   5.2184   5.2229
  5.2462   5.2576   5.2691   5.2783   5.2842   5.2917   5.2973   5.3030
  5.3121   5.3278   5.3359   5.3416   5.3475   5.3555   5.3638   5.3657
  5.3847   5.3902   5.4126   5.4289   5.4362   5.4490   5.4749   5.4791
  5.4945   5.5036   5.5183   5.5243   5.5401   5.5544   5.5663   5.5876
  5.6007   5.6067   5.6126   5.6136   5.6227   5.6295   5.6540   5.6682
  5.6788   5.6867   5.7109   5.7312   5.7527   5.7774   5.7898   5.8128
  5.8266   5.8668   5.9004   5.9373   5.9750   6.0021   6.0151   6.0541
  6.0620   6.1117   6.1142   6.1365   6.1533   6.2324   6.3672   6.4870
  6.5349   6.5672   6.5892   6.6398   6.7553   6.7701   6.8023   6.8436
  6.9611   6.9753   7.0200   7.0321   7.0512   7.0732   7.0766   7.0935
  7.1141   7.1475   7.1651   7.1733   7.1953   7.2273   7.2451   7.2456
  7.2574   7.2713   7.2798   7.2952   7.3079   7.3319   7.3340   7.3651
  7.3843   7.3971   7.4044   7.4182   7.4377   7.4567   7.4743   7.4894
  7.5394   7.5556   7.5797   7.6215   7.6545   7.6893   7.7075   7.7454
  7.7481   7.7829   7.8046   7.8434   7.8545   7.9065   7.9274   7.9570
  7.9849   8.1171   8.1527   8.2062  24.6447  24.7013  24.7889  24.8271
 24.8558  50.4478  50.5155  50.5746  50.5940  50.6102  50.6317  50.6372
 50.6642  50.7052
 --------------------------------------------------------------
 
          Ground-State Mulliken Net Atomic Charges

     Atom                 Charge (a.u.)    Spin (a.u.)
  --------------------------------------------------------
      1 C                    -0.028458      -0.001377
      2 O                    -0.407295      -0.000247
      3 C                     0.014568      -0.000625
      4 O                    -0.400902       0.001502
      5 C                    -0.621991       0.007538
      6 C                    -0.077005       0.003673
      7 O                    -0.074966       0.000194
      8 O                    -0.335558      -0.000148
      9 C                    -0.348910      -0.000360
     10 O                    -0.394679       0.000437
     11 O                    -0.460749       0.000097
     12 H                     0.349108      -0.000024
     13 H                     0.345132      -0.000174
     14 H                     0.289163       0.001499
     15 H                     0.314544      -0.000749
     16 H                     0.345928       0.000641
     17 H                     0.288297      -0.000055
     18 H                     0.341077      -0.000070
     19 H                     0.348686      -0.000024
     20 O                    -0.450928       0.003236
     21 O                     0.090663       0.299078
     22 O                    -0.184507       0.686346
     23 H                     0.352195       0.000082
     24 H                     0.361009      -0.000091
     25 H                     0.345579      -0.000379
  --------------------------------------------------------
  Sum of atomic charges =     0.000000
  Sum of spin   charges =     1.000000

 -----------------------------------------------------------------
                    Cartesian Multipole Moments
 -----------------------------------------------------------------
    Charge (ESU x 10^10)
                 0.0000
    Dipole Moment (Debye)
         X       0.2267      Y      -3.7505      Z      -3.0753
       Tot       4.8554
    Quadrupole Moments (Debye-Ang)
        XX     -85.6411     XY     -12.9098     YY     -79.2547
        XZ      -7.7269     YZ      14.6635     ZZ     -91.8086
    Octopole Moments (Debye-Ang^2)
       XXX   -1035.3084    XXY    -140.8834    XYY    -327.7454
       YYY    -258.9918    XXZ     -35.5772    XYZ      92.0307
       YYZ      38.5173    XZZ    -391.3990    YZZ    -108.5455
       ZZZ     -81.0114
    Hexadecapole Moments (Debye-Ang^3)
      XXXX   -9685.6738   XXXY   -1762.8132   XXYY   -1902.5121
      XYYY   -1476.6089   YYYY   -1555.3067   XXXZ    -186.2046
      XXYZ     557.7546   XYYZ     279.8290   YYYZ     257.6751
      XXZZ   -2026.2830   XYZZ    -581.4746   YYZZ    -467.2993
      XZZZ    -231.9433   YZZZ      98.2095   ZZZZ   -1023.0501
 -----------------------------------------------------------------
 Calculating analytic gradient of the SCF energy
 Gradient of CDS energy
            1           2           3           4           5           6
    1  -0.0024611   0.0024115  -0.0034295   0.0035886  -0.0000475  -0.0000590
    2   0.0020590  -0.0024590  -0.0000056   0.0000883   0.0000772   0.0000802
    3  -0.0016766   0.0016639   0.0033916  -0.0034286   0.0000984  -0.0000483
            7           8           9          10          11          12
    1   0.0000303  -0.0001483   0.0021621  -0.0006993  -0.0017328   0.0001362
    2  -0.0000723   0.0002715   0.0005686   0.0000194  -0.0005592  -0.0003297
    3   0.0000123   0.0001583  -0.0003654  -0.0015172   0.0016623  -0.0003318
           13          14          15          16          17          18
    1  -0.0002811   0.0001118  -0.0001320   0.0000418  -0.0001667   0.0002382
    2   0.0001587  -0.0000710   0.0000661  -0.0000905   0.0000625   0.0002002
    3  -0.0003932   0.0001353  -0.0001579   0.0000539  -0.0000800   0.0004124
           19          20          21          22          23          24
    1   0.0004745   0.0001379   0.0000436   0.0000003  -0.0003290   0.0001320
    2  -0.0000524   0.0004812   0.0001220  -0.0000397  -0.0001907   0.0001244
    3  -0.0001347   0.0000481   0.0000426  -0.0000004   0.0002531   0.0002085
           25
    1  -0.0000226
    2  -0.0005093
    3  -0.0000064
 Gradient of SCF Energy
            1           2           3           4           5           6
    1  -0.0183388   0.0032861   0.0005505   0.0045472   0.0006843  -0.0083196
    2   0.0049064   0.0135112  -0.0045156   0.0154282  -0.0075226   0.0100388
    3   0.0167799   0.0228633  -0.0052312   0.0078170   0.0004020  -0.0042821
            7           8           9          10          11          12
    1  -0.0060093   0.0114562   0.0122020  -0.0060273  -0.0074264  -0.0092014
    2   0.0039528   0.0296656  -0.0046626  -0.0216323   0.0171464  -0.0291547
    3  -0.0004335  -0.0039153   0.0019541   0.0018404  -0.0073768   0.0034380
           13          14          15          16          17          18
    1  -0.0024196   0.0003539  -0.0017658   0.0075527  -0.0054598   0.0050780
    2  -0.0108983   0.0023876   0.0044556  -0.0118706   0.0063441   0.0180101
    3  -0.0213122   0.0016096  -0.0009639  -0.0009107   0.0017021   0.0031028
           19          20          21          22          23          24
    1   0.0065956  -0.0228492   0.0015159  -0.0000990  -0.0042827   0.0187782
    2  -0.0151231   0.0204253  -0.0034538   0.0031234  -0.0137392  -0.0076196
    3   0.0025357  -0.0012791  -0.0056664   0.0063576  -0.0046921  -0.0156809
           25
    1   0.0195982
    2  -0.0192029
    3   0.0013419
 Max gradient component =       2.967E-02
 RMS gradient           =       1.112E-02
 Computing fast CPCM-SWIG gradient
 Updating gradient with PCM contributions...
 -- total gradient after adding PCM contribution --
---------------------------------------------------
  Atom         X              Y              Z     
---------------------------------------------------
   1      -0.000699      -0.001167      -0.001124
   2       0.000953       0.005483       0.007635
   3      -0.001204      -0.001885      -0.000239
   4       0.002247       0.007538       0.003780
   5      -0.000004      -0.001415       0.000101
   6       0.000205       0.000846       0.000388
   7      -0.005046       0.000525      -0.000192
   8       0.006614       0.006763      -0.001798
   9       0.005390      -0.000760       0.000166
  10      -0.003396      -0.009035       0.000688
  11      -0.003896       0.007816      -0.002266
  12      -0.002744      -0.006276       0.000741
  13      -0.000985      -0.003620      -0.005937
  14       0.001152       0.000728       0.003114
  15      -0.002308       0.001991      -0.000965
  16       0.001536      -0.002243       0.000601
  17      -0.001860       0.002363      -0.001014
  18       0.002195       0.006677       0.000368
  19       0.002274      -0.006463       0.000710
  20      -0.007051       0.004554       0.001067
  21      -0.001628      -0.003702      -0.008426
  22       0.002065       0.002741       0.007525
  23      -0.002161      -0.006582      -0.003777
  24       0.002835      -0.000684      -0.001920
  25       0.005517      -0.004193       0.000773
---------------------------------------------------
 Number of fixed atoms: 0
 Gradient time:  CPU 710.36 s  wall 59.95 s
 Geometry Optimization Parameters
   NAtoms,    NIC,     NZ,  NCons,   NDum,   NFix, NCnnct, MaxDiis
       25     170       0       0       0       0       0       0


** GEOMETRY OPTIMIZATION IN DELOCALIZED INTERNAL COORDINATES **
   Searching for a Minimum

   Optimization Cycle:   1

                       Coordinates (Angstroms)
     ATOM                X               Y               Z
      1  C         2.5409564419   -0.2511675960   -0.3837335790
      2  O         1.6515150325    0.6772307099   -0.9251000210
      3  C         3.0726553026    0.3617393289    0.9225358353
      4  O         2.0890607984    0.3698751711    1.8919056686
      5  C         3.7030194325    1.7376544219    0.8433039936
      6  C         4.9099532542    1.8328849259   -0.0792473840
      7  O         4.4015030739    1.8341941050   -1.4182417393
      8  O         5.4179681655    1.3211705759   -2.2918076034
      9  C         5.7137876166    3.1067998432    0.1867988426
     10  O         6.3231708473    2.9156517888    1.4441856548
     11  O         6.6574361902    3.3671415135   -0.8243163074
     12  H         5.1656833765    0.3784191398   -2.3340221365
     13  H         1.4022744008    0.3534489198   -1.8072696585
     14  H         4.0092065080    2.0116970031    1.8569209492
     15  H         2.9341969956    2.4481446972    0.5241417375
     16  H         5.5727448222    0.9681105330    0.0430283434
     17  H         5.0534819389    3.9814645891    0.1953135818
     18  H         6.6885984588    3.7724802949    1.7199776364
     19  H         7.1677520466    2.5498659659   -0.9608128550
     20  O         1.8105071679   -1.4219565637   -0.0590848655
     21  O         4.1247918001   -0.6306881414    1.3051203602
     22  O         4.6021061419   -0.3782717009    2.4977742484
     23  H         1.5559769942   -0.4363728845    1.7308571161
     24  H         3.3642697271   -0.4936984846   -1.0652954783
     25  H         2.4404568656   -2.1594792559    0.0139340598
   Point Group: c1    Number of degrees of freedom:    69


   Energy is   -874.032396640


 Attempting to generate delocalized internal coordinates
 Initial Hessian constructed with Jon Baker's OPTIMIZE code

 69 Hessian modes will be used to form the next step
  Hessian Eigenvalues:
     0.002935    0.004184    0.004464    0.005258    0.006252    0.007127
     0.011375    0.013312    0.014285    0.014675    0.016303    0.018157
     0.036365    0.045103    0.046016    0.050414    0.051315    0.056473
     0.057478    0.062288    0.066298    0.070053    0.073349    0.087752
     0.091711    0.092940    0.095942    0.124849    0.160000    0.160000
     0.160000    0.160000    0.160000    0.160000    0.163982    0.176757
     0.179637    0.184554    0.186295    0.195276    0.200275    0.207534
     0.220041    0.250000    0.250000    0.287185    0.294570    0.301630
     0.308029    0.327914    0.340841    0.341296    0.341336    0.343071
     0.343839    0.402652    0.406633    0.428179    0.439575    0.444255
     0.464543    0.489172    0.514095    0.520041    0.527414    0.528329
     0.529293    0.530778    0.647054

 Minimum search - taking simple RFO step
 Searching for Lamda that Minimizes Along All modes
 Value Taken    Lamda =  -0.00210188
 Step Taken.  Stepsize is  0.208600

                             Maximum     Tolerance    Cnvgd?
         Gradient           0.009524      0.000300      NO
         Displacement       0.050574      0.001200      NO
         Energy change     *********      0.000001      NO


 New Cartesian Coordinates Obtained by Inverse Iteration

 Displacement from previous Coordinates is:  0.434192
 ----------------------------------------------------------------
             Standard Nuclear Orientation (Angstroms)
    I     Atom           X                Y                Z
 ----------------------------------------------------------------
    1      C       2.5371750197    -0.2488175552    -0.3849340361
    2      O       1.6096575811     0.6460562711    -0.9170075083
    3      C       3.0725376579     0.3756965189     0.9160031582
    4      O       2.0998335924     0.3991488552     1.8961283412
    5      C       3.7052119309     1.7469154146     0.8204088556
    6      C       4.9204816268     1.8345466537    -0.0860182141
    7      O       4.4239935167     1.8367592732    -1.4272986067
    8      O       5.3971262420     1.2468279664    -2.2947543273
    9      C       5.7187172764     3.1057729839     0.2023747467
   10      O       6.3170827240     2.9104321299     1.4634069304
   11      O       6.6828260606     3.3808174928    -0.7847905851
   12      H       5.0714488425     0.3360669568    -2.3680097442
   13      H       1.3609951744     0.3332232728    -1.7958015530
   14      H       4.0008738051     2.0305721356     1.8289074120
   15      H       2.9440172954     2.4529060315     0.4899348679
   16      H       5.5755838549     0.9702012500     0.0423807334
   17      H       5.0600705361     3.9758175094     0.2174135928
   18      H       6.6718283352     3.7552328873     1.7652558349
   19      H       7.2063426592     2.5828238598    -0.9380222572
   20      O       1.8549215587    -1.4504798712    -0.0734082215
   21      O       4.1256240437    -0.6129291108     1.3013416010
   22      O       4.6190297002    -0.3660725526     2.4812801076
   23      H       1.5490719228    -0.3942609527     1.7826181817
   24      H       3.3538412407    -0.4579819367    -1.0768893064
   25      H       2.4947812026    -2.1729365836    -0.0336536037
 ----------------------------------------------------------------
 Nuclear Repulsion Energy =        1080.83969732 hartrees
 There are       57 alpha and       56 beta electrons
 Discretize the solute cavity surface with Lebedev spheres
	Using 110 Lebedev grid points for each H atom
	Using 194 Lebedev grid points for other atoms
	Atomic van der Waals radii will be scaled by 1.20
 Remove points where switching function is < 1.0e-08
 Keep 1961 surface tesserae and discard 1965 interior tesserae
 Molecular Surface Area = 212.156 Angst**2
 Applying Cartesian multipole field
    Component          Value
    ---------          -----
     (2,0,0)        1.00000E-12
     (0,2,0)        2.00000E-11
     (0,0,2)       -3.00000E-11
 Nucleus-field energy     =     0.0000000121 hartrees
 Requested basis set is 6-311++G(2df,2p)
 There are 178 shells and 586 basis functions
 A cutoff of  1.0D-12 yielded  13137 shell pairs
 There are    139082 function pairs (    171904 Cartesian)
 Smallest overlap matrix eigenvalue = 3.83E-06
 Guess MOs from SCF MO coefficient file

 -----------------------------------------------------------------------
  General SCF calculation program by
  Eric Jon Sundstrom, Paul Horn, Yuezhi Mao, Dmitri Zuev, Alec White,
  David Stuck, Shaama M.S., Shane Yost, Joonho Lee, David Small,
  Daniel Levine, Susi Lehtola, Hugh Burton, Evgeny Epifanovsky,
  Bang C. Huynh
 -----------------------------------------------------------------------
 Exchange:     0.1500 Hartree-Fock + 1.0000 wB97M-V + LR-HF
 Correlation:  1.0000 wB97M-V
 Using SG-2 standard quadrature grid
 Nonlocal Correlation:  VV10 with C = 0.0100 and b = 6.00 and scale = 1.00000
 Grid used for NLC:  SG-1 standard quadrature
 
 Citation of the SMD model:
 Marenich, A.V.; Cramer, C.J.; Truhlar, D.G.
 J. Phys. Chem. B 2009, 113, 6378-6396.
 iSolventCode=           1
 Solvent: water                                                           
 
 vradii
            1           2           3           4           5           6
    1   1.8500000   1.5200000   1.8500000   1.5200000   1.8500000   1.8500000
            7           8           9          10          11          12
    1   1.5200000   1.5200000   1.8500000   1.5200000   1.5200000   1.2000000
           13          14          15          16          17          18
    1   1.2000000   1.2000000   1.2000000   1.2000000   1.2000000   1.2000000
           19          20          21          22          23          24
    1   1.2000000   1.5200000   1.5200000   1.5200000   1.2000000   1.2000000
           25
    1   1.2000000
 -------------------------------------------------------
 OpenMP BLAS3 based DFT computing Module                
 Release: version 1.0, May 2013, Q-Chem Inc. Pittsburgh 
 -------------------------------------------------------
 A unrestricted SCF calculation will be
 performed using Roothaan-Hall, DIIS, GDM
 SCF converges when RMS gradient is below 1.0e-07
 ---------------------------------------
  Cycle       Energy         DIIS error
 ---------------------------------------
    1    -873.9622015334      2.65e-04  Roothaan Step
 ---------------------------------------
  Cycle       Energy         DIIS error
 ---------------------------------------
    1    -874.0245441249      2.50e-04  
    2    -874.0336101394      2.32e-04  Done DIIS. Switching to GDM
 ---------------------------------------
  Cycle       Energy        RMS Gradient
 ---------------------------------------
    1    -874.0336101394      2.42e-02   Normal BFGS step
    2    -874.0301244388      3.86e-02  Line search: overstep
    3    -874.0394782797      4.43e-03   Normal BFGS step
    4    -874.0398272089      1.06e-03   Normal BFGS step
    5    -874.0399145608      1.22e-03   Normal BFGS step
    6    -874.0399315259      4.57e-04   Normal BFGS step
    7    -874.0399332243      3.19e-04   Normal BFGS step
    8    -874.0399339238      1.32e-04   Normal BFGS step
    9    -874.0399341217      2.12e-05   Normal BFGS step
   10    -874.0399341453      9.13e-06   Normal BFGS step
   11    -874.0399341519      4.63e-06   Normal BFGS step
   12    -874.0399341527      2.18e-06   Normal BFGS step
   13    -874.0399341530      1.81e-06   Normal BFGS step
   14    -874.0399341531      1.53e-06   Normal BFGS step
   15    -874.0399341531      1.27e-06   Normal BFGS step
   16    -874.0399341531      1.06e-06   Normal BFGS step
   17    -874.0399341531      6.85e-07   Normal BFGS step
   18    -874.0399341531      4.01e-07   Normal BFGS step
   19    -874.0399341531      2.62e-07   Normal BFGS step
   20    -874.0399341531      1.10e-07   Normal BFGS step
  GDM::WARNING energy changes are now smaller than effective accuracy.
  GDM::        calculation will continue, but THRESH should be increased
  GDM::        or SCF_CONVERGENCE decreased. 
  GDM::        effective_thresh = 5.98e-09
   21    -874.0399341530      2.78e-08  Convergence criterion met
 ---------------------------------------
 SCF time:   CPU 5435.42s  wall 380.00s 
<S^2> =          0.753895851
(3)  G-ENP(liq) elect-nuc-pol free energy of system     -874.039934153 a.u.
(4)  G-CDS(liq) cavity-dispersion-solvent structure 
     free energy                                                4.1618 kcal/mol
(6)  G-S(liq) free energy of system                     -874.033301930 a.u.
 SCF   energy in the final basis set =     -874.0333019295
 Total energy in the final basis set =     -874.0333019295
 
 --------------------------------------------------------------
 
                    Orbital Energies (a.u.)
 --------------------------------------------------------------
 
 Alpha MOs
 -- Occupied --
-19.4615 -19.4222 -19.4035 -19.3961 -19.3636 -19.3551 -19.3539 -19.3462
-19.3453 -10.4729 -10.4598 -10.4461 -10.4058 -10.3539  -1.3473  -1.2692
 -1.2222  -1.2018  -1.1868  -1.1446  -1.1348  -1.0558  -1.0138  -0.9129
 -0.8513  -0.8099  -0.7534  -0.7193  -0.6884  -0.6784  -0.6657  -0.6592
 -0.6507  -0.6377  -0.6222  -0.6095  -0.5908  -0.5851  -0.5695  -0.5491
 -0.5412  -0.5330  -0.5283  -0.5039  -0.4829  -0.4726  -0.4707  -0.4596
 -0.4553  -0.4331  -0.4310  -0.4182  -0.4118  -0.4047  -0.3997  -0.3948
 -0.3855
 -- Virtual --
  0.0251   0.0332   0.0364   0.0431   0.0557   0.0587   0.0625   0.0670
  0.0816   0.0844   0.0949   0.1016   0.1150   0.1219   0.1246   0.1334
  0.1360   0.1425   0.1453   0.1515   0.1548   0.1557   0.1615   0.1630
  0.1730   0.1743   0.1759   0.1811   0.1979   0.2026   0.2084   0.2104
  0.2145   0.2252   0.2272   0.2437   0.2505   0.2546   0.2589   0.2620
  0.2678   0.2706   0.2764   0.2857   0.2886   0.2964   0.3013   0.3032
  0.3092   0.3125   0.3147   0.3232   0.3238   0.3314   0.3359   0.3365
  0.3443   0.3488   0.3536   0.3564   0.3638   0.3664   0.3701   0.3744
  0.3791   0.3817   0.3867   0.3924   0.3965   0.4054   0.4055   0.4101
  0.4175   0.4228   0.4280   0.4290   0.4328   0.4413   0.4512   0.4557
  0.4607   0.4653   0.4689   0.4739   0.4843   0.4902   0.5091   0.5166
  0.5258   0.5361   0.5500   0.5882   0.5951   0.6062   0.6185   0.6266
  0.6298   0.6377   0.6427   0.6478   0.6667   0.6682   0.6774   0.6852
  0.6989   0.7065   0.7171   0.7204   0.7301   0.7419   0.7495   0.7622
  0.7676   0.7765   0.7888   0.7911   0.8003   0.8172   0.8470   0.8572
  0.8794   0.8848   0.8863   0.8937   0.9167   0.9258   0.9473   0.9578
  0.9687   0.9792   0.9965   1.0032   1.0265   1.0417   1.0549   1.0648
  1.0750   1.0843   1.0961   1.1016   1.1128   1.1199   1.1325   1.1387
  1.1503   1.1559   1.1627   1.1716   1.1721   1.1780   1.1933   1.1973
  1.2022   1.2094   1.2154   1.2263   1.2297   1.2338   1.2489   1.2538
  1.2594   1.2623   1.2640   1.2785   1.2812   1.2945   1.3039   1.3110
  1.3149   1.3323   1.3413   1.3619   1.3654   1.3684   1.3890   1.4064
  1.4094   1.4310   1.4320   1.4405   1.4488   1.4647   1.4807   1.4901
  1.4997   1.5072   1.5132   1.5208   1.5284   1.5345   1.5428   1.5507
  1.5601   1.5658   1.5749   1.5922   1.5986   1.6214   1.6301   1.6408
  1.6596   1.6621   1.6683   1.6836   1.7048   1.7176   1.7275   1.7431
  1.7507   1.7532   1.7793   1.7958   1.8111   1.8186   1.8324   1.8348
  1.8544   1.8586   1.8834   1.9006   1.9235   1.9448   1.9596   1.9752
  1.9777   1.9894   2.0043   2.0238   2.0493   2.0747   2.1062   2.1363
  2.1503   2.1814   2.2066   2.2202   2.2410   2.2575   2.2685   2.2928
  2.3135   2.3253   2.3351   2.3518   2.3624   2.3797   2.4070   2.4195
  2.4254   2.4387   2.4442   2.4653   2.4677   2.4824   2.5089   2.5434
  2.5563   2.5895   2.6057   2.6811   2.7101   2.7428   2.7536   2.7711
  2.7980   2.8125   2.8318   2.8600   2.8680   2.8785   2.8947   2.9262
  2.9602   2.9688   2.9989   3.0408   3.0632   3.0857   3.1140   3.1475
  3.1537   3.1712   3.1975   3.2067   3.2212   3.2417   3.2578   3.2857
  3.3351   3.3531   3.3710   3.3748   3.3894   3.4325   3.4416   3.4754
  3.4784   3.4957   3.5250   3.5268   3.5458   3.5736   3.5868   3.6180
  3.6293   3.6439   3.6474   3.6740   3.6816   3.6953   3.7219   3.7310
  3.7442   3.7519   3.7723   3.7927   3.7992   3.8116   3.8214   3.8432
  3.8585   3.8656   3.8687   3.8847   3.8937   3.8944   3.9131   3.9324
  3.9402   3.9513   3.9681   3.9757   3.9846   4.0003   4.0241   4.0460
  4.0581   4.0994   4.1032   4.1218   4.1326   4.1760   4.1952   4.2058
  4.2109   4.2332   4.2451   4.2602   4.2735   4.2845   4.3046   4.3201
  4.3366   4.3604   4.3690   4.3875   4.4011   4.4220   4.4358   4.4655
  4.4812   4.4994   4.5346   4.5416   4.5733   4.5869   4.5938   4.6291
  4.6416   4.6683   4.6895   4.7005   4.7499   4.7730   4.8047   4.8181
  4.8526   4.8837   4.9171   4.9827   4.9937   5.0197   5.0529   5.0782
  5.0963   5.1040   5.1289   5.1833   5.1973   5.2053   5.2197   5.2437
  5.2458   5.2559   5.2646   5.2795   5.2842   5.2899   5.2972   5.3079
  5.3117   5.3295   5.3354   5.3419   5.3460   5.3615   5.3659   5.3798
  5.3882   5.4055   5.4259   5.4308   5.4502   5.4644   5.4726   5.4963
  5.5039   5.5173   5.5281   5.5399   5.5531   5.5707   5.5777   5.6027
  5.6176   5.6194   5.6250   5.6286   5.6346   5.6523   5.6754   5.6818
  5.6878   5.7105   5.7352   5.7573   5.7720   5.7864   5.8229   5.8233
  5.8784   5.9050   5.9403   5.9853   6.0119   6.0272   6.0733   6.0844
  6.1159   6.1248   6.1387   6.1516   6.2505   6.3569   6.4698   6.5386
  6.5704   6.6034   6.6490   6.7598   6.7703   6.8025   6.8579   6.8839
  6.8974   6.9793   7.0202   7.0506   7.0566   7.0757   7.0920   7.1166
  7.1456   7.1508   7.1712   7.1844   7.2434   7.2605   7.2655   7.2709
  7.2832   7.2928   7.3137   7.3200   7.3349   7.3399   7.3521   7.3795
  7.3875   7.4006   7.4130   7.4224   7.4462   7.4598   7.4875   7.5382
  7.5402   7.5656   7.6298   7.6633   7.6965   7.7154   7.7463   7.7564
  7.7827   7.8079   7.8485   7.8606   7.9062   7.9194   7.9542   7.9888
  8.1170   8.1484   8.1980  24.6569  24.7076  24.8026  24.8351  24.8654
 50.4413  50.5150  50.5699  50.5960  50.6114  50.6341  50.6392  50.6626
 50.7061
 
 Beta MOs
 -- Occupied --
-19.4514 -19.4035 -19.4031 -19.3961 -19.3634 -19.3552 -19.3539 -19.3462
-19.3453 -10.4733 -10.4598 -10.4461 -10.4058 -10.3537  -1.3218  -1.2692
 -1.2211  -1.2018  -1.1857  -1.1445  -1.1348  -1.0555  -0.9851  -0.9070
 -0.8466  -0.8091  -0.7524  -0.7141  -0.6857  -0.6752  -0.6644  -0.6557
 -0.6419  -0.6333  -0.6178  -0.5849  -0.5774  -0.5759  -0.5642  -0.5483
 -0.5361  -0.5285  -0.5148  -0.4941  -0.4817  -0.4715  -0.4689  -0.4583
 -0.4526  -0.4328  -0.4296  -0.4177  -0.4101  -0.3991  -0.3863  -0.3813
 -- Virtual --
 -0.0339   0.0252   0.0333   0.0365   0.0433   0.0557   0.0590   0.0627
  0.0674   0.0817   0.0848   0.0951   0.1018   0.1155   0.1227   0.1254
  0.1338   0.1364   0.1434   0.1459   0.1519   0.1552   0.1563   0.1622
  0.1634   0.1744   0.1755   0.1762   0.1829   0.1985   0.2043   0.2094
  0.2108   0.2165   0.2256   0.2277   0.2455   0.2521   0.2554   0.2591
  0.2659   0.2696   0.2713   0.2770   0.2864   0.2895   0.2975   0.3016
  0.3034   0.3094   0.3138   0.3170   0.3237   0.3240   0.3322   0.3362
  0.3382   0.3453   0.3510   0.3548   0.3569   0.3641   0.3669   0.3712
  0.3748   0.3796   0.3820   0.3868   0.3928   0.3972   0.4059   0.4071
  0.4111   0.4178   0.4246   0.4283   0.4296   0.4337   0.4415   0.4515
  0.4564   0.4614   0.4656   0.4692   0.4748   0.4848   0.4913   0.5094
  0.5172   0.5263   0.5367   0.5508   0.5885   0.5953   0.6070   0.6187
  0.6268   0.6300   0.6378   0.6430   0.6480   0.6668   0.6684   0.6776
  0.6853   0.6992   0.7067   0.7173   0.7206   0.7304   0.7431   0.7499
  0.7625   0.7679   0.7767   0.7890   0.7917   0.8008   0.8173   0.8474
  0.8580   0.8805   0.8855   0.8875   0.8939   0.9169   0.9265   0.9478
  0.9591   0.9691   0.9796   0.9970   1.0037   1.0281   1.0431   1.0558
  1.0654   1.0757   1.0870   1.0966   1.1019   1.1133   1.1216   1.1371
  1.1402   1.1513   1.1567   1.1635   1.1741   1.1745   1.1799   1.1952
  1.2027   1.2034   1.2115   1.2167   1.2279   1.2334   1.2343   1.2505
  1.2562   1.2631   1.2654   1.2751   1.2798   1.2885   1.2953   1.3066
  1.3143   1.3162   1.3364   1.3449   1.3625   1.3662   1.3696   1.3898
  1.4072   1.4108   1.4329   1.4331   1.4428   1.4499   1.4661   1.4814
  1.4915   1.5003   1.5112   1.5144   1.5245   1.5357   1.5374   1.5442
  1.5524   1.5609   1.5667   1.5757   1.5938   1.6003   1.6225   1.6347
  1.6420   1.6600   1.6651   1.6745   1.6855   1.7067   1.7250   1.7307
  1.7453   1.7522   1.7700   1.7830   1.8033   1.8150   1.8220   1.8350
  1.8363   1.8552   1.8665   1.8863   1.9014   1.9264   1.9456   1.9603
  1.9760   1.9788   1.9905   2.0053   2.0269   2.0516   2.0765   2.1067
  2.1379   2.1545   2.1851   2.2076   2.2216   2.2442   2.2624   2.2741
  2.2990   2.3163   2.3280   2.3414   2.3573   2.3646   2.3812   2.4077
  2.4197   2.4261   2.4397   2.4469   2.4658   2.4697   2.4836   2.5095
  2.5439   2.5572   2.5911   2.6077   2.6815   2.7140   2.7433   2.7540
  2.7744   2.7984   2.8130   2.8320   2.8602   2.8681   2.8789   2.8961
  2.9273   2.9605   2.9692   2.9993   3.0416   3.0633   3.0860   3.1147
  3.1477   3.1540   3.1714   3.1979   3.2075   3.2218   3.2420   3.2580
  3.2860   3.3353   3.3532   3.3712   3.3754   3.3897   3.4327   3.4419
  3.4755   3.4786   3.4960   3.5252   3.5272   3.5460   3.5739   3.5869
  3.6180   3.6295   3.6442   3.6481   3.6741   3.6819   3.6954   3.7221
  3.7311   3.7444   3.7520   3.7726   3.7929   3.7992   3.8126   3.8215
  3.8433   3.8586   3.8657   3.8689   3.8850   3.8938   3.8944   3.9134
  3.9326   3.9404   3.9514   3.9684   3.9761   3.9848   4.0007   4.0241
  4.0466   4.0583   4.0997   4.1035   4.1224   4.1327   4.1761   4.1953
  4.2059   4.2112   4.2336   4.2453   4.2604   4.2736   4.2846   4.3051
  4.3203   4.3370   4.3606   4.3695   4.3880   4.4013   4.4223   4.4365
  4.4661   4.4817   4.5004   4.5373   4.5422   4.5762   4.5906   4.6015
  4.6375   4.6489   4.6730   4.6899   4.7022   4.7544   4.7871   4.8073
  4.8306   4.8535   4.8906   4.9252   4.9882   4.9979   5.0257   5.0636
  5.0806   5.1434   5.1514   5.1932   5.2011   5.2144   5.2167   5.2241
  5.2465   5.2555   5.2663   5.2800   5.2868   5.2886   5.2986   5.3033
  5.3128   5.3259   5.3357   5.3365   5.3460   5.3531   5.3648   5.3667
  5.3822   5.3892   5.4090   5.4297   5.4366   5.4517   5.4747   5.4774
  5.4979   5.5045   5.5202   5.5304   5.5435   5.5548   5.5726   5.5926
  5.6057   5.6178   5.6202   5.6273   5.6313   5.6358   5.6606   5.6760
  5.6841   5.6892   5.7114   5.7366   5.7589   5.7791   5.7967   5.8233
  5.8260   5.8799   5.9055   5.9414   5.9860   6.0170   6.0277   6.0740
  6.0846   6.1179   6.1250   6.1389   6.1522   6.2507   6.3676   6.5111
  6.5387   6.5773   6.6147   6.6494   6.7607   6.7736   6.8047   6.8587
  6.9635   6.9770   7.0205   7.0350   7.0545   7.0729   7.0769   7.0949
  7.1174   7.1488   7.1659   7.1776   7.2043   7.2516   7.2638   7.2661
  7.2720   7.2877   7.2935   7.3181   7.3207   7.3364   7.3405   7.3647
  7.3853   7.3955   7.4019   7.4172   7.4358   7.4573   7.4804   7.4944
  7.5399   7.5466   7.5771   7.6313   7.6634   7.6974   7.7155   7.7472
  7.7598   7.7881   7.8098   7.8492   7.8609   7.9063   7.9232   7.9573
  7.9889   8.1289   8.1669   8.1981  24.6569  24.7074  24.8027  24.8351
 24.8654  50.4539  50.5150  50.5752  50.5969  50.6120  50.6341  50.6400
 50.6646  50.7063
 --------------------------------------------------------------
 
          Ground-State Mulliken Net Atomic Charges

     Atom                 Charge (a.u.)    Spin (a.u.)
  --------------------------------------------------------
      1 C                    -0.033917      -0.001312
      2 O                    -0.408725      -0.000185
      3 C                     0.002449      -0.000751
      4 O                    -0.400754       0.001659
      5 C                    -0.628665       0.007042
      6 C                    -0.034639       0.004255
      7 O                    -0.066580       0.000195
      8 O                    -0.339756      -0.000132
      9 C                    -0.373819      -0.000610
     10 O                    -0.393625       0.000430
     11 O                    -0.466307       0.000120
     12 H                     0.345849      -0.000024
     13 H                     0.344866      -0.000171
     14 H                     0.291817       0.001529
     15 H                     0.315698      -0.000733
     16 H                     0.346927       0.000631
     17 H                     0.291434      -0.000043
     18 H                     0.339776      -0.000084
     19 H                     0.349476      -0.000030
     20 O                    -0.452917       0.003490
     21 O                     0.093976       0.303332
     22 O                    -0.188118       0.681895
     23 H                     0.354534       0.000106
     24 H                     0.368081      -0.000116
     25 H                     0.342938      -0.000490
  --------------------------------------------------------
  Sum of atomic charges =    -0.000000
  Sum of spin   charges =     1.000000

 -----------------------------------------------------------------
                    Cartesian Multipole Moments
 -----------------------------------------------------------------
    Charge (ESU x 10^10)
                -0.0000
    Dipole Moment (Debye)
         X       0.0053      Y      -3.5571      Z      -3.0844
       Tot       4.7081
    Quadrupole Moments (Debye-Ang)
        XX     -87.3732     XY     -12.4636     YY     -79.2600
        XZ      -7.6945     YZ      14.5841     ZZ     -90.9411
    Octopole Moments (Debye-Ang^2)
       XXX   -1047.7192    XXY    -139.4926    XYY    -327.4464
       YYY    -258.4854    XXZ     -33.9181    XYZ      91.2923
       YYZ      37.4914    XZZ    -389.7625    YZZ    -107.5394
       ZZZ     -80.6707
    Hexadecapole Moments (Debye-Ang^3)
      XXXX   -9768.0513   XXXY   -1754.4332   XXYY   -1904.8398
      XYYY   -1482.1253   YYYY   -1560.6563   XXXZ    -175.4956
      XXYZ     548.7253   XYYZ     273.9823   YYYZ     249.5773
      XXZZ   -2023.2258   XYZZ    -573.7550   YYZZ    -460.8799
      XZZZ    -235.9781   YZZZ      88.8970   ZZZZ   -1013.1448
 -----------------------------------------------------------------
 Calculating analytic gradient of the SCF energy
 Gradient of CDS energy
            1           2           3           4           5           6
    1  -0.0026900   0.0026066  -0.0033379   0.0035007  -0.0000462  -0.0000604
    2   0.0019767  -0.0024631   0.0000485   0.0000327   0.0000795   0.0000806
    3  -0.0016889   0.0016943   0.0033739  -0.0034228   0.0000974  -0.0000491
            7           8           9          10          11          12
    1   0.0000328  -0.0001274   0.0023301  -0.0007782  -0.0018297   0.0001108
    2  -0.0000780   0.0002742   0.0005732   0.0000634  -0.0006045  -0.0003344
    3   0.0000122   0.0001592  -0.0002615  -0.0016860   0.0017012  -0.0003340
           13          14          15          16          17          18
    1  -0.0002877   0.0001087  -0.0001264   0.0000425  -0.0001595   0.0002306
    2   0.0001524  -0.0000735   0.0000647  -0.0001002   0.0000604   0.0001960
    3  -0.0003909   0.0001317  -0.0001587   0.0000482  -0.0000481   0.0004203
           19          20          21          22          23          24
    1   0.0004784   0.0001796   0.0000389   0.0000020  -0.0003287   0.0001195
    2  -0.0000434   0.0005735   0.0001207  -0.0000354  -0.0001852   0.0001330
    3  -0.0001436   0.0000380   0.0000455  -0.0000018   0.0002646   0.0002212
           25
    1  -0.0000093
    2  -0.0005117
    3  -0.0000226
 Gradient of SCF Energy
            1           2           3           4           5           6
    1  -0.0169480   0.0018178   0.0032338   0.0033010   0.0008311  -0.0073763
    2   0.0074609   0.0076750  -0.0024479   0.0096406  -0.0063365   0.0098382
    3   0.0182050   0.0152763  -0.0054991   0.0053524   0.0003558  -0.0045861
            7           8           9          10          11          12
    1  -0.0031242   0.0079051   0.0064575  -0.0027708  -0.0031690  -0.0081706
    2   0.0036190   0.0207375  -0.0040597  -0.0125927   0.0106103  -0.0228679
    3   0.0007583  -0.0026627   0.0019015   0.0006063  -0.0036568   0.0012270
           13          14          15          16          17          18
    1  -0.0019766  -0.0004431   0.0002494   0.0053481  -0.0040118   0.0033855
    2  -0.0071900   0.0015556   0.0026534  -0.0096925   0.0041061   0.0118161
    3  -0.0162975  -0.0018568   0.0000571  -0.0009433   0.0030206   0.0032867
           19          20          21          22          23          24
    1   0.0048438  -0.0167682   0.0023289  -0.0009255  -0.0040017   0.0152359
    2  -0.0088527   0.0142499   0.0000205   0.0008760  -0.0087552  -0.0069113
    3   0.0011996  -0.0019091   0.0006440   0.0014791  -0.0012665  -0.0145475
           25
    1   0.0147480
    2  -0.0151526
    3  -0.0001443
 Max gradient component =       2.287E-02
 RMS gradient           =       8.276E-03
 Computing fast CPCM-SWIG gradient
 Updating gradient with PCM contributions...
 -- total gradient after adding PCM contribution --
---------------------------------------------------
  Atom         X              Y              Z     
---------------------------------------------------
   1       0.000384       0.001296      -0.000059
   2      -0.000530      -0.000055      -0.000330
   3       0.001251       0.000687      -0.000097
   4       0.000457       0.001471       0.001551
   5      -0.000043       0.000286      -0.000421
   6       0.000494       0.001173       0.000103
   7      -0.001900       0.000088       0.000957
   8       0.000950      -0.001234      -0.001336
   9      -0.000295      -0.000467      -0.000068
  10      -0.000252       0.000032      -0.000173
  11       0.000532       0.001293       0.001125
  12      -0.000393      -0.000733      -0.000097
  13      -0.000513      -0.000228      -0.000569
  14       0.000392      -0.000198      -0.000295
  15      -0.000016      -0.000011       0.000230
  16      -0.000165      -0.000612       0.000334
  17      -0.000232       0.000044       0.000277
  18       0.000608       0.000503       0.000248
  19       0.000432      -0.000417      -0.000324
  20      -0.001278      -0.000604      -0.000747
  21      -0.000571      -0.000243      -0.002086
  22       0.001210       0.000347       0.002694
  23      -0.001186      -0.001683      -0.000642
  24      -0.000019      -0.000094      -0.000596
  25       0.000685      -0.000638       0.000321
---------------------------------------------------
 Number of fixed atoms: 0
 Gradient time:  CPU 707.11 s  wall 59.16 s
 Geometry Optimization Parameters
   NAtoms,    NIC,     NZ,  NCons,   NDum,   NFix, NCnnct, MaxDiis
       25     170       0       0       0       0       0       0

 Cartesian Hessian Update
 Hessian updated using BFGS update


** GEOMETRY OPTIMIZATION IN DELOCALIZED INTERNAL COORDINATES **
   Searching for a Minimum

   Optimization Cycle:   2

                       Coordinates (Angstroms)
     ATOM                X               Y               Z
      1  C         2.5371750197   -0.2488175552   -0.3849340361
      2  O         1.6096575811    0.6460562711   -0.9170075083
      3  C         3.0725376579    0.3756965189    0.9160031582
      4  O         2.0998335924    0.3991488552    1.8961283412
      5  C         3.7052119309    1.7469154146    0.8204088556
      6  C         4.9204816268    1.8345466537   -0.0860182141
      7  O         4.4239935167    1.8367592732   -1.4272986067
      8  O         5.3971262420    1.2468279664   -2.2947543273
      9  C         5.7187172764    3.1057729839    0.2023747467
     10  O         6.3170827240    2.9104321299    1.4634069304
     11  O         6.6828260606    3.3808174928   -0.7847905851
     12  H         5.0714488425    0.3360669568   -2.3680097442
     13  H         1.3609951744    0.3332232728   -1.7958015530
     14  H         4.0008738051    2.0305721356    1.8289074120
     15  H         2.9440172954    2.4529060315    0.4899348679
     16  H         5.5755838549    0.9702012500    0.0423807334
     17  H         5.0600705361    3.9758175094    0.2174135928
     18  H         6.6718283352    3.7552328873    1.7652558349
     19  H         7.2063426592    2.5828238598   -0.9380222572
     20  O         1.8549215587   -1.4504798712   -0.0734082215
     21  O         4.1256240437   -0.6129291108    1.3013416010
     22  O         4.6190297002   -0.3660725526    2.4812801076
     23  H         1.5490719228   -0.3942609527    1.7826181817
     24  H         3.3538412407   -0.4579819367   -1.0768893064
     25  H         2.4947812026   -2.1729365836   -0.0336536037
   Point Group: c1    Number of degrees of freedom:    69


   Energy is   -874.033301930

 Hessian updated using BFGS update

 65 Hessian modes will be used to form the next step
  Hessian Eigenvalues:
     0.002935    0.004373    0.004586    0.005253    0.006147    0.007178
     0.013074    0.014176    0.014250    0.014705    0.016261    0.018115
     0.036454    0.045128    0.046229    0.050102    0.051159    0.056483
     0.057694    0.062297    0.066297    0.069412    0.074566    0.087743
     0.092375    0.093610    0.096148    0.124290    0.141549    0.160211
     0.170441    0.176032    0.180824    0.185625    0.193076    0.197932
     0.201001    0.208354    0.219715    0.249700    0.258110    0.290683
     0.293801    0.304597    0.309261    0.326895    0.336177    0.341059
     0.341355    0.343178    0.344676    0.395046    0.406089    0.427161
     0.439429    0.444145    0.462488    0.477041    0.492563    0.519011
     0.523923    0.527785    0.528968    0.530349    0.634732

 Minimum search - taking simple RFO step
 Searching for Lamda that Minimizes Along All modes
 Value Taken    Lamda =  -0.00067861
 Step Taken.  Stepsize is  0.171406

                             Maximum     Tolerance    Cnvgd?
         Gradient           0.004795      0.000300      NO
         Displacement       0.083280      0.001200      NO
         Energy change     -0.000905      0.000001      NO


 New Cartesian Coordinates Obtained by Inverse Iteration

 Displacement from previous Coordinates is:  0.527508
 ----------------------------------------------------------------
             Standard Nuclear Orientation (Angstroms)
    I     Atom           X                Y                Z
 ----------------------------------------------------------------
    1      C       2.5324757683    -0.2768681507    -0.3643408208
    2      O       1.6342045000     0.6264511586    -0.9285059682
    3      C       3.0643840976     0.3690084702     0.9237566699
    4      O       2.0916899712     0.4181583709     1.9014097875
    5      C       3.6983024330     1.7374321063     0.8059962428
    6      C       4.9138991052     1.8281193407    -0.0998748712
    7      O       4.4271288458     1.8655474255    -1.4423583881
    8      O       5.4343218360     1.3731614548    -2.3254296315
    9      C       5.7153308830     3.0906196610     0.2035535011
   10      O       6.3244794631     2.8741442429     1.4554387131
   11      O       6.6707701587     3.3700260229    -0.7902310002
   12      H       5.1735663012     0.4486264127    -2.4365232167
   13      H       1.3954347494     0.3083585135    -1.8049769196
   14      H       3.9883278831     2.0337410537     1.8109533564
   15      H       2.9373190724     2.4374529849     0.4674809267
   16      H       5.5703205077     0.9649587037     0.0116998179
   17      H       5.0621403437     3.9620703739     0.2362302125
   18      H       6.6758346030     3.7106935293     1.7745080639
   19      H       7.1894351218     2.5755676733    -0.9602960677
   20      O       1.8222911880    -1.4550468046    -0.0339740610
   21      O       4.1107831243    -0.6171573133     1.3286848680
   22      O       4.6139282095    -0.3472649788     2.4946046815
   23      H       1.5358716421    -0.3703761413     1.8206907621
   24      H       3.3525789277    -0.5177651865    -1.0380592199
   25      H       2.4382546640    -2.1933200238     0.0164289613
 ----------------------------------------------------------------
 Nuclear Repulsion Energy =        1080.58857721 hartrees
 There are       57 alpha and       56 beta electrons
 Discretize the solute cavity surface with Lebedev spheres
	Using 110 Lebedev grid points for each H atom
	Using 194 Lebedev grid points for other atoms
	Atomic van der Waals radii will be scaled by 1.20
 Remove points where switching function is < 1.0e-08
 Keep 1958 surface tesserae and discard 1968 interior tesserae
 Molecular Surface Area = 212.370 Angst**2
 Applying Cartesian multipole field
    Component          Value
    ---------          -----
     (2,0,0)        1.00000E-12
     (0,2,0)        2.00000E-11
     (0,0,2)       -3.00000E-11
 Nucleus-field energy     =     0.0000000118 hartrees
 Requested basis set is 6-311++G(2df,2p)
 There are 178 shells and 586 basis functions
 A cutoff of  1.0D-12 yielded  13129 shell pairs
 There are    138943 function pairs (    171701 Cartesian)
 Smallest overlap matrix eigenvalue = 3.90E-06
 Guess MOs from SCF MO coefficient file

 -----------------------------------------------------------------------
  General SCF calculation program by
  Eric Jon Sundstrom, Paul Horn, Yuezhi Mao, Dmitri Zuev, Alec White,
  David Stuck, Shaama M.S., Shane Yost, Joonho Lee, David Small,
  Daniel Levine, Susi Lehtola, Hugh Burton, Evgeny Epifanovsky,
  Bang C. Huynh
 -----------------------------------------------------------------------
 Exchange:     0.1500 Hartree-Fock + 1.0000 wB97M-V + LR-HF
 Correlation:  1.0000 wB97M-V
 Using SG-2 standard quadrature grid
 Nonlocal Correlation:  VV10 with C = 0.0100 and b = 6.00 and scale = 1.00000
 Grid used for NLC:  SG-1 standard quadrature
 
 Citation of the SMD model:
 Marenich, A.V.; Cramer, C.J.; Truhlar, D.G.
 J. Phys. Chem. B 2009, 113, 6378-6396.
 iSolventCode=           1
 Solvent: water                                                           
 
 vradii
            1           2           3           4           5           6
    1   1.8500000   1.5200000   1.8500000   1.5200000   1.8500000   1.8500000
            7           8           9          10          11          12
    1   1.5200000   1.5200000   1.8500000   1.5200000   1.5200000   1.2000000
           13          14          15          16          17          18
    1   1.2000000   1.2000000   1.2000000   1.2000000   1.2000000   1.2000000
           19          20          21          22          23          24
    1   1.2000000   1.5200000   1.5200000   1.5200000   1.2000000   1.2000000
           25
    1   1.2000000
 -------------------------------------------------------
 OpenMP BLAS3 based DFT computing Module                
 Release: version 1.0, May 2013, Q-Chem Inc. Pittsburgh 
 -------------------------------------------------------
 A unrestricted SCF calculation will be
 performed using Roothaan-Hall, DIIS, GDM
 SCF converges when RMS gradient is below 1.0e-07
 ---------------------------------------
  Cycle       Energy         DIIS error
 ---------------------------------------
    1    -873.9619938600      2.66e-04  Roothaan Step
 ---------------------------------------
  Cycle       Energy         DIIS error
 ---------------------------------------
    1    -874.0246040930      2.50e-04  
    2    -874.0337106822      2.30e-04  Done DIIS. Switching to GDM
 ---------------------------------------
  Cycle       Energy        RMS Gradient
 ---------------------------------------
    1    -874.0337106822      2.35e-02   Normal BFGS step
    2    -874.0305695483      3.75e-02  Line search: overstep
    3    -874.0394788378      4.36e-03   Normal BFGS step
    4    -874.0398260393      1.04e-03   Normal BFGS step
    5    -874.0399169050      1.21e-03   Normal BFGS step
    6    -874.0399340402      6.19e-04   Normal BFGS step
    7    -874.0399362055      5.65e-04   Normal BFGS step
    8    -874.0399375183      4.58e-04   Normal BFGS step
    9    -874.0399382623      3.15e-04   Normal BFGS step
   10    -874.0399386048      2.12e-04   Normal BFGS step
   11    -874.0399389094      1.22e-04   Normal BFGS step
   12    -874.0399391000      4.57e-05   Normal BFGS step
   13    -874.0399391518      2.28e-05   Normal BFGS step
   14    -874.0399391641      1.16e-05   Normal BFGS step
   15    -874.0399391659      4.06e-06   Normal BFGS step
   16    -874.0399391665      2.84e-06   Normal BFGS step
   17    -874.0399391665      1.52e-06   Normal BFGS step
   18    -874.0399391665      4.52e-07   Normal BFGS step
   19    -874.0399391666      1.82e-07   Normal BFGS step
   20    -874.0399391664      9.21e-08  Convergence criterion met
 ---------------------------------------
 SCF time:   CPU 5502.54s  wall 380.00s 
<S^2> =          0.753872686
(3)  G-ENP(liq) elect-nuc-pol free energy of system     -874.039939166 a.u.
(4)  G-CDS(liq) cavity-dispersion-solvent structure 
     free energy                                                4.2057 kcal/mol
(6)  G-S(liq) free energy of system                     -874.033236883 a.u.
 SCF   energy in the final basis set =     -874.0332368833
 Total energy in the final basis set =     -874.0332368833
 
 --------------------------------------------------------------
 
                    Orbital Energies (a.u.)
 --------------------------------------------------------------
 
 Alpha MOs
 -- Occupied --
-19.4616 -19.4215 -19.4032 -19.3953 -19.3630 -19.3545 -19.3534 -19.3456
-19.3438 -10.4725 -10.4590 -10.4452 -10.4053 -10.3539  -1.3499  -1.2710
 -1.2227  -1.2017  -1.1875  -1.1453  -1.1349  -1.0559  -1.0137  -0.9132
 -0.8518  -0.8108  -0.7545  -0.7202  -0.6892  -0.6800  -0.6665  -0.6591
 -0.6505  -0.6400  -0.6233  -0.6104  -0.5913  -0.5855  -0.5684  -0.5509
 -0.5402  -0.5324  -0.5280  -0.5037  -0.4830  -0.4728  -0.4703  -0.4599
 -0.4550  -0.4332  -0.4312  -0.4178  -0.4113  -0.4043  -0.3992  -0.3944
 -0.3844
 -- Virtual --
  0.0250   0.0333   0.0363   0.0429   0.0555   0.0587   0.0625   0.0670
  0.0817   0.0851   0.0937   0.1018   0.1161   0.1221   0.1252   0.1335
  0.1363   0.1428   0.1454   0.1520   0.1552   0.1565   0.1610   0.1636
  0.1727   0.1740   0.1754   0.1812   0.1982   0.2029   0.2084   0.2097
  0.2152   0.2256   0.2282   0.2453   0.2506   0.2572   0.2596   0.2622
  0.2683   0.2709   0.2761   0.2866   0.2893   0.2931   0.3012   0.3031
  0.3088   0.3131   0.3144   0.3233   0.3251   0.3313   0.3348   0.3373
  0.3454   0.3481   0.3534   0.3557   0.3645   0.3675   0.3699   0.3745
  0.3793   0.3809   0.3873   0.3934   0.3967   0.4038   0.4059   0.4098
  0.4179   0.4242   0.4278   0.4311   0.4325   0.4435   0.4528   0.4570
  0.4626   0.4648   0.4705   0.4726   0.4859   0.4914   0.5078   0.5156
  0.5257   0.5365   0.5483   0.5902   0.5960   0.6057   0.6203   0.6214
  0.6318   0.6385   0.6452   0.6503   0.6669   0.6700   0.6742   0.6897
  0.6993   0.7058   0.7160   0.7196   0.7286   0.7432   0.7465   0.7613
  0.7642   0.7762   0.7878   0.7926   0.8026   0.8116   0.8489   0.8555
  0.8799   0.8840   0.8907   0.8933   0.9208   0.9329   0.9489   0.9591
  0.9723   0.9801   0.9960   1.0033   1.0282   1.0430   1.0546   1.0621
  1.0707   1.0851   1.0933   1.1022   1.1126   1.1183   1.1276   1.1367
  1.1476   1.1525   1.1637   1.1707   1.1710   1.1773   1.1938   1.1969
  1.2043   1.2070   1.2142   1.2283   1.2320   1.2353   1.2505   1.2541
  1.2590   1.2623   1.2664   1.2786   1.2804   1.2928   1.3052   1.3122
  1.3170   1.3325   1.3436   1.3629   1.3682   1.3730   1.3847   1.4064
  1.4114   1.4305   1.4354   1.4419   1.4485   1.4639   1.4803   1.4940
  1.5002   1.5037   1.5127   1.5197   1.5291   1.5378   1.5400   1.5556
  1.5619   1.5671   1.5789   1.5954   1.6057   1.6226   1.6332   1.6451
  1.6592   1.6646   1.6656   1.6847   1.7056   1.7155   1.7260   1.7381
  1.7515   1.7548   1.7774   1.7974   1.8110   1.8188   1.8244   1.8406
  1.8562   1.8600   1.8858   1.8964   1.9218   1.9451   1.9584   1.9779
  1.9804   1.9959   2.0046   2.0293   2.0409   2.0739   2.1058   2.1378
  2.1500   2.1792   2.2074   2.2255   2.2410   2.2579   2.2693   2.2946
  2.3099   2.3264   2.3335   2.3531   2.3609   2.3812   2.4029   2.4224
  2.4266   2.4370   2.4459   2.4647   2.4679   2.4875   2.5066   2.5411
  2.5524   2.5858   2.6021   2.6852   2.7118   2.7401   2.7584   2.7709
  2.7983   2.8141   2.8319   2.8609   2.8664   2.8840   2.8954   2.9261
  2.9577   2.9698   3.0031   3.0490   3.0589   3.0859   3.1181   3.1493
  3.1546   3.1789   3.2009   3.2070   3.2248   3.2440   3.2582   3.2886
  3.3362   3.3572   3.3699   3.3766   3.3951   3.4323   3.4387   3.4770
  3.4780   3.4965   3.5250   3.5307   3.5488   3.5729   3.5867   3.6169
  3.6329   3.6432   3.6476   3.6765   3.6807   3.6990   3.7204   3.7329
  3.7430   3.7542   3.7751   3.7901   3.7985   3.8094   3.8213   3.8467
  3.8571   3.8666   3.8724   3.8855   3.8963   3.9002   3.9144   3.9335
  3.9381   3.9504   3.9645   3.9781   3.9813   4.0021   4.0208   4.0483
  4.0632   4.1019   4.1069   4.1243   4.1345   4.1782   4.1989   4.2101
  4.2136   4.2335   4.2507   4.2667   4.2771   4.2893   4.3113   4.3262
  4.3413   4.3634   4.3732   4.3888   4.4080   4.4286   4.4426   4.4674
  4.4808   4.4979   4.5390   4.5436   4.5759   4.5915   4.5971   4.6300
  4.6418   4.6709   4.6884   4.7045   4.7510   4.7735   4.8084   4.8161
  4.8582   4.8855   4.9228   4.9879   4.9974   5.0208   5.0549   5.0780
  5.0961   5.1050   5.1293   5.1826   5.1982   5.2085   5.2183   5.2449
  5.2474   5.2575   5.2665   5.2810   5.2856   5.2867   5.2987   5.3069
  5.3131   5.3309   5.3381   5.3423   5.3483   5.3623   5.3660   5.3780
  5.3884   5.4095   5.4267   5.4312   5.4492   5.4676   5.4741   5.4990
  5.5039   5.5207   5.5298   5.5439   5.5581   5.5733   5.5789   5.6060
  5.6214   5.6256   5.6299   5.6333   5.6417   5.6547   5.6814   5.6824
  5.6913   5.7155   5.7447   5.7626   5.7783   5.7949   5.8219   5.8264
  5.8889   5.9091   5.9466   5.9891   6.0162   6.0351   6.0823   6.0957
  6.1255   6.1352   6.1432   6.1618   6.2621   6.3587   6.4864   6.5422
  6.5769   6.6195   6.6539   6.7628   6.7725   6.8062   6.8701   6.8877
  6.8986   6.9819   7.0205   7.0511   7.0590   7.0777   7.0940   7.1177
  7.1481   7.1527   7.1772   7.1881   7.2491   7.2691   7.2735   7.2767
  7.2945   7.2994   7.3164   7.3313   7.3384   7.3501   7.3572   7.3771
  7.3868   7.4075   7.4176   7.4256   7.4471   7.4607   7.4834   7.5403
  7.5467   7.5645   7.6335   7.6679   7.7010   7.7192   7.7472   7.7633
  7.7887   7.8125   7.8479   7.8617   7.9089   7.9189   7.9541   7.9910
  8.1190   8.1586   8.1989  24.6635  24.7125  24.8076  24.8467  24.8742
 50.4457  50.5167  50.5732  50.5964  50.6148  50.6373  50.6394  50.6604
 50.7067
 
 Beta MOs
 -- Occupied --
-19.4515 -19.4032 -19.4025 -19.3953 -19.3629 -19.3545 -19.3533 -19.3456
-19.3438 -10.4728 -10.4590 -10.4452 -10.4053 -10.3537  -1.3243  -1.2710
 -1.2217  -1.2017  -1.1864  -1.1452  -1.1349  -1.0557  -0.9852  -0.9073
 -0.8470  -0.8100  -0.7535  -0.7151  -0.6862  -0.6767  -0.6651  -0.6557
[...]
      3  C         3.0620789606    0.3811369657    0.9301258927
      4  O         2.0762214555    0.4240509636    1.8936722693
      5  C         3.6915815799    1.7519652094    0.8151355061
      6  C         4.9033557376    1.8321052106   -0.0972425296
      7  O         4.4005058080    1.8709237346   -1.4350548529
      8  O         5.3755052713    1.3223005795   -2.3212959808
      9  C         5.7258565586    3.0839960614    0.2036783852
     10  O         6.3447309196    2.8518093783    1.4480592892
     11  O         6.6716698318    3.3618852110   -0.8001995030
     12  H         5.0781214402    0.4028368192   -2.3995466351
     13  H         1.4350601087    0.3260166158   -1.8201718901
     14  H         3.9815104090    2.0560003960    1.8195674726
     15  H         2.9281414977    2.4486776249    0.4700119624
     16  H         5.5476244089    0.9568421861    0.0076924012
     17  H         5.0826240446    3.9640240330    0.2483720267
     18  H         6.6728763945    3.6929940439    1.7854577665
     19  H         7.1852975661    2.5615944215   -0.9692863117
     20  O         1.8785201587   -1.4649569288   -0.0472657441
     21  O         4.1101257744   -0.5981607039    1.3495888858
     22  O         4.5958472048   -0.3197465250    2.5224155925
     23  H         1.5436637778   -0.3825065557    1.8120657603
     24  H         3.3856621556   -0.4717088820   -1.0413570840
     25  H         2.5110289106   -2.1931114608   -0.0570490435
   Point Group: c1    Number of degrees of freedom:    69


   Energy is   -874.033552242

 Hessian updated using BFGS update

 69 Hessian modes will be used to form the next step
  Hessian Eigenvalues:
     0.002360    0.004793    0.005199    0.005523    0.006166    0.007932
     0.012311    0.013600    0.014570    0.015076    0.017850    0.018616
     0.039547    0.045467    0.046593    0.050785    0.052241    0.057889
     0.059201    0.063444    0.069762    0.072406    0.080942    0.087863
     0.092649    0.093275    0.099001    0.126165    0.159579    0.159966
     0.160123    0.160482    0.165563    0.167852    0.176331    0.180713
     0.183104    0.189540    0.195818    0.203060    0.210610    0.214370
     0.252455    0.271988    0.285795    0.292690    0.300777    0.311671
     0.326560    0.338810    0.340382    0.341329    0.343067    0.345028
     0.361294    0.395082    0.411826    0.433649    0.439730    0.445258
     0.462192    0.485191    0.500553    0.521323    0.524201    0.528145
     0.529065    0.530410    0.631410

 Minimum search - taking simple RFO step
 Searching for Lamda that Minimizes Along All modes
 Value Taken    Lamda =  -0.00000096
 Step Taken.  Stepsize is  0.011894

                             Maximum     Tolerance    Cnvgd?
         Gradient           0.000090      0.000300     YES
         Displacement       0.004377      0.001200      NO
         Energy change     -0.000001      0.000001     YES

 Final energy is   -874.033552242469     


 ******************************
 **  OPTIMIZATION CONVERGED  **
 ******************************

                       Coordinates (Angstroms)
     ATOM                X               Y               Z
      1  C         2.5538333358   -0.2642609420   -0.3671721806
      2  O         1.6316300896    0.6216314436   -0.9233350552
      3  C         3.0620789606    0.3811369657    0.9301258927
      4  O         2.0762214555    0.4240509636    1.8936722693
      5  C         3.6915815799    1.7519652094    0.8151355061
      6  C         4.9033557376    1.8321052106   -0.0972425296
      7  O         4.4005058080    1.8709237346   -1.4350548529
      8  O         5.3755052713    1.3223005795   -2.3212959808
      9  C         5.7258565586    3.0839960614    0.2036783852
     10  O         6.3447309196    2.8518093783    1.4480592892
     11  O         6.6716698318    3.3618852110   -0.8001995030
     12  H         5.0781214402    0.4028368192   -2.3995466351
     13  H         1.4350601087    0.3260166158   -1.8201718901
     14  H         3.9815104090    2.0560003960    1.8195674726
     15  H         2.9281414977    2.4486776249    0.4700119624
     16  H         5.5476244089    0.9568421861    0.0076924012
     17  H         5.0826240446    3.9640240330    0.2483720267
     18  H         6.6728763945    3.6929940439    1.7854577665
     19  H         7.1852975661    2.5615944215   -0.9692863117
     20  O         1.8785201587   -1.4649569288   -0.0472657441
     21  O         4.1101257744   -0.5981607039    1.3495888858
     22  O         4.5958472048   -0.3197465250    2.5224155925
     23  H         1.5436637778   -0.3825065557    1.8120657603
     24  H         3.3856621556   -0.4717088820   -1.0413570840
     25  H         2.5110289106   -2.1931114608   -0.0570490435

Z-matrix Print:
$molecule
0 2
O 
O  1 1.299601
C  1 1.494448 2 112.025780
O  3 1.379195 1 109.001129 2 -55.845589 0
H  4 0.969955 3 107.927609 1 -74.760908 0
C  3 1.512834 1 108.862653 2 62.703759 0
H  6 1.088751 3 107.080971 1 -66.708882 0
H  6 1.089660 3 108.174214 1 177.732234 0
C  6 1.518964 3 115.177194 1 54.784863 0
H  9 1.091869 6 111.759326 3 -39.789141 0
O  9 1.429723 6 106.433023 3 78.640368 0
O  11 1.427247 9 109.288463 6 -152.665640 0
H  12 0.969523 11 101.836715 9 95.584423 0
C  9 1.527839 6 110.756424 3 -161.123398 0
H  14 1.090961 9 110.586601 6 -48.763437 0
O  14 1.406967 9 112.531962 6 -166.393166 0
H  16 0.965852 14 108.586911 9 -51.142361 0
O  14 1.409042 9 105.984034 6 71.424781 0
H  18 0.963903 14 108.351680 9 -164.812931 0
C  3 1.535524 1 101.176473 2 -173.451850 0
H  20 1.090642 3 110.472145 1 -52.946039 0
O  20 1.394482 3 106.787955 1 -175.279004 0
H  22 0.964544 20 108.113893 3 168.613917 0
O  20 1.414234 3 108.892233 1 67.998777 0
H  24 0.964558 20 108.995997 3 -90.219330 0
$end

 
 --------------------------------------------------------------
 
                    Orbital Energies (a.u.)
 --------------------------------------------------------------
 
 Alpha MOs
 -- Occupied --
-19.4614 -19.4215 -19.4031 -19.3956 -19.3635 -19.3545 -19.3534 -19.3463
-19.3445 -10.4721 -10.4589 -10.4456 -10.4055 -10.3538  -1.3490  -1.2708
 -1.2223  -1.2016  -1.1875  -1.1450  -1.1351  -1.0552  -1.0134  -0.9128
 -0.8513  -0.8100  -0.7538  -0.7195  -0.6890  -0.6795  -0.6657  -0.6595
 -0.6500  -0.6387  -0.6226  -0.6098  -0.5910  -0.5858  -0.5684  -0.5505
 -0.5401  -0.5321  -0.5286  -0.5032  -0.4845  -0.4721  -0.4703  -0.4591
 -0.4548  -0.4342  -0.4303  -0.4177  -0.4117  -0.4044  -0.3994  -0.3948
 -0.3846
 -- Virtual --
  0.0250   0.0332   0.0365   0.0430   0.0555   0.0587   0.0629   0.0671
  0.0817   0.0851   0.0943   0.1023   0.1160   0.1221   0.1252   0.1335
  0.1362   0.1423   0.1453   0.1516   0.1547   0.1567   0.1611   0.1632
  0.1729   0.1733   0.1758   0.1806   0.1987   0.2024   0.2082   0.2105
  0.2153   0.2262   0.2288   0.2457   0.2509   0.2557   0.2592   0.2616
  0.2678   0.2712   0.2766   0.2859   0.2892   0.2973   0.3007   0.3026
  0.3089   0.3132   0.3147   0.3237   0.3270   0.3312   0.3360   0.3374
  0.3453   0.3487   0.3541   0.3555   0.3643   0.3668   0.3700   0.3748
  0.3784   0.3821   0.3869   0.3928   0.3977   0.4038   0.4059   0.4114
  0.4185   0.4235   0.4279   0.4301   0.4328   0.4410   0.4530   0.4574
  0.4613   0.4651   0.4701   0.4732   0.4844   0.4903   0.5080   0.5158
  0.5251   0.5366   0.5474   0.5897   0.5964   0.6058   0.6218   0.6245
  0.6312   0.6368   0.6427   0.6493   0.6662   0.6703   0.6780   0.6896
  0.6976   0.7073   0.7148   0.7214   0.7304   0.7408   0.7479   0.7629
  0.7672   0.7772   0.7857   0.7915   0.8026   0.8144   0.8485   0.8563
  0.8774   0.8867   0.8881   0.8921   0.9187   0.9302   0.9544   0.9562
  0.9715   0.9810   0.9962   1.0088   1.0305   1.0412   1.0536   1.0642
  1.0713   1.0816   1.0937   1.1014   1.1148   1.1201   1.1311   1.1376
  1.1501   1.1517   1.1625   1.1683   1.1714   1.1782   1.1938   1.1970
  1.2035   1.2075   1.2138   1.2279   1.2325   1.2376   1.2512   1.2528
  1.2604   1.2623   1.2658   1.2796   1.2812   1.2924   1.3006   1.3113
  1.3164   1.3352   1.3440   1.3622   1.3648   1.3753   1.3866   1.4030
  1.4155   1.4300   1.4333   1.4425   1.4469   1.4642   1.4810   1.4899
  1.4987   1.5085   1.5125   1.5221   1.5270   1.5361   1.5425   1.5517
  1.5606   1.5649   1.5779   1.5926   1.6044   1.6213   1.6332   1.6438
  1.6598   1.6616   1.6674   1.6839   1.7058   1.7167   1.7268   1.7413
  1.7539   1.7561   1.7767   1.7950   1.8104   1.8213   1.8288   1.8418
  1.8583   1.8611   1.8863   1.9004   1.9260   1.9410   1.9587   1.9744
  1.9844   1.9947   2.0108   2.0228   2.0480   2.0722   2.1101   2.1382
  2.1500   2.1800   2.2051   2.2229   2.2414   2.2587   2.2673   2.2926
  2.3127   2.3290   2.3306   2.3575   2.3667   2.3797   2.4059   2.4191
  2.4265   2.4399   2.4468   2.4627   2.4679   2.4852   2.5054   2.5362
  2.5528   2.5812   2.6079   2.6858   2.7106   2.7464   2.7573   2.7718
  2.7959   2.8131   2.8321   2.8596   2.8682   2.8818   2.8967   2.9329
  2.9618   2.9770   3.0030   3.0470   3.0622   3.0874   3.1180   3.1491
  3.1515   3.1754   3.1977   3.2053   3.2270   3.2378   3.2610   3.2890
  3.3379   3.3561   3.3723   3.3784   3.3960   3.4311   3.4399   3.4745
  3.4781   3.4964   3.5248   3.5298   3.5456   3.5746   3.5861   3.6217
  3.6325   3.6424   3.6505   3.6757   3.6802   3.6983   3.7225   3.7348
  3.7467   3.7545   3.7745   3.7875   3.8004   3.8109   3.8211   3.8461
  3.8553   3.8639   3.8711   3.8857   3.8944   3.8983   3.9122   3.9345
  3.9432   3.9547   3.9722   3.9762   3.9848   4.0038   4.0239   4.0458
  4.0603   4.1022   4.1048   4.1247   4.1347   4.1758   4.1972   4.2075
  4.2142   4.2325   4.2495   4.2609   4.2734   4.2862   4.3081   4.3217
  4.3387   4.3625   4.3631   4.3847   4.4002   4.4246   4.4419   4.4672
  4.4801   4.4979   4.5391   4.5441   4.5763   4.5882   4.5949   4.6314
  4.6486   4.6697   4.6909   4.7016   4.7528   4.7738   4.8079   4.8165
  4.8566   4.8869   4.9216   4.9890   4.9972   5.0200   5.0534   5.0763
  5.0959   5.1049   5.1290   5.1813   5.1971   5.2093   5.2186   5.2453
  5.2470   5.2555   5.2687   5.2813   5.2836   5.2875   5.3009   5.3070
  5.3144   5.3295   5.3357   5.3406   5.3470   5.3625   5.3652   5.3808
  5.3885   5.4119   5.4286   5.4336   5.4493   5.4697   5.4781   5.4984
  5.5041   5.5186   5.5271   5.5404   5.5566   5.5698   5.5806   5.5987
  5.6159   5.6204   5.6282   5.6343   5.6381   5.6552   5.6745   5.6782
  5.6854   5.7131   5.7412   5.7643   5.7773   5.7891   5.8208   5.8270
  5.8814   5.9047   5.9462   5.9904   6.0127   6.0291   6.0814   6.0947
  6.1246   6.1284   6.1464   6.1627   6.2592   6.3572   6.4815   6.5414
  6.5755   6.6135   6.6514   6.7615   6.7745   6.8049   6.8698   6.8869
  6.8991   6.9813   7.0207   7.0533   7.0584   7.0775   7.0954   7.1181
  7.1473   7.1506   7.1753   7.1865   7.2465   7.2634   7.2691   7.2721
  7.2891   7.2921   7.3159   7.3236   7.3360   7.3461   7.3534   7.3810
  7.3886   7.4029   7.4100   7.4279   7.4489   7.4632   7.4862   7.5398
  7.5437   7.5640   7.6307   7.6629   7.7006   7.7177   7.7467   7.7609
  7.7866   7.8105   7.8411   7.8592   7.9074   7.9188   7.9565   7.9924
  8.1187   8.1557   8.1985  24.6611  24.7101  24.8038  24.8422  24.8709
 50.4446  50.5158  50.5728  50.5972  50.6137  50.6344  50.6389  50.6627
 50.7084
 
 Beta MOs
 -- Occupied --
-19.4513 -19.4031 -19.4025 -19.3956 -19.3634 -19.3545 -19.3534 -19.3463
-19.3445 -10.4724 -10.4589 -10.4456 -10.4055 -10.3536  -1.3234  -1.2708
 -1.2212  -1.2016  -1.1864  -1.1449  -1.1351  -1.0550  -0.9849  -0.9068
 -0.8466  -0.8093  -0.7528  -0.7144  -0.6860  -0.6766  -0.6637  -0.6566
 -0.6418  -0.6338  -0.6181  -0.5856  -0.5777  -0.5754  -0.5635  -0.5493
 -0.5351  -0.5283  -0.5147  -0.4944  -0.4827  -0.4715  -0.4683  -0.4575
 -0.4525  -0.4340  -0.4288  -0.4172  -0.4101  -0.3998  -0.3854  -0.3805
 -- Virtual --
 -0.0330   0.0251   0.0332   0.0366   0.0431   0.0556   0.0590   0.0631
  0.0676   0.0818   0.0854   0.0945   0.1025   0.1165   0.1228   0.1260
  0.1338   0.1366   0.1433   0.1460   0.1520   0.1550   0.1572   0.1619
  0.1635   0.1737   0.1750   0.1762   0.1824   0.1994   0.2039   0.2091
  0.2110   0.2174   0.2267   0.2291   0.2471   0.2526   0.2564   0.2595
  0.2657   0.2697   0.2718   0.2772   0.2869   0.2902   0.2983   0.3009
  0.3029   0.3091   0.3150   0.3162   0.3239   0.3276   0.3323   0.3364
  0.3389   0.3462   0.3507   0.3552   0.3562   0.3645   0.3674   0.3711
  0.3754   0.3790   0.3824   0.3871   0.3932   0.3982   0.4047   0.4076
  0.4124   0.4189   0.4252   0.4287   0.4304   0.4334   0.4412   0.4533
  0.4583   0.4621   0.4653   0.4706   0.4740   0.4848   0.4913   0.5083
  0.5164   0.5255   0.5372   0.5482   0.5900   0.5966   0.6067   0.6219
  0.6249   0.6314   0.6370   0.6431   0.6495   0.6664   0.6704   0.6782
  0.6897   0.6979   0.7075   0.7150   0.7216   0.7309   0.7416   0.7483
  0.7632   0.7676   0.7774   0.7861   0.7921   0.8031   0.8144   0.8489
  0.8574   0.8779   0.8880   0.8895   0.8924   0.9190   0.9307   0.9546
  0.9576   0.9720   0.9815   0.9966   1.0093   1.0316   1.0434   1.0545
  1.0650   1.0720   1.0839   1.0943   1.1018   1.1153   1.1218   1.1360
  1.1383   1.1508   1.1532   1.1632   1.1708   1.1749   1.1794   1.1954
  1.2025   1.2055   1.2091   1.2152   1.2299   1.2348   1.2388   1.2532
  1.2560   1.2631   1.2668   1.2759   1.2807   1.2893   1.2934   1.3023
  1.3143   1.3175   1.3388   1.3479   1.3634   1.3653   1.3765   1.3873
  1.4041   1.4168   1.4311   1.4352   1.4446   1.4480   1.4657   1.4818
  1.4916   1.4992   1.5102   1.5157   1.5239   1.5379   1.5381   1.5432
  1.5530   1.5613   1.5658   1.5790   1.5938   1.6063   1.6228   1.6381
  1.6447   1.6603   1.6642   1.6739   1.6857   1.7081   1.7229   1.7312
  1.7430   1.7548   1.7731   1.7808   1.8025   1.8137   1.8242   1.8319
  1.8436   1.8597   1.8686   1.8893   1.9011   1.9285   1.9420   1.9599
  1.9752   1.9852   1.9957   2.0121   2.0257   2.0502   2.0739   2.1107
  2.1404   2.1530   2.1835   2.2065   2.2249   2.2438   2.2641   2.2712
  2.2999   2.3167   2.3302   2.3368   2.3633   2.3694   2.3814   2.4064
  2.4201   2.4268   2.4409   2.4494   2.4642   2.4688   2.4864   2.5060
  2.5367   2.5536   2.5825   2.6104   2.6863   2.7141   2.7467   2.7577
  2.7755   2.7962   2.8136   2.8323   2.8599   2.8684   2.8821   2.8981
  2.9339   2.9622   2.9773   3.0033   3.0479   3.0624   3.0877   3.1186
  3.1494   3.1518   3.1757   3.1982   3.2061   3.2276   3.2381   3.2612
  3.2892   3.3381   3.3562   3.3724   3.3792   3.3963   3.4312   3.4403
  3.4746   3.4784   3.4967   3.5251   3.5299   3.5458   3.5749   3.5862
  3.6218   3.6327   3.6428   3.6511   3.6758   3.6803   3.6985   3.7226
  3.7350   3.7470   3.7545   3.7749   3.7877   3.8004   3.8118   3.8211
  3.8462   3.8554   3.8641   3.8713   3.8859   3.8944   3.8984   3.9125
  3.9347   3.9433   3.9549   3.9727   3.9764   3.9850   4.0042   4.0240
  4.0464   4.0605   4.1025   4.1050   4.1254   4.1348   4.1759   4.1974
  4.2077   4.2144   4.2329   4.2498   4.2612   4.2736   4.2863   4.3086
  4.3219   4.3392   4.3627   4.3636   4.3852   4.4003   4.4249   4.4425
  4.4678   4.4805   4.4990   4.5415   4.5450   4.5803   4.5890   4.6056
  4.6441   4.6509   4.6745   4.6912   4.7030   4.7574   4.7876   4.8101
  4.8304   4.8578   4.8928   4.9297   4.9946   5.0007   5.0267   5.0642
  5.0791   5.1427   5.1518   5.1925   5.2024   5.2143   5.2173   5.2235
  5.2476   5.2552   5.2713   5.2795   5.2864   5.2900   5.2981   5.3078
  5.3152   5.3256   5.3348   5.3377   5.3453   5.3495   5.3661   5.3692
  5.3835   5.3898   5.4159   5.4317   5.4395   5.4509   5.4801   5.4828
  5.4994   5.5049   5.5224   5.5288   5.5434   5.5577   5.5716   5.5937
  5.6036   5.6163   5.6210   5.6302   5.6377   5.6397   5.6632   5.6759
  5.6791   5.6875   5.7141   5.7425   5.7657   5.7851   5.7989   5.8210
  5.8300   5.8828   5.9053   5.9473   5.9908   6.0183   6.0295   6.0824
  6.0950   6.1261   6.1289   6.1466   6.1636   6.2593   6.3680   6.5223
  6.5415   6.5832   6.6249   6.6520   6.7619   6.7783   6.8073   6.8711
  6.9661   6.9784   7.0210   7.0369   7.0584   7.0741   7.0789   7.0969
  7.1188   7.1501   7.1678   7.1809   7.2056   7.2567   7.2666   7.2697
  7.2732   7.2913   7.2930   7.3208   7.3241   7.3393   7.3467   7.3650
  7.3857   7.3981   7.4044   7.4179   7.4380   7.4597   7.4811   7.4951
  7.5434   7.5478   7.5759   7.6317   7.6631   7.7016   7.7180   7.7476
  7.7648   7.7914   7.8122   7.8422   7.8595   7.9074   7.9225   7.9596
  7.9926   8.1305   8.1743   8.1987  24.6612  24.7100  24.8039  24.8422
 24.8709  50.4572  50.5159  50.5782  50.5980  50.6141  50.6344  50.6398
 50.6647  50.7086
 --------------------------------------------------------------
 
          Ground-State Mulliken Net Atomic Charges

     Atom                 Charge (a.u.)    Spin (a.u.)
  --------------------------------------------------------
      1 C                    -0.029707      -0.000753
      2 O                    -0.412154      -0.000193
      3 C                     0.004847      -0.000897
      4 O                    -0.402668       0.001927
      5 C                    -0.618482       0.006851
      6 C                    -0.060219       0.003657
      7 O                    -0.070252       0.000175
      8 O                    -0.336832      -0.000142
      9 C                    -0.358555      -0.000874
     10 O                    -0.393775       0.000411
     11 O                    -0.462591       0.000100
     12 H                     0.346784       0.000016
     13 H                     0.344713      -0.000154
     14 H                     0.292692       0.001427
     15 H                     0.316401      -0.000708
     16 H                     0.348173       0.000758
     17 H                     0.291859      -0.000065
     18 H                     0.338514      -0.000073
     19 H                     0.348004      -0.000024
     20 O                    -0.456568       0.003855
     21 O                     0.092879       0.304672
     22 O                    -0.187452       0.680727
     23 H                     0.355590       0.000047
     24 H                     0.364146      -0.000051
     25 H                     0.344654      -0.000689
  --------------------------------------------------------
  Sum of atomic charges =    -0.000000
  Sum of spin   charges =     1.000000

 -----------------------------------------------------------------
                    Cartesian Multipole Moments
 -----------------------------------------------------------------
    Charge (ESU x 10^10)
                -0.0000
    Dipole Moment (Debye)
         X       0.1388      Y      -3.6682      Z      -3.1335
       Tot       4.8263
    Quadrupole Moments (Debye-Ang)
        XX     -87.2400     XY     -13.1731     YY     -79.5715
        XZ      -8.2233     YZ      15.1266     ZZ     -90.4040
    Octopole Moments (Debye-Ang^2)
       XXX   -1051.3066    XXY    -145.1723    XYY    -329.5468
       YYY    -261.8096    XXZ     -37.0753    XYZ      93.7084
       YYZ      38.8204    XZZ    -386.5277    YZZ    -107.3632
       ZZZ     -81.7580
    Hexadecapole Moments (Debye-Ang^3)
      XXXX   -9812.5531   XXXY   -1799.1145   XXYY   -1918.3703
      XYYY   -1498.8703   YYYY   -1560.2496   XXXZ    -193.7358
      XXYZ     561.5900   XYYZ     283.8053   YYYZ     260.8245
      XXZZ   -2005.2540   XYZZ    -569.5623   YYZZ    -460.8500
      XZZZ    -237.9019   YZZZ      97.5790   ZZZZ   -1026.9466
 -----------------------------------------------------------------
 Total job time:  4282.62s(wall), 60228.06s(cpu) 
 Sat Jun 22 20:18:01 2024

        *************************************************************
        *                                                           *
        *  Thank you very much for using Q-Chem.  Have a nice day.  *
        *                                                           *
        *************************************************************


