
Running Job 1 of 2 Q_in.in
qchem Q_in.in_217212.0 /scratch/ari.fischer/qChem2080889.hpc-mn1/qchem217212/ 0
/usr/local/qchem-5.4.1/exe/qcprog.exe_s Q_in.in_217212.0 /scratch/ari.fischer/qChem2080889.hpc-mn1/qchem217212/
                  Welcome to Q-Chem
     A Quantum Leap Into The Future Of Chemistry


 Q-Chem 5.4, Q-Chem, Inc., Pleasanton, CA (2021)

 License issued to: Nanyang Technological University (site)

 E. Epifanovsky,  A. T. B. Gilbert,  Xintian Feng,  Joonho Lee,  Yuezhi Mao,  
 N. Mardirossian,  P. Pokhilko,  A. White,  M. Wormit,  M. P. Coons,  
 A. L. Dempwolff,  Zhengting Gan,  D. Hait,  P. R. Horn,  L. D. Jacobson,  
 I. Kaliman,  J. Kussmann,  A. W. Lange,  Ka Un Lao,  D. S. Levine,  Jie Liu,  
 S. C. McKenzie,  A. F. Morrison,  K. Nanda,  F. Plasser,  D. R. Rehn,  
 M. L. Vidal,  Zhi-Qiang You,  Ying Zhu,  B. Alam,  B. Albrecht,  
 A. Aldossary,  E. Alguire,  J. H. Andersen,  D. Barton,  K. Begam,  A. Behn,  
 Y. A. Bernard,  E. J. Berquist,  H. Burton,  A. Carreras,  K. Carter-Fenk,  
 R. Chakraborty,  A. D. Chien,  K. D. Closser,  V. Cofer-Shabica,  
 S. Dasgupta,  Jia Deng,  M. de Wergifosse,  M. Diedenhofen,  Hainam Do,  
 S. Ehlert,  Po-Tung Fang,  S. Fatehi,  Qingguo Feng,  T. Friedhoff,  
 J. Gayvert,  Qinghui Ge,  G. Gidofalvi,  M. Goldey,  J. Gomes,  
 C. Gonzalez-Espinoza,  S. Gulania,  A. Gunina,  M. W. D. Hanson-Heine,  
 P. H. P. Harbach,  A. W. Hauser,  M. F. Herbst,  M. Hernandez Vera,  
 M. Hodecker,  Z. C. Holden,  S. Houck,  Xunkun Huang,  Kerwin Hui,  
 B. C. Huynh,  M. Ivanov,  Hyunjun Ji,  Hanjie Jiang,  B. Kaduk,  S. Kaehler,  
 K. Khistyaev,  Jaehoon Kim,  P. Klunzinger,  Z. Koczor-Benda,  
 Joong Hoon Koh,  D. Kosenkov,  L. Koulias,  T. Kowalczyk,  C. M. Krauter,  
 K. Kue,  A. Kunitsa,  T. Kus,  A. Landau,  K. V. Lawler,  D. Lefrancois,  
 S. Lehtola,  Rain Li,  Yi-Pei Li,  Jiashu Liang,  M. Liebenthal,  
 Hung-Hsuan Lin,  You-Sheng Lin,  Fenglai Liu,  Kuan-Yu Liu,  
 M. Loipersberger,  A. Luenser,  A. Manjanath,  P. Manohar,  E. Mansoor,  
 S. F. Manzer,  Shan-Ping Mao,  A. V. Marenich,  T. Markovich,  S. Mason,  
 S. A. Maurer,  P. F. McLaughlin,  M. F. S. J. Menger,  J.-M. Mewes,  
 S. A. Mewes,  P. Morgante,  J. W. Mullinax,  K. J. Oosterbaan,  G. Paran,  
 Alexander C. Paul,  Suranjan K. Paul,  F. Pavosevic,  Zheng Pei,  S. Prager,  
 E. I. Proynov,  E. Ramos,  B. Rana,  A. E. Rask,  A. Rettig,  R. M. Richard,  
 F. Rob,  E. Rossomme,  T. Scheele,  M. Scheurer,  M. Schneider,  
 N. Sergueev,  S. M. Sharada,  W. Skomorowski,  D. W. Small,  C. J. Stein,  
 Yu-Chuan Su,  E. J. Sundstrom,  Zhen Tao,  J. Thirman,  T. Tsuchimochi,  
 N. M. Tubman,  S. P. Veccham,  O. Vydrov,  J. Wenzel,  J. Witte,  A. Yamada,  
 Kun Yao,  S. Yeganeh,  S. R. Yost,  A. Zech,  Igor Ying Zhang,  Xing Zhang,  
 Yu Zhang,  D. Zuev,  A. Aspuru-Guzik,  A. T. Bell,  N. A. Besley,  
 K. B. Bravaya,  B. R. Brooks,  D. Casanova,  Jeng-Da Chai,  S. Coriani,  
 C. J. Cramer,  A. E. DePrince, III,  R. A. DiStasio Jr.,  A. Dreuw,  
 B. D. Dunietz,  T. R. Furlani,  W. A. Goddard III,  S. Grimme,  
 S. Hammes-Schiffer,  T. Head-Gordon,  W. J. Hehre,  Chao-Ping Hsu,  
 T.-C. Jagau,  Yousung Jung,  A. Klamt,  Jing Kong,  D. S. Lambrecht,  
 WanZhen Liang,  N. J. Mayhall,  C. W. McCurdy,  J. B. Neaton,  
 C. Ochsenfeld,  J. A. Parkhill,  R. Peverati,  V. A. Rassolov,  Yihan Shao,  
 L. V. Slipchenko,  T. Stauch,  R. P. Steele,  J. E. Subotnik,  
 A. J. W. Thom,  A. Tkatchenko,  D. G. Truhlar,  T. Van Voorhis,  
 T. A. Wesolowski,  K. B. Whaley,  H. L. Woodcock III,  P. M. Zimmerman,  
 S. Faraji,  P. M. W. Gill,  M. Head-Gordon,  J. M. Herbert,  A. I. Krylov

 Additional authors for Version 5.4.1: 
 S. Kotaru,  Shaozhi Li,  Xiangyuan Li,  F. Matz,  A. Molle,  Haisheng Ren,  
 Yingli Su,  Hung-Yi Tsai,  C. Utku,  Fang Wang

 Contributors to earlier versions of Q-Chem not listed above: 
 R. D. Adamson,  B. Austin,  R. Baer,  J. Baker,  G. J. O. Beran,  
 K. Brandhorst,  S. T. Brown,  E. F. C. Byrd,  A. K. Chakraborty,  
 G. K. L. Chan,  Chun-Min Chang,  Yunqing Chen,  C.-L. Cheng,  
 Siu Hung Chien,  D. M. Chipman,  D. L. Crittenden,  H. Dachsel,  
 R. J. Doerksen,  A. D. Dutoi,  R. G. Edgar,  J. Fosso-Tande,  
 L. Fusti-Molnar,  D. Ghosh,  A. Ghysels,  A. Golubeva-Zadorozhnaya,  
 J. Gonthier,  M. S. Gordon,  S. R. Gwaltney,  G. Hawkins,  J. E. Herr,  
 A. Heyden,  S. Hirata,  E. G. Hohenstein,  G. Kedziora,  F. J. Keil,  
 C. Kelley,  Jihan Kim,  R. A. King,  R. Z. Khaliullin,  P. P. Korambath,  
 W. Kurlancheek,  A. Laurent,  A. M. Lee,  M. S. Lee,  S. V. Levchenko,  
 Ching Yeh Lin,  D. Liotard,  E. Livshits,  R. C. Lochan,  I. Lotan,  
 L. A. Martinez-Martinez,  P. E. Maslen,  N. Nair,  D. P. O'Neill,  
 D. Neuhauser,  E. Neuscamman,  C. M. Oana,  R. Olivares-Amaya,  R. Olson,  
 T. M. Perrine,  B. Peters,  P. A. Pieniazek,  A. Prociuk,  Y. M. Rhee,  
 J. Ritchie,  M. A. Rohrdanz,  E. Rosta,  N. J. Russ,  H. F. Schaefer III,  
 M. W. Schmidt,  N. E. Schultz,  S. Sharma,  N. Shenvi,  C. D. Sherrill,  
 A. C. Simmonett,  A. Sodt,  T. Stein,  D. Stuck,  K. S. Thanthiriwatte,  
 V. Vanovschi,  L. Vogt,  Tao Wang,  A. Warshel,  M. A. Watson,  
 C. F. Williams,  Q. Wu,  X. Xu,  Jun Yang,  W. Zhang,  Yan Zhao

 Please cite Q-Chem as follows:
 Y. Shao et al., Mol. Phys. 113, 184-215 (2015)
 DOI: 10.1080/00268976.2014.952696

 Q-Chem 5.4.1 for Intel X86 EM64T Linux

 Parts of Q-Chem use Armadillo 9.800.1 (Horizon Scraper).
 http://arma.sourceforge.net/

 Q-Chem begins on Tue Apr 30 08:56:54 2024  

 Host: 
0

     Scratch files written to /scratch/ari.fischer/qChem2080889.hpc-mn1/qchem217212//
 Aug1521 |scratch|qcdevops|jenkins|workspace|build_RNUM 8249   
 Processing $rem in /usr/local/qchem-5.4.1/config/preferences:
 Processing $rem in /home/ari.fischer/.qchemrc:
 Symmetry turned off for PCM/SM12/SMD calculation


!!********************************************.
!!******************Warning*******************.
!!Desired Analytical derivatives not available.
!!Finite difference job might take a long time.
!!********************************************.
!!********************************************.


 2-order derivative to be evaluated numerically with 1-order analytical derivatives

 Checking the input file for inconsistencies... 	...done.

--------------------------------------------------------------
User input:
--------------------------------------------------------------
$molecule
0 2
H         0.6135298090    1.5053337005    1.9318278117
C         0.1015960107    1.4494939929    0.9811517894
C        -1.2882840998    1.5877843034    0.9313026822
H        -1.8423944469    1.7594740850    1.8439901262
C        -1.9675492913    1.4879736587   -0.2798451500
H        -3.0451492967    1.5738343491   -0.3033884476
C        -1.2638190258    1.2666300816   -1.4473329736
H        -1.7811367084    1.1718337996   -2.3923417805
C         0.1452643752    1.1924855645   -1.4205684830
H         0.6768378492    0.8555113243   -2.2973087516
C         0.8136113657    1.2333105429   -0.1763311701
H         1.8883997804    1.1181160216   -0.1492592103
O         0.4996649382    3.1777941893   -1.9769465298
H        -0.2079745594    3.2006939866   -2.6379585132
$end

$rem
BASIS = 6-311++G(2df,2p)
GUI = 2
JOB_TYPE = Frequency
METHOD = wB97M-V
SOLVENT_METHOD = SMD
SCF_ALGORITHM = DIIS_GDM
MAX_SCF_CYCLES = 400
SCF_CONVERGENCE = 7
THRESH = 12
$end

--------------------------------------------------------------
 ----------------------------------------------------------------
             Standard Nuclear Orientation (Angstroms)
    I     Atom           X                Y                Z
 ----------------------------------------------------------------
    1      H       0.6135298090     1.5053337005     1.9318278117
    2      C       0.1015960107     1.4494939929     0.9811517894
    3      C      -1.2882840998     1.5877843034     0.9313026822
    4      H      -1.8423944469     1.7594740850     1.8439901262
    5      C      -1.9675492913     1.4879736587    -0.2798451500
    6      H      -3.0451492967     1.5738343491    -0.3033884476
    7      C      -1.2638190258     1.2666300816    -1.4473329736
    8      H      -1.7811367084     1.1718337996    -2.3923417805
    9      C       0.1452643752     1.1924855645    -1.4205684830
   10      H       0.6768378492     0.8555113243    -2.2973087516
   11      C       0.8136113657     1.2333105429    -0.1763311701
   12      H       1.8883997804     1.1181160216    -0.1492592103
   13      O       0.4996649382     3.1777941893    -1.9769465298
   14      H      -0.2079745594     3.2006939866    -2.6379585132
 ----------------------------------------------------------------
 Nuclear Repulsion Energy =         275.09089267 hartrees
 There are       26 alpha and       25 beta electrons
 Requested basis set is 6-311++G(2df,2p)
 There are 98 shells and 308 basis functions

 Total QAlloc Memory Limit 288000 MB
 Mega-Array Size       188 MB
 MEM_STATIC part       192 MB
 
 Citation of the SMD model:
 Marenich, A.V.; Cramer, C.J.; Truhlar, D.G.
 J. Phys. Chem. B 2009, 113, 6378-6396.
 iSolventCode=           1
 Solvent: water                                                           
 
 vradii
            1           2           3           4           5           6
    1   1.2000000   1.8500000   1.8500000   1.2000000   1.8500000   1.2000000
            7           8           9          10          11          12
    1   1.8500000   1.2000000   1.8500000   1.2000000   1.8500000   1.2000000
           13          14
    1   1.5200000   1.2000000
 Changing PCM_VDW_RADII to SMD_RADIUS
 Discretize the solute cavity surface with Lebedev spheres
	Using 110 Lebedev grid points for each H atom
	Using 194 Lebedev grid points for other atoms
	Atomic van der Waals radii will be scaled by 1.20
 Remove points where switching function is < 1.0e-08
 Keep 1059 surface tesserae and discard 1069 interior tesserae
 Molecular Surface Area = 129.135 Angst**2

                       Distance Matrix (Angstroms)
             H (  1)   C (  2)   C (  3)   H (  4)   C (  5)   H (  6)
   C (  2)  1.081193
   C (  3)  2.150522  1.397632
   H (  4)  2.470600  2.149343  1.081441
   C (  5)  3.399083  2.423418  1.392208  2.144773
   H (  6)  4.287985  3.401104  2.147378  2.468262  1.081272
   C (  7)  3.873002  2.792013  2.400343  3.377936  1.381035  2.139187
   H (  8)  4.954199  3.873272  3.385636  4.277333  2.144140  2.474481
   C (  9)  3.399369  2.415827  2.782556  3.863885  2.419203  3.401802
   H ( 10)  4.279237  3.381127  3.849917  4.930927  3.385698  4.283094
   C ( 11)  2.135032  1.376033  2.402180  3.378300  2.794713  3.875840
   H ( 12)  2.471063  2.140165  3.388144  4.278225  3.875847  4.956949
   O ( 13)  4.253070  3.449033  3.766007  4.700684  3.438429  4.235468
   H ( 14)  4.942880  4.032430  4.063025  4.983604  3.404440  4.018265
             C (  7)   H (  8)   C (  9)   H ( 10)   C ( 11)   H ( 12)
   H (  8)  1.081502
   C (  9)  1.411287  2.157728
   H ( 10)  2.158154  2.480067  1.079257
   C ( 11)  2.435626  3.412799  1.412969  2.158700
   H ( 12)  3.412262  4.301140  2.158768  2.480113  1.081283
   O ( 13)  2.653849  3.065695  2.092034  2.350961  2.668669  3.084039
   H ( 14)  2.504596  2.579039  2.374809  2.529588  3.312679  3.863359
             O ( 13)
   H ( 14)  0.968615
 
 A cutoff of  1.0D-12 yielded   4616 shell pairs
 There are     46379 function pairs (     57728 Cartesian)
 Smallest overlap matrix eigenvalue = 1.07E-06
 Guess from superposition of atomic densities
 Warning:  Energy on first SCF cycle will be non-variational
 SAD guess density has 51.000000 electrons

 -----------------------------------------------------------------------
  General SCF calculation program by
  Eric Jon Sundstrom, Paul Horn, Yuezhi Mao, Dmitri Zuev, Alec White,
  David Stuck, Shaama M.S., Shane Yost, Joonho Lee, David Small,
  Daniel Levine, Susi Lehtola, Hugh Burton, Evgeny Epifanovsky,
  Bang C. Huynh
 -----------------------------------------------------------------------
 Exchange:     0.1500 Hartree-Fock + 1.0000 wB97M-V + LR-HF
 Correlation:  1.0000 wB97M-V
 Using SG-2 standard quadrature grid
 Nonlocal Correlation:  VV10 with C = 0.0100 and b = 6.00 and scale = 1.00000
 Grid used for NLC:  SG-1 standard quadrature
 using 16 threads for integral computing
 -------------------------------------------------------
 OpenMP Integral computing Module                
 Release: version 1.0, May 2013, Q-Chem Inc. Pittsburgh 
 -------------------------------------------------------
 
 Citation of the SMD model:
 Marenich, A.V.; Cramer, C.J.; Truhlar, D.G.
 J. Phys. Chem. B 2009, 113, 6378-6396.
 iSolventCode=           1
 Solvent: water                                                           
 
 vradii
            1           2           3           4           5           6
    1   1.2000000   1.8500000   1.8500000   1.2000000   1.8500000   1.2000000
            7           8           9          10          11          12
    1   1.8500000   1.2000000   1.8500000   1.2000000   1.8500000   1.2000000
           13          14
    1   1.5200000   1.2000000
 -------------------------------------------------------
 OpenMP BLAS3 based DFT computing Module                
 Release: version 1.0, May 2013, Q-Chem Inc. Pittsburgh 
 -------------------------------------------------------
 A unrestricted SCF calculation will be
 performed using DIIS, GDM
 SCF converges when RMS gradient is below 1.0e-07
 ---------------------------------------
  Cycle       Energy         DIIS error
 ---------------------------------------
    1    -309.8142154214      1.41e-02  
    2    -307.8506263212      1.57e-03  Done DIIS. Switching to GDM
 ---------------------------------------
  Cycle       Energy        RMS Gradient
 ---------------------------------------
    1    -307.8506263212      2.19e-01   Descent step
    2    -307.9441134399      3.20e-02   Normal BFGS step
    3    -307.9598453242      3.31e-02   Normal BFGS step
    4    -307.9629229943      2.28e-02   Normal BFGS step
    5    -307.9640954870      1.32e-02   Normal BFGS step
    6    -307.9649423582      3.31e-03   Normal BFGS step
    7    -307.9650501013      2.27e-03   Normal BFGS step
    8    -307.9650947250      1.61e-03   Normal BFGS step
    9    -307.9651051651      8.50e-04   Normal BFGS step
   10    -307.9651103200      3.64e-04   Normal BFGS step
   11    -307.9651117211      1.94e-04   Normal BFGS step
   12    -307.9651121161      1.47e-04   Normal BFGS step
   13    -307.9651122140      1.09e-04   Normal BFGS step
   14    -307.9651122490      6.93e-05   Normal BFGS step
   15    -307.9651122623      4.36e-05   Normal BFGS step
   16    -307.9651122718      2.11e-05   Normal BFGS step
   17    -307.9651122753      1.25e-05   Normal BFGS step
   18    -307.9651122761      3.89e-06   Normal BFGS step
   19    -307.9651122762      1.50e-06   Normal BFGS step
   20    -307.9651122762      9.53e-07   Normal BFGS step
   21    -307.9651122762      4.06e-07   Normal BFGS step
   22    -307.9651122761      2.26e-07   Normal BFGS step
   23    -307.9651122761      1.28e-07   Normal BFGS step
   24    -307.9651122762      5.24e-08  Convergence criterion met
 ---------------------------------------
 SCF time:   CPU 1541.37s  wall 105.00s 
<S^2> =          0.781406479
(3)  G-ENP(liq) elect-nuc-pol free energy of system     -307.965112276 a.u.
(4)  G-CDS(liq) cavity-dispersion-solvent structure 
     free energy                                                2.8630 kcal/mol
(6)  G-S(liq) free energy of system                     -307.960549718 a.u.
 SCF   energy in the final basis set =     -307.9605497185
 Total energy in the final basis set =     -307.9605497185
 
 --------------------------------------------------------------
 
                    Orbital Energies (a.u.)
 --------------------------------------------------------------
 
 Alpha MOs
 -- Occupied --
-19.3416 -10.3739 -10.3586 -10.3585 -10.3559 -10.3479 -10.3477  -1.0963
 -0.9922  -0.8805  -0.8783  -0.7296  -0.7250  -0.6426  -0.5736  -0.5678
 -0.5494  -0.5315  -0.5303  -0.5138  -0.4527  -0.4452  -0.4438  -0.4153
 -0.3589  -0.3235
 -- Virtual --
  0.0242   0.0369   0.0375   0.0556   0.0563   0.0577   0.0591   0.0598
  0.0838   0.0977   0.1120   0.1186   0.1376   0.1469   0.1573   0.1582
  0.1594   0.1614   0.1632   0.1668   0.1703   0.1776   0.1866   0.1905
  0.1911   0.1931   0.2093   0.2281   0.2287   0.2403   0.2530   0.2570
  0.2632   0.2764   0.2852   0.3039   0.3096   0.3218   0.3335   0.3428
  0.3482   0.3566   0.3637   0.3766   0.4113   0.4182   0.4225   0.4247
  0.4422   0.5058   0.5180   0.5369   0.5729   0.5894   0.5939   0.6014
  0.6102   0.6120   0.6182   0.6313   0.6339   0.6475   0.6536   0.6767
  0.6996   0.7051   0.7131   0.7181   0.7277   0.7345   0.7358   0.7417
  0.7608   0.8037   0.8051   0.8227   0.8278   0.8357   0.8435   0.8543
  0.8607   0.8800   0.8854   0.8883   0.9013   0.9065   0.9486   0.9984
  1.0392   1.0604   1.0654   1.0776   1.1153   1.1242   1.1606   1.1664
  1.1706   1.2077   1.2169   1.2226   1.2487   1.2679   1.2793   1.2976
  1.3071   1.3261   1.3627   1.3693   1.3745   1.4056   1.4162   1.4294
  1.4406   1.4461   1.4481   1.4532   1.4587   1.4754   1.5285   1.5493
  1.5647   1.5775   1.5802   1.6398   1.6527   1.7084   1.7685   1.8060
  1.8135   1.8177   1.8368   1.8744   1.8915   1.9429   1.9796   2.0425
  2.0463   2.0662   2.0936   2.1064   2.1706   2.3631   2.5580   2.5691
  2.6083   2.6347   2.6411   2.6688   2.7571   2.7850   2.7921   2.8043
  2.8071   2.8172   2.8311   2.8465   2.8595   2.8698   2.8711   2.8909
  2.9107   2.9219   2.9330   2.9496   2.9606   2.9985   3.0102   3.0336
  3.0778   3.1407   3.1498   3.1746   3.1755   3.1768   3.2000   3.2211
  3.2343   3.2553   3.2661   3.2899   3.3028   3.3431   3.3746   3.3849
  3.4123   3.4156   3.4271   3.4336   3.4606   3.4644   3.4779   3.4925
  3.4934   3.5153   3.5456   3.5781   3.6190   3.6246   3.6373   3.6917
  3.7551   3.7804   3.8044   3.8088   3.8359   3.8427   3.8509   3.8662
  3.8987   3.9185   3.9275   3.9386   3.9615   3.9711   3.9921   4.0304
  4.0687   4.1093   4.1332   4.1443   4.1541   4.1997   4.2593   4.2855
  4.2985   4.3320   4.3443   4.3972   4.4541   4.4659   4.4832   4.5105
  4.5337   4.5436   4.5610   4.5694   4.5777   4.5877   4.6823   4.7347
  4.7457   4.7938   4.8388   4.8588   5.0363   5.0867   5.1334   5.1425
  5.1589   5.1777   5.1826   5.1977   5.2298   5.2443   5.2662   5.2948
  5.3173   5.4190   5.4433   5.5056   5.6672   5.6825   5.8054   5.8304
  5.8490   5.8623   5.8911   6.2961   6.6008   6.9938   7.0381   7.1006
  7.1626   7.3018   7.5787  24.1490  24.7100  24.7747  24.9689  25.0379
 25.4938  50.5019
 
 Beta MOs
 -- Occupied --
-19.3242 -10.3738 -10.3556 -10.3555 -10.3533 -10.3493 -10.3492  -1.0559
 -0.9874  -0.8782  -0.8726  -0.7261  -0.7224  -0.6407  -0.5703  -0.5633
 -0.5335  -0.5302  -0.5258  -0.4853  -0.4484  -0.4424  -0.3954  -0.3678
 -0.3510
 -- Virtual --
 -0.0622   0.0242   0.0369   0.0375   0.0560   0.0574   0.0594   0.0666
  0.0774   0.0839   0.0970   0.1136   0.1184   0.1376   0.1473   0.1576
  0.1585   0.1594   0.1615   0.1636   0.1703   0.1710   0.1786   0.1867
  0.1905   0.1912   0.1934   0.2110   0.2282   0.2286   0.2410   0.2535
  0.2576   0.2685   0.2771   0.2860   0.3049   0.3104   0.3267   0.3339
  0.3438   0.3494   0.3582   0.3667   0.3777   0.4128   0.4194   0.4238
  0.4258   0.4441   0.5064   0.5200   0.5388   0.5766   0.5917   0.5983
  0.6033   0.6129   0.6136   0.6227   0.6332   0.6362   0.6502   0.6597
  0.6791   0.7016   0.7083   0.7152   0.7210   0.7287   0.7358   0.7369
  0.7435   0.7623   0.8063   0.8071   0.8248   0.8278   0.8384   0.8464
  0.8565   0.8611   0.8828   0.8869   0.8900   0.9027   0.9076   0.9541
  1.0033   1.0409   1.0620   1.0671   1.0815   1.1168   1.1267   1.1629
  1.1679   1.1783   1.2144   1.2181   1.2251   1.2542   1.2735   1.2811
  1.3023   1.3181   1.3355   1.3642   1.3726   1.3762   1.4081   1.4197
  1.4319   1.4444   1.4498   1.4506   1.4564   1.4609   1.4773   1.5330
  1.5531   1.5689   1.5799   1.5822   1.6450   1.6555   1.7222   1.7805
  1.8069   1.8158   1.8271   1.8428   1.8872   1.8964   1.9507   1.9966
  2.0482   2.0590   2.0700   2.0987   2.1140   2.1738   2.3688   2.5640
  2.5733   2.6119   2.6372   2.6457   2.6746   2.7659   2.7928   2.7963
  2.8076   2.8140   2.8227   2.8375   2.8518   2.8636   2.8740   2.8772
  2.8947   2.9167   2.9265   2.9378   2.9584   2.9708   3.0063   3.0187
  3.0387   3.0807   3.1447   3.1541   3.1776   3.1811   3.1833   3.2051
  3.2272   3.2391   3.2590   3.2711   3.2958   3.3090   3.3476   3.3814
  3.3882   3.4167   3.4187   3.4314   3.4369   3.4677   3.4699   3.4824
  3.4971   3.4980   3.5211   3.5480   3.5926   3.6187   3.6288   3.6403
  3.6971   3.7617   3.7870   3.8103   3.8132   3.8413   3.8485   3.8551
  3.8713   3.9046   3.9225   3.9321   3.9432   3.9669   3.9746   3.9968
  4.0371   4.0742   4.1140   4.1382   4.1477   4.1583   4.2020   4.2643
  4.2921   4.3030   4.3390   4.3494   4.4005   4.4577   4.4693   4.4928
  4.5179   4.5404   4.5502   4.5681   4.5736   4.5827   4.5935   4.6871
  4.7405   4.7498   4.8017   4.8447   4.8635   5.0435   5.1018   5.1505
  5.1578   5.1751   5.1916   5.2153   5.2239   5.2546   5.2786   5.2835
  5.3358   5.3802   5.4490   5.4540   5.5101   5.6810   5.7264   5.8128
  5.8394   5.8547   5.8670   5.8965   6.3015   6.6056   7.0605   7.0762
  7.1815   7.2226   7.3450   7.6294  24.1498  24.7109  24.7759  24.9707
 25.0386  25.4952  50.5144
 --------------------------------------------------------------
 
          Ground-State Mulliken Net Atomic Charges

     Atom                 Charge (a.u.)    Spin (a.u.)
  --------------------------------------------------------
      1 H                     0.289063       0.002291
      2 C                    -0.151102      -0.082942
      3 C                    -0.349430       0.206321
      4 H                     0.284803      -0.004118
      5 C                    -0.150220      -0.090724
      6 H                     0.288878       0.002469
      7 C                    -0.418391       0.198019
      8 H                     0.296153      -0.003807
      9 C                    -0.137980      -0.023995
     10 H                     0.346252       0.010518
     11 C                    -0.369355       0.182637
     12 H                     0.280000      -0.003483
     13 O                    -0.516027       0.615442
     14 H                     0.307356      -0.008629
  --------------------------------------------------------
  Sum of atomic charges =     0.000000
  Sum of spin   charges =     1.000000

 -----------------------------------------------------------------
                    Cartesian Multipole Moments
 -----------------------------------------------------------------
    Charge (ESU x 10^10)
                 0.0000
    Dipole Moment (Debye)
         X      -2.4595      Y      -2.6892      Z       0.4790
       Tot       3.6756
    Quadrupole Moments (Debye-Ang)
        XX     -36.7149     XY      -8.1842     YY     -58.3589
        XZ       4.7888     YZ       4.8719     ZZ     -34.5005
    Octopole Moments (Debye-Ang^2)
       XXX      40.9446    XXY     -63.5372    XYY      -4.6435
       YYY    -271.2970    XXZ      22.6295    XYZ      14.6467
       YYZ      39.3212    XZZ       2.0785    YZZ     -59.9185
       ZZZ      51.2658
    Hexadecapole Moments (Debye-Ang^3)
      XXXX    -334.2121   XXXY      42.6393   XXYY    -211.7790
      XYYY       4.2347   YYYY   -1073.0477   XXXZ       6.9063
      XXYZ      58.0651   XYYZ      45.2618   YYYZ     201.8895
      XXZZ    -132.8204   XYZZ     -20.8475   YYZZ    -212.1122
      XZZZ      32.3417   YZZZ     121.7462   ZZZZ    -396.3921
 -----------------------------------------------------------------
 Calculating analytic gradient of the SCF energy
 Gradient of CDS energy
            1           2           3           4           5           6
    1   0.0000981   0.0002861  -0.0002729  -0.0001056  -0.0004780  -0.0002066
    2   0.0000107   0.0000187   0.0000912   0.0000327   0.0000325   0.0000165
    3   0.0001821   0.0004045   0.0004399   0.0001740  -0.0000803  -0.0000045
            7           8           9          10          11          12
    1  -0.0001007  -0.0000959   0.0001262   0.0001178   0.0004010   0.0002047
    2  -0.0001742  -0.0000219  -0.0001079   0.0000101  -0.0000738  -0.0000219
    3  -0.0002855  -0.0001675  -0.0002066  -0.0001851  -0.0000686   0.0000052
           13          14
    1   0.0001135  -0.0000876
    2  -0.0001481   0.0003353
    3   0.0001561  -0.0003637
 Gradient of SCF Energy
            1           2           3           4           5           6
    1   0.0023093   0.0000154   0.0030430  -0.0039688   0.0074225  -0.0077859
    2   0.0000610   0.0040721  -0.0043997   0.0008606   0.0041186   0.0005293
    3   0.0048440  -0.0106810  -0.0011067   0.0063381  -0.0009357  -0.0003384
            7           8           9          10          11          12
    1   0.0021196  -0.0046492   0.0038912   0.0008352  -0.0059286   0.0031003
    2  -0.0072035  -0.0008679   0.0140088  -0.0031315  -0.0096683  -0.0017397
    3   0.0083682  -0.0089944   0.0037149  -0.0040934   0.0033247   0.0005808
           13          14
    1   0.0058989  -0.0063030
    2   0.0059437  -0.0025833
    3   0.0051086  -0.0061297
 Max gradient component =       1.401E-02
 RMS gradient           =       5.334E-03
 Computing fast CPCM-SWIG gradient
 Updating gradient with PCM contributions...
 -- total gradient after adding PCM contribution --
---------------------------------------------------
  Atom         X              Y              Z     
---------------------------------------------------
   1      -0.000013       0.000008       0.000006
   2      -0.000037       0.000037       0.000027
   3       0.000008      -0.000001      -0.000011
   4      -0.000012       0.000021      -0.000006
   5      -0.000016       0.000046       0.000019
   6      -0.000002       0.000016      -0.000013
   7      -0.000017      -0.000054      -0.000017
   8       0.000002      -0.000022      -0.000003
   9      -0.000087      -0.000072       0.000077
  10       0.000073      -0.000030      -0.000029
  11       0.000026      -0.000026      -0.000001
  12      -0.000006      -0.000032       0.000018
  13       0.000168       0.000078       0.000006
  14      -0.000088       0.000032      -0.000074
---------------------------------------------------
 Number of fixed atoms: 0
 Gradient time:  CPU 174.94 s  wall 14.70 s
 ######################################################
 ######################################################
 # Starting finite difference calculation for IDERIV  #
 Finite diff step size:  1.88973e-03 a.u.
 ----------------------------------------------------------------
             Standard Nuclear Orientation (Angstroms)
    I     Atom           X                Y                Z
 ----------------------------------------------------------------
    1      H       0.6145298090     1.5053337005     1.9318278117
    2      C       0.1015960107     1.4494939929     0.9811517894
    3      C      -1.2882840998     1.5877843034     0.9313026822
    4      H      -1.8423944469     1.7594740850     1.8439901262
    5      C      -1.9675492913     1.4879736587    -0.2798451500
    6      H      -3.0451492967     1.5738343491    -0.3033884476
    7      C      -1.2638190258     1.2666300816    -1.4473329736
    8      H      -1.7811367084     1.1718337996    -2.3923417805
    9      C       0.1452643752     1.1924855645    -1.4205684830
   10      H       0.6768378492     0.8555113243    -2.2973087516
   11      C       0.8136113657     1.2333105429    -0.1763311701
   12      H       1.8883997804     1.1181160216    -0.1492592103
   13      O       0.4996649382     3.1777941893    -1.9769465298
   14      H      -0.2079745594     3.2006939866    -2.6379585132
 ----------------------------------------------------------------
 Nuclear Repulsion Energy =         275.08862938 hartrees
 There are       26 alpha and       25 beta electrons
 Discretize the solute cavity surface with Lebedev spheres
	Using 110 Lebedev grid points for each H atom
	Using 194 Lebedev grid points for other atoms
	Atomic van der Waals radii will be scaled by 1.20
 Remove points where switching function is < 1.0e-08
 Keep 1059 surface tesserae and discard 1069 interior tesserae
 Molecular Surface Area = 129.137 Angst**2

                       Distance Matrix (Angstroms)
             H (  1)   C (  2)   C (  3)   H (  4)   C (  5)   H (  6)
   C (  2)  1.081667
   C (  3)  2.151406  1.397632
   H (  4)  2.471595  2.149343  1.081441
   C (  5)  3.399843  2.423418  1.392208  2.144773
   H (  6)  4.288838  3.401104  2.147378  2.468262  1.081272
   C (  7)  3.873487  2.792013  2.400343  3.377936  1.381035  2.139187
   H (  8)  4.954683  3.873272  3.385636  4.277333  2.144140  2.474481
   C (  9)  3.399507  2.415827  2.782556  3.863885  2.419203  3.401802
   H ( 10)  4.279223  3.381127  3.849917  4.930927  3.385698  4.283094
   C ( 11)  2.134939  1.376033  2.402180  3.378300  2.794713  3.875840
   H ( 12)  2.470548  2.140165  3.388144  4.278225  3.875847  4.956949
   O ( 13)  4.253097  3.449033  3.766007  4.700684  3.438429  4.235468
   H ( 14)  4.943046  4.032430  4.063025  4.983604  3.404440  4.018265
             C (  7)   H (  8)   C (  9)   H ( 10)   C ( 11)   H ( 12)
   H (  8)  1.081502
   C (  9)  1.411287  2.157728
   H ( 10)  2.158154  2.480067  1.079257
   C ( 11)  2.435626  3.412799  1.412969  2.158700
   H ( 12)  3.412262  4.301140  2.158768  2.480113  1.081283
   O ( 13)  2.653849  3.065695  2.092034  2.350961  2.668669  3.084039
   H ( 14)  2.504596  2.579039  2.374809  2.529588  3.312679  3.863359
             O ( 13)
   H ( 14)  0.968615
 
 Requested basis set is 6-311++G(2df,2p)
 There are 98 shells and 308 basis functions
 A cutoff of  1.0D-12 yielded   4616 shell pairs
 There are     46379 function pairs (     57728 Cartesian)
 Smallest overlap matrix eigenvalue = 1.07E-06
 Guess MOs from SCF MO coefficient file

 -----------------------------------------------------------------------
  General SCF calculation program by
  Eric Jon Sundstrom, Paul Horn, Yuezhi Mao, Dmitri Zuev, Alec White,
  David Stuck, Shaama M.S., Shane Yost, Joonho Lee, David Small,
  Daniel Levine, Susi Lehtola, Hugh Burton, Evgeny Epifanovsky,
  Bang C. Huynh
 -----------------------------------------------------------------------
 Exchange:     0.1500 Hartree-Fock + 1.0000 wB97M-V + LR-HF
 Correlation:  1.0000 wB97M-V
 Using SG-2 standard quadrature grid
 Nonlocal Correlation:  VV10 with C = 0.0100 and b = 6.00 and scale = 1.00000
 Grid used for NLC:  SG-1 standard quadrature
 
 Citation of the SMD model:
 Marenich, A.V.; Cramer, C.J.; Truhlar, D.G.
 J. Phys. Chem. B 2009, 113, 6378-6396.
 iSolventCode=           1
 Solvent: water                                                           
 
 vradii
            1           2           3           4           5           6
    1   1.2000000   1.8500000   1.8500000   1.2000000   1.8500000   1.2000000
            7           8           9          10          11          12
    1   1.8500000   1.2000000   1.8500000   1.2000000   1.8500000   1.2000000
           13          14
    1   1.5200000   1.2000000
 -------------------------------------------------------
 OpenMP BLAS3 based DFT computing Module                
 Release: version 1.0, May 2013, Q-Chem Inc. Pittsburgh 
 -------------------------------------------------------
 A unrestricted SCF calculation will be
 performed using Roothaan-Hall, DIIS, GDM
 SCF converges when RMS gradient is below 1.0e-07
 ---------------------------------------
  Cycle       Energy         DIIS error
 ---------------------------------------
    1    -307.9406932294      2.31e-04  Roothaan Step
 ---------------------------------------
  Cycle       Energy         DIIS error
 ---------------------------------------
    1    -307.9591562937      2.92e-04  
    2    -307.9620162670      3.02e-04  Done DIIS. Switching to GDM
 ---------------------------------------
  Cycle       Energy        RMS Gradient
 ---------------------------------------
    1    -307.9620162670      2.11e-02   Normal BFGS step
    2    -307.9613303238      3.61e-02  Line search: overstep
    3    -307.9649178519      6.68e-03   Normal BFGS step
    4    -307.9650413831      2.52e-03   Normal BFGS step
    5    -307.9650882555      2.25e-03   Normal BFGS step
    6    -307.9651010789      1.62e-03   Normal BFGS step
    7    -307.9651099554      3.85e-04   Normal BFGS step
    8    -307.9651116783      1.62e-04   Normal BFGS step
    9    -307.9651120706      1.27e-04   Normal BFGS step
   10    -307.9651121902      6.12e-05   Normal BFGS step
   11    -307.9651122386      4.31e-05   Normal BFGS step
   12    -307.9651122545      2.96e-05   Normal BFGS step
   13    -307.9651122587      2.36e-05   Normal BFGS step
   14    -307.9651122605      1.57e-05   Normal BFGS step
   15    -307.9651122613      8.78e-06   Normal BFGS step
   16    -307.9651122617      4.79e-06   Normal BFGS step
   17    -307.9651122618      2.51e-06   Normal BFGS step
   18    -307.9651122619      1.36e-06   Normal BFGS step
   19    -307.9651122619      4.76e-07   Normal BFGS step
   20    -307.9651122619      1.54e-07   Normal BFGS step
   21    -307.9651122619      6.99e-08  Convergence criterion met
 ---------------------------------------
 SCF time:   CPU 1461.44s  wall 99.00s 
<S^2> =          0.781407166
(3)  G-ENP(liq) elect-nuc-pol free energy of system     -307.965112262 a.u.
(4)  G-CDS(liq) cavity-dispersion-solvent structure 
     free energy                                                2.8632 kcal/mol
(6)  G-S(liq) free energy of system                     -307.960549518 a.u.
 SCF   energy in the final basis set =     -307.9605495184
 Total energy in the final basis set =     -307.9605495184
 
 --------------------------------------------------------------
 
                    Orbital Energies (a.u.)
 --------------------------------------------------------------
 
 Alpha MOs
 -- Occupied --
-19.3416 -10.3739 -10.3586 -10.3585 -10.3559 -10.3480 -10.3477  -1.0963
 -0.9922  -0.8805  -0.8783  -0.7296  -0.7250  -0.6425  -0.5735  -0.5678
 -0.5494  -0.5314  -0.5302  -0.5138  -0.4527  -0.4452  -0.4438  -0.4153
 -0.3589  -0.3235
 -- Virtual --
  0.0242   0.0369   0.0375   0.0556   0.0563   0.0577   0.0591   0.0597
  0.0838   0.0977   0.1120   0.1186   0.1376   0.1469   0.1573   0.1582
  0.1594   0.1614   0.1632   0.1668   0.1703   0.1776   0.1866   0.1905
  0.1911   0.1931   0.2093   0.2281   0.2287   0.2403   0.2530   0.2570
  0.2632   0.2764   0.2852   0.3039   0.3096   0.3218   0.3335   0.3428
  0.3482   0.3566   0.3637   0.3766   0.4113   0.4182   0.4225   0.4246
  0.4422   0.5058   0.5180   0.5369   0.5729   0.5894   0.5939   0.6014
  0.6102   0.6119   0.6182   0.6313   0.6339   0.6475   0.6536   0.6767
  0.6996   0.7051   0.7131   0.7181   0.7277   0.7345   0.7358   0.7417
  0.7608   0.8037   0.8051   0.8227   0.8278   0.8357   0.8435   0.8543
  0.8607   0.8800   0.8854   0.8883   0.9013   0.9065   0.9486   0.9984
  1.0392   1.0604   1.0653   1.0776   1.1153   1.1242   1.1606   1.1663
  1.1707   1.2077   1.2169   1.2225   1.2487   1.2680   1.2791   1.2975
  1.3071   1.3261   1.3627   1.3693   1.3744   1.4056   1.4161   1.4294
  1.4405   1.4461   1.4481   1.4532   1.4587   1.4754   1.5285   1.5492
  1.5647   1.5775   1.5802   1.6398   1.6527   1.7084   1.7685   1.8060
  1.8135   1.8177   1.8368   1.8744   1.8915   1.9429   1.9796   2.0425
  2.0462   2.0662   2.0935   2.1065   2.1706   2.3630   2.5580   2.5692
  2.6084   2.6347   2.6411   2.6688   2.7571   2.7850   2.7921   2.8043
  2.8071   2.8172   2.8311   2.8465   2.8596   2.8699   2.8710   2.8909
  2.9107   2.9219   2.9330   2.9496   2.9605   2.9985   3.0102   3.0336
  3.0778   3.1407   3.1498   3.1745   3.1754   3.1768   3.2000   3.2212
  3.2343   3.2554   3.2661   3.2899   3.3029   3.3431   3.3746   3.3850
  3.4123   3.4155   3.4269   3.4336   3.4606   3.4644   3.4780   3.4925
  3.4934   3.5152   3.5456   3.5781   3.6189   3.6247   3.6371   3.6917
  3.7551   3.7804   3.8044   3.8087   3.8360   3.8426   3.8510   3.8661
  3.8987   3.9185   3.9275   3.9384   3.9614   3.9712   3.9922   4.0304
  4.0687   4.1092   4.1331   4.1440   4.1540   4.1996   4.2593   4.2855
  4.2984   4.3320   4.3444   4.3971   4.4540   4.4658   4.4832   4.5105
  4.5337   4.5436   4.5609   4.5693   4.5775   4.5877   4.6821   4.7347
  4.7455   4.7937   4.8388   4.8586   5.0363   5.0866   5.1333   5.1424
  5.1587   5.1777   5.1825   5.1977   5.2298   5.2443   5.2660   5.2947
  5.3173   5.4190   5.4433   5.5053   5.6672   5.6825   5.8052   5.8304
  5.8490   5.8622   5.8905   6.2957   6.6007   6.9938   7.0381   7.1006
  7.1626   7.3018   7.5787  24.1488  24.7098  24.7747  24.9689  25.0378
 25.4936  50.5019
 
 Beta MOs
 -- Occupied --
-19.3242 -10.3738 -10.3556 -10.3556 -10.3533 -10.3493 -10.3492  -1.0559
 -0.9874  -0.8782  -0.8726  -0.7261  -0.7224  -0.6407  -0.5702  -0.5633
 -0.5335  -0.5302  -0.5258  -0.4853  -0.4484  -0.4424  -0.3954  -0.3678
 -0.3510
 -- Virtual --
 -0.0622   0.0242   0.0369   0.0375   0.0560   0.0574   0.0594   0.0666
  0.0774   0.0839   0.0970   0.1136   0.1184   0.1376   0.1473   0.1576
  0.1584   0.1594   0.1615   0.1636   0.1703   0.1710   0.1786   0.1867
  0.1905   0.1912   0.1934   0.2110   0.2282   0.2286   0.2410   0.2535
  0.2576   0.2685   0.2771   0.2859   0.3049   0.3104   0.3267   0.3339
  0.3438   0.3494   0.3583   0.3666   0.3777   0.4128   0.4194   0.4238
  0.4258   0.4441   0.5064   0.5200   0.5388   0.5766   0.5917   0.5983
  0.6032   0.6128   0.6136   0.6227   0.6332   0.6362   0.6502   0.6597
  0.6791   0.7016   0.7083   0.7152   0.7210   0.7287   0.7358   0.7369
  0.7435   0.7623   0.8063   0.8071   0.8248   0.8279   0.8384   0.8464
  0.8565   0.8611   0.8828   0.8868   0.8900   0.9027   0.9076   0.9541
  1.0033   1.0409   1.0620   1.0671   1.0815   1.1168   1.1266   1.1629
  1.1679   1.1784   1.2144   1.2181   1.2250   1.2543   1.2735   1.2810
  1.3023   1.3181   1.3355   1.3641   1.3726   1.3762   1.4081   1.4197
  1.4319   1.4444   1.4498   1.4506   1.4563   1.4608   1.4772   1.5330
  1.5530   1.5688   1.5798   1.5821   1.6450   1.6555   1.7222   1.7805
  1.8069   1.8158   1.8271   1.8428   1.8873   1.8964   1.9507   1.9966
  2.0481   2.0590   2.0701   2.0985   2.1140   2.1739   2.3688   2.5640
  2.5733   2.6120   2.6372   2.6457   2.6746   2.7659   2.7927   2.7963
  2.8075   2.8140   2.8227   2.8375   2.8518   2.8637   2.8739   2.8772
  2.8947   2.9166   2.9264   2.9378   2.9584   2.9708   3.0063   3.0187
  3.0387   3.0807   3.1446   3.1540   3.1776   3.1810   3.1833   3.2051
  3.2272   3.2391   3.2591   3.2711   3.2957   3.3091   3.3476   3.3813
  3.3883   3.4167   3.4187   3.4313   3.4369   3.4677   3.4699   3.4824
  3.4971   3.4980   3.5210   3.5480   3.5926   3.6187   3.6288   3.6401
  3.6971   3.7617   3.7870   3.8103   3.8132   3.8413   3.8485   3.8552
  3.8713   3.9045   3.9224   3.9321   3.9430   3.9668   3.9748   3.9969
  4.0371   4.0742   4.1139   4.1380   4.1475   4.1583   4.2018   4.2643
  4.2921   4.3030   4.3390   4.3494   4.4004   4.4576   4.4691   4.4928
  4.5179   4.5404   4.5501   4.5680   4.5735   4.5825   4.5935   4.6869
  4.7404   4.7497   4.8016   4.8447   4.8633   5.0435   5.1017   5.1503
  5.1577   5.1750   5.1914   5.2153   5.2239   5.2546   5.2783   5.2835
  5.3358   5.3802   5.4491   5.4540   5.5098   5.6810   5.7264   5.8125
  5.8394   5.8547   5.8669   5.8959   6.3011   6.6055   7.0605   7.0762
  7.1815   7.2226   7.3450   7.6294  24.1496  24.7108  24.7758  24.9707
 25.0385  25.4951  50.5144
 --------------------------------------------------------------
 
          Ground-State Mulliken Net Atomic Charges

     Atom                 Charge (a.u.)    Spin (a.u.)
  --------------------------------------------------------
      1 H                     0.288986       0.002293
      2 C                    -0.150597      -0.082940
      3 C                    -0.350070       0.206311
      4 H                     0.284801      -0.004119
      5 C                    -0.150088      -0.090721
      6 H                     0.288884       0.002469
      7 C                    -0.418471       0.198025
      8 H                     0.296157      -0.003807
      9 C                    -0.137836      -0.023999
     10 H                     0.346247       0.010518
     11 C                    -0.369359       0.182635
     12 H                     0.280014      -0.003482
     13 O                    -0.516024       0.615445
     14 H                     0.307356      -0.008629
  --------------------------------------------------------
  Sum of atomic charges =    -0.000000
  Sum of spin   charges =     1.000000

 -----------------------------------------------------------------
                    Cartesian Multipole Moments
 -----------------------------------------------------------------
    Charge (ESU x 10^10)
                -0.0000
    Dipole Moment (Debye)
         X      -2.4591      Y      -2.6892      Z       0.4785
       Tot       3.6753
    Quadrupole Moments (Debye-Ang)
        XX     -36.7132     XY      -8.1838     YY     -58.3593
        XZ       4.7903     YZ       4.8711     ZZ     -34.5023
    Octopole Moments (Debye-Ang^2)
       XXX      40.9406    XXY     -63.5346    XYY      -4.6440
       YYY    -271.2988    XXZ      22.6310    XYZ      14.6489
       YYZ      39.3185    XZZ       2.0804    YZZ     -59.9209
       ZZZ      51.2596
    Hexadecapole Moments (Debye-Ang^3)
      XXXX    -334.2082   XXXY      42.6333   XXYY    -211.7758
      XYYY       4.2307   YYYY   -1073.0528   XXXZ       6.9046
      XXYZ      58.0673   XYYZ      45.2629   YYYZ     201.8807
      XXZZ    -132.8168   XYZZ     -20.8444   YYZZ    -212.1176
      XZZZ      32.3434   YZZZ     121.7363   ZZZZ    -396.4118
 -----------------------------------------------------------------
 Calculating analytic gradient of the SCF energy
 Gradient of CDS energy
            1           2           3           4           5           6
    1   0.0000985   0.0002856  -0.0002728  -0.0001056  -0.0004780  -0.0002066
    2   0.0000107   0.0000187   0.0000912   0.0000327   0.0000325   0.0000165
    3   0.0001826   0.0004039   0.0004399   0.0001740  -0.0000803  -0.0000045
            7           8           9          10          11          12
    1  -0.0001007  -0.0000959   0.0001262   0.0001178   0.0004010   0.0002047
    2  -0.0001742  -0.0000219  -0.0001079   0.0000101  -0.0000738  -0.0000219
    3  -0.0002855  -0.0001675  -0.0002066  -0.0001851  -0.0000686   0.0000052
           13          14
    1   0.0001135  -0.0000876
    2  -0.0001481   0.0003353
    3   0.0001561  -0.0003637
 Gradient of SCF Energy
            1           2           3           4           5           6
    1   0.0025529  -0.0002202   0.0030225  -0.0039658   0.0074133  -0.0077879
    2   0.0000683   0.0040621  -0.0044030   0.0008594   0.0041213   0.0005289
    3   0.0050794  -0.0109001  -0.0011611   0.0063362  -0.0009314  -0.0003412
            7           8           9          10          11          12
    1   0.0021185  -0.0046492   0.0038887   0.0008362  -0.0059082   0.0031032
    2  -0.0072034  -0.0008682   0.0140111  -0.0031315  -0.0096645  -0.0017412
    3   0.0083684  -0.0089951   0.0037216  -0.0040920   0.0033562   0.0005802
           13          14
    1   0.0058992  -0.0063032
    2   0.0059438  -0.0025833
    3   0.0051086  -0.0061298
 Max gradient component =       1.401E-02
 RMS gradient           =       5.352E-03
 Computing fast CPCM-SWIG gradient
 Updating gradient with PCM contributions...
 -- total gradient after adding PCM contribution --
---------------------------------------------------
  Atom         X              Y              Z     
---------------------------------------------------
   1       0.000224       0.000016       0.000247
   2      -0.000269       0.000027      -0.000197
   3      -0.000011      -0.000005      -0.000064
   4      -0.000009       0.000020      -0.000005
   5      -0.000026       0.000048       0.000020
   6      -0.000003       0.000016      -0.000015
   7      -0.000018      -0.000054      -0.000015
   8       0.000002      -0.000022      -0.000003
   9      -0.000089      -0.000069       0.000082
  10       0.000073      -0.000030      -0.000028
  11       0.000049      -0.000024       0.000030
  12      -0.000004      -0.000033       0.000017
  13       0.000168       0.000078       0.000006
  14      -0.000087       0.000032      -0.000074
---------------------------------------------------
 Number of fixed atoms: 0
 Gradient time:  CPU 174.05 s  wall 14.75 s
 ----------------------------------------------------------------
             Standard Nuclear Orientation (Angstroms)
    I     Atom           X                Y                Z
 ----------------------------------------------------------------
    1      H       0.6125298090     1.5053337005     1.9318278117
    2      C       0.1015960107     1.4494939929     0.9811517894
    3      C      -1.2882840998     1.5877843034     0.9313026822
    4      H      -1.8423944469     1.7594740850     1.8439901262
    5      C      -1.9675492913     1.4879736587    -0.2798451500
    6      H      -3.0451492967     1.5738343491    -0.3033884476
    7      C      -1.2638190258     1.2666300816    -1.4473329736
    8      H      -1.7811367084     1.1718337996    -2.3923417805
    9      C       0.1452643752     1.1924855645    -1.4205684830
   10      H       0.6768378492     0.8555113243    -2.2973087516
   11      C       0.8136113657     1.2333105429    -0.1763311701
   12      H       1.8883997804     1.1181160216    -0.1492592103
   13      O       0.4996649382     3.1777941893    -1.9769465298
   14      H      -0.2079745594     3.2006939866    -2.6379585132
 ----------------------------------------------------------------
 Nuclear Repulsion Energy =         275.09315522 hartrees
 There are       26 alpha and       25 beta electrons
 Discretize the solute cavity surface with Lebedev spheres
	Using 110 Lebedev grid points for each H atom
	Using 194 Lebedev grid points for other atoms
	Atomic van der Waals radii will be scaled by 1.20
 Remove points where switching function is < 1.0e-08
 Keep 1059 surface tesserae and discard 1069 interior tesserae
 Molecular Surface Area = 129.132 Angst**2

                       Distance Matrix (Angstroms)
             H (  1)   C (  2)   C (  3)   H (  4)   C (  5)   H (  6)
   C (  2)  1.080720
   C (  3)  2.149638  1.397632
   H (  4)  2.469606  2.149343  1.081441
   C (  5)  3.398324  2.423418  1.392208  2.144773
   H (  6)  4.287132  3.401104  2.147378  2.468262  1.081272
   C (  7)  3.872518  2.792013  2.400343  3.377936  1.381035  2.139187
   H (  8)  4.953716  3.873272  3.385636  4.277333  2.144140  2.474481
   C (  9)  3.399231  2.415827  2.782556  3.863885  2.419203  3.401802
   H ( 10)  4.279252  3.381127  3.849917  4.930927  3.385698  4.283094
   C ( 11)  2.135126  1.376033  2.402180  3.378300  2.794713  3.875840
   H ( 12)  2.471579  2.140165  3.388144  4.278225  3.875847  4.956949
   O ( 13)  4.253044  3.449033  3.766007  4.700684  3.438429  4.235468
   H ( 14)  4.942714  4.032430  4.063025  4.983604  3.404440  4.018265
             C (  7)   H (  8)   C (  9)   H ( 10)   C ( 11)   H ( 12)
   H (  8)  1.081502
   C (  9)  1.411287  2.157728
   H ( 10)  2.158154  2.480067  1.079257
   C ( 11)  2.435626  3.412799  1.412969  2.158700
   H ( 12)  3.412262  4.301140  2.158768  2.480113  1.081283
   O ( 13)  2.653849  3.065695  2.092034  2.350961  2.668669  3.084039
   H ( 14)  2.504596  2.579039  2.374809  2.529588  3.312679  3.863359
             O ( 13)
   H ( 14)  0.968615
 
 Requested basis set is 6-311++G(2df,2p)
 There are 98 shells and 308 basis functions
 A cutoff of  1.0D-12 yielded   4616 shell pairs
 There are     46379 function pairs (     57728 Cartesian)
 Smallest overlap matrix eigenvalue = 1.07E-06
 Guess MOs from SCF MO coefficient file

 -----------------------------------------------------------------------
  General SCF calculation program by
  Eric Jon Sundstrom, Paul Horn, Yuezhi Mao, Dmitri Zuev, Alec White,
  David Stuck, Shaama M.S., Shane Yost, Joonho Lee, David Small,
  Daniel Levine, Susi Lehtola, Hugh Burton, Evgeny Epifanovsky,
  Bang C. Huynh
 -----------------------------------------------------------------------
 Exchange:     0.1500 Hartree-Fock + 1.0000 wB97M-V + LR-HF
 Correlation:  1.0000 wB97M-V
 Using SG-2 standard quadrature grid
 Nonlocal Correlation:  VV10 with C = 0.0100 and b = 6.00 and scale = 1.00000
 Grid used for NLC:  SG-1 standard quadrature
 
 Citation of the SMD model:
 Marenich, A.V.; Cramer, C.J.; Truhlar, D.G.
 J. Phys. Chem. B 2009, 113, 6378-6396.
 iSolventCode=           1
 Solvent: water                                                           
 
 vradii
            1           2           3           4           5           6
    1   1.2000000   1.8500000   1.8500000   1.2000000   1.8500000   1.2000000
            7           8           9          10          11          12
    1   1.8500000   1.2000000   1.8500000   1.2000000   1.8500000   1.2000000
           13          14
    1   1.5200000   1.2000000
 -------------------------------------------------------
 OpenMP BLAS3 based DFT computing Module                
 Release: version 1.0, May 2013, Q-Chem Inc. Pittsburgh 
 -------------------------------------------------------
 A unrestricted SCF calculation will be
 performed using Roothaan-Hall, DIIS, GDM
 SCF converges when RMS gradient is below 1.0e-07
 ---------------------------------------
  Cycle       Energy         DIIS error
 ---------------------------------------
    1    -307.9406959496      2.31e-04  Roothaan Step
 ---------------------------------------
  Cycle       Energy         DIIS error
 ---------------------------------------
    1    -307.9591560160      2.92e-04  
    2    -307.9620157651      3.02e-04  Done DIIS. Switching to GDM
 ---------------------------------------
  Cycle       Energy        RMS Gradient
 ---------------------------------------
    1    -307.9620157651      2.11e-02   Normal BFGS step
    2    -307.9613292771      3.61e-02  Line search: overstep
    3    -307.9649173257      6.68e-03   Normal BFGS step
    4    -307.9650409338      2.52e-03   Normal BFGS step
    5    -307.9650878186      2.25e-03   Normal BFGS step
    6    -307.9651006504      1.62e-03   Normal BFGS step
    7    -307.9651095376      3.86e-04   Normal BFGS step
    8    -307.9651112601      1.62e-04   Normal BFGS step
    9    -307.9651116523      1.27e-04   Normal BFGS step
   10    -307.9651117721      6.12e-05   Normal BFGS step
   11    -307.9651118206      4.28e-05   Normal BFGS step
   12    -307.9651118365      2.96e-05   Normal BFGS step
   13    -307.9651118408      2.36e-05   Normal BFGS step
   14    -307.9651118426      1.57e-05   Normal BFGS step
   15    -307.9651118434      8.76e-06   Normal BFGS step
   16    -307.9651118437      4.81e-06   Normal BFGS step
   17    -307.9651118439      2.52e-06   Normal BFGS step
   18    -307.9651118439      1.36e-06   Normal BFGS step
   19    -307.9651118440      4.76e-07   Normal BFGS step
   20    -307.9651118439      1.54e-07   Normal BFGS step
   21    -307.9651118439      6.99e-08  Convergence criterion met
 ---------------------------------------
 SCF time:   CPU 1463.62s  wall 99.00s 
<S^2> =          0.781405782
(3)  G-ENP(liq) elect-nuc-pol free energy of system     -307.965111844 a.u.
(4)  G-CDS(liq) cavity-dispersion-solvent structure 
     free energy                                                2.8629 kcal/mol
(6)  G-S(liq) free energy of system                     -307.960549471 a.u.
 SCF   energy in the final basis set =     -307.9605494712
 Total energy in the final basis set =     -307.9605494712
 
 --------------------------------------------------------------
 
                    Orbital Energies (a.u.)
 --------------------------------------------------------------
 
 Alpha MOs
 -- Occupied --
-19.3416 -10.3739 -10.3586 -10.3585 -10.3560 -10.3479 -10.3477  -1.0963
 -0.9922  -0.8805  -0.8784  -0.7296  -0.7251  -0.6426  -0.5736  -0.5678
 -0.5494  -0.5315  -0.5303  -0.5138  -0.4528  -0.4452  -0.4438  -0.4153
 -0.3589  -0.3235
 -- Virtual --
  0.0242   0.0369   0.0375   0.0556   0.0563   0.0577   0.0591   0.0598
  0.0838   0.0977   0.1120   0.1187   0.1376   0.1469   0.1573   0.1582
  0.1594   0.1614   0.1632   0.1668   0.1703   0.1776   0.1866   0.1905
  0.1911   0.1931   0.2093   0.2281   0.2287   0.2403   0.2530   0.2570
  0.2632   0.2764   0.2852   0.3039   0.3096   0.3218   0.3335   0.3428
  0.3482   0.3566   0.3637   0.3766   0.4113   0.4183   0.4225   0.4247
  0.4422   0.5058   0.5180   0.5369   0.5729   0.5894   0.5939   0.6014
  0.6103   0.6120   0.6181   0.6313   0.6339   0.6475   0.6536   0.6767
  0.6996   0.7051   0.7131   0.7181   0.7278   0.7345   0.7358   0.7417
  0.7608   0.8037   0.8051   0.8227   0.8278   0.8357   0.8435   0.8543
  0.8607   0.8800   0.8854   0.8883   0.9013   0.9066   0.9486   0.9984
  1.0393   1.0604   1.0654   1.0776   1.1153   1.1242   1.1606   1.1664
  1.1706   1.2077   1.2169   1.2226   1.2487   1.2679   1.2794   1.2977
  1.3071   1.3260   1.3628   1.3693   1.3745   1.4056   1.4162   1.4295
  1.4406   1.4461   1.4481   1.4532   1.4588   1.4754   1.5285   1.5494
  1.5647   1.5776   1.5803   1.6398   1.6527   1.7084   1.7685   1.8060
  1.8135   1.8177   1.8368   1.8743   1.8916   1.9429   1.9796   2.0425
  2.0464   2.0661   2.0938   2.1064   2.1705   2.3631   2.5580   2.5691
  2.6082   2.6347   2.6411   2.6688   2.7571   2.7851   2.7921   2.8044
  2.8072   2.8172   2.8311   2.8465   2.8595   2.8698   2.8711   2.8909
  2.9108   2.9219   2.9330   2.9496   2.9606   2.9984   3.0102   3.0337
  3.0778   3.1408   3.1498   3.1746   3.1756   3.1768   3.1999   3.2211
  3.2343   3.2553   3.2661   3.2900   3.3028   3.3431   3.3747   3.3849
  3.4123   3.4157   3.4272   3.4337   3.4607   3.4645   3.4779   3.4925
  3.4934   3.5154   3.5456   3.5781   3.6190   3.6246   3.6374   3.6917
  3.7552   3.7804   3.8044   3.8089   3.8359   3.8427   3.8507   3.8662
  3.8987   3.9186   3.9276   3.9388   3.9616   3.9710   3.9919   4.0304
  4.0687   4.1093   4.1334   4.1445   4.1542   4.1999   4.2593   4.2855
  4.2985   4.3320   4.3442   4.3973   4.4542   4.4661   4.4833   4.5105
  4.5338   4.5437   4.5610   4.5695   4.5778   4.5877   4.6824   4.7347
  4.7459   4.7938   4.8389   4.8591   5.0364   5.0867   5.1335   5.1426
  5.1591   5.1777   5.1826   5.1978   5.2299   5.2443   5.2664   5.2949
  5.3174   5.4190   5.4432   5.5059   5.6672   5.6825   5.8056   5.8305
  5.8491   5.8624   5.8918   6.2965   6.6009   6.9938   7.0381   7.1006
  7.1626   7.3018   7.5787  24.1492  24.7102  24.7748  24.9690  25.0381
 25.4939  50.5019
 
 Beta MOs
 -- Occupied --
-19.3242 -10.3738 -10.3556 -10.3555 -10.3533 -10.3492 -10.3491  -1.0559
 -0.9874  -0.8782  -0.8726  -0.7261  -0.7224  -0.6407  -0.5703  -0.5633
 -0.5335  -0.5302  -0.5258  -0.4853  -0.4484  -0.4424  -0.3954  -0.3678
 -0.3510
 -- Virtual --
 -0.0622   0.0242   0.0369   0.0375   0.0560   0.0574   0.0594   0.0666
  0.0774   0.0839   0.0970   0.1136   0.1184   0.1376   0.1473   0.1576
  0.1585   0.1594   0.1615   0.1636   0.1703   0.1710   0.1786   0.1867
  0.1905   0.1912   0.1934   0.2110   0.2282   0.2286   0.2410   0.2535
  0.2576   0.2685   0.2771   0.2860   0.3049   0.3104   0.3267   0.3339
  0.3438   0.3495   0.3582   0.3667   0.3778   0.4128   0.4194   0.4238
  0.4258   0.4441   0.5064   0.5200   0.5388   0.5766   0.5916   0.5983
  0.6033   0.6129   0.6137   0.6227   0.6332   0.6362   0.6502   0.6597
  0.6791   0.7016   0.7083   0.7152   0.7210   0.7287   0.7359   0.7369
  0.7435   0.7623   0.8063   0.8071   0.8248   0.8278   0.8384   0.8464
  0.8564   0.8611   0.8828   0.8869   0.8900   0.9027   0.9076   0.9541
  1.0033   1.0409   1.0620   1.0672   1.0815   1.1169   1.1267   1.1629
  1.1680   1.1783   1.2144   1.2181   1.2251   1.2542   1.2734   1.2813
  1.3024   1.3181   1.3355   1.3642   1.3726   1.3762   1.4082   1.4197
  1.4319   1.4444   1.4498   1.4506   1.4564   1.4609   1.4773   1.5330
  1.5532   1.5689   1.5799   1.5823   1.6451   1.6555   1.7222   1.7805
  1.8070   1.8158   1.8271   1.8428   1.8872   1.8964   1.9507   1.9966
  2.0483   2.0590   2.0700   2.0989   2.1139   2.1738   2.3688   2.5640
  2.5733   2.6118   2.6371   2.6457   2.6746   2.7659   2.7929   2.7963
  2.8077   2.8140   2.8226   2.8375   2.8518   2.8636   2.8740   2.8771
  2.8947   2.9168   2.9265   2.9378   2.9584   2.9708   3.0062   3.0187
  3.0388   3.0807   3.1448   3.1541   3.1776   3.1812   3.1833   3.2051
  3.2272   3.2390   3.2590   3.2711   3.2958   3.3090   3.3476   3.3814
  3.3882   3.4166   3.4188   3.4316   3.4370   3.4678   3.4699   3.4823
  3.4970   3.4980   3.5212   3.5479   3.5926   3.6188   3.6288   3.6405
  3.6971   3.7618   3.7870   3.8103   3.8133   3.8412   3.8486   3.8549
  3.8714   3.9046   3.9226   3.9321   3.9434   3.9670   3.9745   3.9967
  4.0371   4.0742   4.1141   4.1384   4.1480   4.1584   4.2021   4.2643
  4.2921   4.3030   4.3390   4.3493   4.4006   4.4577   4.4694   4.4928
  4.5179   4.5405   4.5502   4.5681   4.5737   4.5829   4.5936   4.6872
  4.7405   4.7500   4.8017   4.8448   4.8637   5.0436   5.1018   5.1508
  5.1579   5.1752   5.1917   5.2154   5.2239   5.2546   5.2788   5.2835
  5.3359   5.3802   5.4490   5.4540   5.5103   5.6810   5.7264   5.8131
  5.8395   5.8548   5.8670   5.8971   6.3019   6.6057   7.0605   7.0762
  7.1815   7.2226   7.3450   7.6294  24.1499  24.7111  24.7759  24.9708
 25.0388  25.4953  50.5144
 --------------------------------------------------------------
 
          Ground-State Mulliken Net Atomic Charges

     Atom                 Charge (a.u.)    Spin (a.u.)
  --------------------------------------------------------
      1 H                     0.289140       0.002288
      2 C                    -0.151607      -0.082944
      3 C                    -0.348791       0.206330
      4 H                     0.284805      -0.004118
      5 C                    -0.150352      -0.090727
      6 H                     0.288871       0.002469
      7 C                    -0.418311       0.198014
      8 H                     0.296150      -0.003806
      9 C                    -0.138123      -0.023991
     10 H                     0.346256       0.010518
     11 C                    -0.369351       0.182640
     12 H                     0.279985      -0.003483
     13 O                    -0.516030       0.615439
     14 H                     0.307356      -0.008629
  --------------------------------------------------------
  Sum of atomic charges =     0.000000
  Sum of spin   charges =     1.000000

 -----------------------------------------------------------------
                    Cartesian Multipole Moments
 -----------------------------------------------------------------
    Charge (ESU x 10^10)
                 0.0000
    Dipole Moment (Debye)
         X      -2.4598      Y      -2.6893      Z       0.4795
       Tot       3.6759
    Quadrupole Moments (Debye-Ang)
        XX     -36.7166     XY      -8.1847     YY     -58.3586
        XZ       4.7872     YZ       4.8727     ZZ     -34.4987
    Octopole Moments (Debye-Ang^2)
       XXX      40.9486    XXY     -63.5398    XYY      -4.6431
       YYY    -271.2953    XXZ      22.6281    XYZ      14.6445
       YYZ      39.3240    XZZ       2.0766    YZZ     -59.9161
       ZZZ      51.2720
    Hexadecapole Moments (Debye-Ang^3)
      XXXX    -334.2160   XXXY      42.6454   XXYY    -211.7822
      XYYY       4.2387   YYYY   -1073.0427   XXXZ       6.9080
      XXYZ      58.0630   XYYZ      45.2606   YYYZ     201.8982
      XXZZ    -132.8240   XYZZ     -20.8505   YYZZ    -212.1068
      XZZZ      32.3400   YZZZ     121.7560   ZZZZ    -396.3724
 -----------------------------------------------------------------
 Calculating analytic gradient of the SCF energy
 Gradient of CDS energy
            1           2           3           4           5           6
    1   0.0000976   0.0002866  -0.0002729  -0.0001056  -0.0004780  -0.0002066
    2   0.0000107   0.0000188   0.0000912   0.0000327   0.0000325   0.0000165
    3   0.0001817   0.0004050   0.0004399   0.0001740  -0.0000803  -0.0000045
            7           8           9          10          11          12
    1  -0.0001007  -0.0000959   0.0001262   0.0001178   0.0004010   0.0002047
    2  -0.0001742  -0.0000219  -0.0001079   0.0000101  -0.0000738  -0.0000219
    3  -0.0002855  -0.0001675  -0.0002066  -0.0001851  -0.0000686   0.0000052
           13          14
    1   0.0001135  -0.0000876
    2  -0.0001481   0.0003353
    3   0.0001561  -0.0003637
 Gradient of SCF Energy
            1           2           3           4           5           6
    1   0.0020658   0.0002509   0.0030636  -0.0039718   0.0074318  -0.0077839
    2   0.0000536   0.0040820  -0.0043964   0.0008618   0.0041159   0.0005296
    3   0.0046079  -0.0104613  -0.0010522   0.0063400  -0.0009399  -0.0003357
            7           8           9          10          11          12
    1   0.0021207  -0.0046492   0.0038937   0.0008343  -0.0059491   0.0030974
    2  -0.0072037  -0.0008676   0.0140065  -0.0031315  -0.0096722  -0.0017382
    3   0.0083680  -0.0089937   0.0037081  -0.0040949   0.0032932   0.0005814
           13          14
    1   0.0058986  -0.0063028
    2   0.0059435  -0.0025833
    3   0.0051086  -0.0061296
 Max gradient component =       1.401E-02
 RMS gradient           =       5.317E-03
 Computing fast CPCM-SWIG gradient
 Updating gradient with PCM contributions...
 -- total gradient after adding PCM contribution --
---------------------------------------------------
  Atom         X              Y              Z     
---------------------------------------------------
   1      -0.000249      -0.000001      -0.000234
   2       0.000194       0.000046       0.000252
   3       0.000026       0.000003       0.000043
   4      -0.000015       0.000022      -0.000007
   5      -0.000007       0.000043       0.000017
   6      -0.000001       0.000016      -0.000010
   7      -0.000015      -0.000054      -0.000018
   8       0.000002      -0.000021      -0.000002
   9      -0.000084      -0.000075       0.000071
  10       0.000072      -0.000030      -0.000031
  11       0.000004      -0.000027      -0.000031
  12      -0.000007      -0.000031       0.000020
  13       0.000168       0.000077       0.000006
  14      -0.000088       0.000032      -0.000074
---------------------------------------------------
 Number of fixed atoms: 0
 Gradient time:  CPU 174.72 s  wall 14.41 s
 ----------------------------------------------------------------
             Standard Nuclear Orientation (Angstroms)
    I     Atom           X                Y                Z
 ----------------------------------------------------------------
    1      H       0.6135298090     1.5063337005     1.9318278117
    2      C       0.1015960107     1.4494939929     0.9811517894
    3      C      -1.2882840998     1.5877843034     0.9313026822
    4      H      -1.8423944469     1.7594740850     1.8439901262
    5      C      -1.9675492913     1.4879736587    -0.2798451500
    6      H      -3.0451492967     1.5738343491    -0.3033884476
    7      C      -1.2638190258     1.2666300816    -1.4473329736
    8      H      -1.7811367084     1.1718337996    -2.3923417805
    9      C       0.1452643752     1.1924855645    -1.4205684830
   10      H       0.6768378492     0.8555113243    -2.2973087516
   11      C       0.8136113657     1.2333105429    -0.1763311701
   12      H       1.8883997804     1.1181160216    -0.1492592103
   13      O       0.4996649382     3.1777941893    -1.9769465298
   14      H      -0.2079745594     3.2006939866    -2.6379585132
 ----------------------------------------------------------------
 Nuclear Repulsion Energy =         275.09073793 hartrees
 There are       26 alpha and       25 beta electrons
 Discretize the solute cavity surface with Lebedev spheres
	Using 110 Lebedev grid points for each H atom
	Using 194 Lebedev grid points for other atoms
	Atomic van der Waals radii will be scaled by 1.20
 Remove points where switching function is < 1.0e-08
 Keep 1059 surface tesserae and discard 1069 interior tesserae
 Molecular Surface Area = 129.135 Angst**2

                       Distance Matrix (Angstroms)
             H (  1)   C (  2)   C (  3)   H (  4)   C (  5)   H (  6)
   C (  2)  1.081246
   C (  3)  2.150484  1.397632
   H (  4)  2.470498  2.149343  1.081441
   C (  5)  3.399089  2.423418  1.392208  2.144773
   H (  6)  4.287969  3.401104  2.147378  2.468262  1.081272
   C (  7)  3.873064  2.792013  2.400343  3.377936  1.381035  2.139187
   H (  8)  4.954267  3.873272  3.385636  4.277333  2.144140  2.474481
   C (  9)  3.399461  2.415827  2.782556  3.863885  2.419203  3.401802
   H ( 10)  4.279389  3.381127  3.849917  4.930927  3.385698  4.283094
   C ( 11)  2.135160  1.376033  2.402180  3.378300  2.794713  3.875840
   H ( 12)  2.471220  2.140165  3.388144  4.278225  3.875847  4.956949
   O ( 13)  4.252677  3.449033  3.766007  4.700684  3.438429  4.235468
   H ( 14)  4.942537  4.032430  4.063025  4.983604  3.404440  4.018265
             C (  7)   H (  8)   C (  9)   H ( 10)   C ( 11)   H ( 12)
   H (  8)  1.081502
   C (  9)  1.411287  2.157728
   H ( 10)  2.158154  2.480067  1.079257
   C ( 11)  2.435626  3.412799  1.412969  2.158700
   H ( 12)  3.412262  4.301140  2.158768  2.480113  1.081283
   O ( 13)  2.653849  3.065695  2.092034  2.350961  2.668669  3.084039
   H ( 14)  2.504596  2.579039  2.374809  2.529588  3.312679  3.863359
             O ( 13)
   H ( 14)  0.968615
 
 Requested basis set is 6-311++G(2df,2p)
 There are 98 shells and 308 basis functions
 A cutoff of  1.0D-12 yielded   4616 shell pairs
 There are     46379 function pairs (     57728 Cartesian)
 Smallest overlap matrix eigenvalue = 1.07E-06
 Guess MOs from SCF MO coefficient file

 -----------------------------------------------------------------------
  General SCF calculation program by
  Eric Jon Sundstrom, Paul Horn, Yuezhi Mao, Dmitri Zuev, Alec White,
  David Stuck, Shaama M.S., Shane Yost, Joonho Lee, David Small,
  Daniel Levine, Susi Lehtola, Hugh Burton, Evgeny Epifanovsky,
  Bang C. Huynh
 -----------------------------------------------------------------------
 Exchange:     0.1500 Hartree-Fock + 1.0000 wB97M-V + LR-HF
 Correlation:  1.0000 wB97M-V
 Using SG-2 standard quadrature grid
 Nonlocal Correlation:  VV10 with C = 0.0100 and b = 6.00 and scale = 1.00000
 Grid used for NLC:  SG-1 standard quadrature
 
 Citation of the SMD model:
 Marenich, A.V.; Cramer, C.J.; Truhlar, D.G.
 J. Phys. Chem. B 2009, 113, 6378-6396.
 iSolventCode=           1
 Solvent: water                                                           
 
 vradii
            1           2           3           4           5           6
    1   1.2000000   1.8500000   1.8500000   1.2000000   1.8500000   1.2000000
            7           8           9          10          11          12
    1   1.8500000   1.2000000   1.8500000   1.2000000   1.8500000   1.2000000
           13          14
    1   1.5200000   1.2000000
 -------------------------------------------------------
 OpenMP BLAS3 based DFT computing Module                
 Release: version 1.0, May 2013, Q-Chem Inc. Pittsburgh 
 -------------------------------------------------------
 A unrestricted SCF calculation will be
 performed using Roothaan-Hall, DIIS, GDM
 SCF converges when RMS gradient is below 1.0e-07
 ---------------------------------------
  Cycle       Energy         DIIS error
 ---------------------------------------
    1    -307.9406937025      2.31e-04  Roothaan Step
 ---------------------------------------
  Cycle       Energy         DIIS error
 ---------------------------------------
    1    -307.9591570666      2.92e-04  
    2    -307.9620164261      3.02e-04  Done DIIS. Switching to GDM
 ---------------------------------------
  Cycle       Energy        RMS Gradient
 ---------------------------------------
    1    -307.9620164261      2.11e-02   Normal BFGS step
    2    -307.9613304597      3.61e-02  Line search: overstep
    3    -307.9649178487      6.68e-03   Normal BFGS step
    4    -307.9650413580      2.52e-03   Normal BFGS step
    5    -307.9650882258      2.25e-03   Normal BFGS step
    6    -307.9651010488      1.62e-03   Normal BFGS step
    7    -307.9651099242      3.85e-04   Normal BFGS step
    8    -307.9651116470      1.62e-04   Normal BFGS step
    9    -307.9651120392      1.26e-04   Normal BFGS step
   10    -307.9651121588      6.12e-05   Normal BFGS step
   11    -307.9651122072      4.31e-05   Normal BFGS step
   12    -307.9651122231      2.95e-05   Normal BFGS step
   13    -307.9651122274      2.35e-05   Normal BFGS step
   14    -307.9651122292      1.57e-05   Normal BFGS step
   15    -307.9651122299      8.78e-06   Normal BFGS step
   16    -307.9651122303      4.79e-06   Normal BFGS step
   17    -307.9651122304      2.51e-06   Normal BFGS step
   18    -307.9651122305      1.36e-06   Normal BFGS step
   19    -307.9651122305      4.76e-07   Normal BFGS step
   20    -307.9651122305      1.54e-07   Normal BFGS step
   21    -307.9651122305      6.99e-08  Convergence criterion met
 ---------------------------------------
 SCF time:   CPU 1461.13s  wall 99.00s 
<S^2> =          0.781406310
(3)  G-ENP(liq) elect-nuc-pol free energy of system     -307.965112230 a.u.
(4)  G-CDS(liq) cavity-dispersion-solvent structure 
     free energy                                                2.8631 kcal/mol
(6)  G-S(liq) free energy of system                     -307.960549652 a.u.
 SCF   energy in the final basis set =     -307.9605496524
 Total energy in the final basis set =     -307.9605496524
 
 --------------------------------------------------------------
 
                    Orbital Energies (a.u.)
 --------------------------------------------------------------
 
 Alpha MOs
 -- Occupied --
-19.3416 -10.3739 -10.3586 -10.3585 -10.3559 -10.3479 -10.3477  -1.0963
 -0.9922  -0.8805  -0.8783  -0.7296  -0.7250  -0.6426  -0.5736  -0.5678
 -0.5494  -0.5315  -0.5303  -0.5138  -0.4528  -0.4452  -0.4438  -0.4153
 -0.3589  -0.3235
 -- Virtual --
  0.0242   0.0369   0.0375   0.0556   0.0563   0.0577   0.0591   0.0598
  0.0838   0.0977   0.1120   0.1187   0.1376   0.1469   0.1573   0.1582
  0.1594   0.1614   0.1632   0.1668   0.1703   0.1776   0.1866   0.1905
  0.1911   0.1931   0.2093   0.2281   0.2287   0.2403   0.2530   0.2570
  0.2632   0.2764   0.2852   0.3039   0.3096   0.3218   0.3335   0.3428
  0.3482   0.3566   0.3637   0.3766   0.4113   0.4182   0.4225   0.4247
  0.4422   0.5058   0.5180   0.5370   0.5729   0.5894   0.5939   0.6014
  0.6102   0.6120   0.6182   0.6313   0.6339   0.6475   0.6536   0.6767
  0.6996   0.7051   0.7131   0.7181   0.7278   0.7345   0.7358   0.7417
  0.7608   0.8037   0.8051   0.8227   0.8279   0.8357   0.8435   0.8543
  0.8607   0.8800   0.8854   0.8883   0.9013   0.9065   0.9486   0.9984
  1.0392   1.0605   1.0654   1.0776   1.1153   1.1242   1.1606   1.1663
  1.1706   1.2077   1.2170   1.2226   1.2487   1.2679   1.2793   1.2976
  1.3071   1.3261   1.3627   1.3693   1.3744   1.4056   1.4161   1.4294
  1.4406   1.4461   1.4481   1.4532   1.4587   1.4754   1.5285   1.5493
  1.5647   1.5775   1.5802   1.6398   1.6526   1.7083   1.7685   1.8060
  1.8135   1.8177   1.8368   1.8744   1.8915   1.9429   1.9796   2.0425
  2.0463   2.0662   2.0936   2.1064   2.1706   2.3631   2.5580   2.5691
  2.6083   2.6347   2.6411   2.6688   2.7571   2.7850   2.7921   2.8043
  2.8071   2.8172   2.8311   2.8466   2.8595   2.8698   2.8711   2.8909
  2.9107   2.9219   2.9330   2.9496   2.9606   2.9984   3.0102   3.0336
  3.0778   3.1407   3.1498   3.1746   3.1755   3.1768   3.1999   3.2211
  3.2343   3.2553   3.2661   3.2899   3.3029   3.3431   3.3746   3.3850
  3.4123   3.4156   3.4270   3.4336   3.4606   3.4645   3.4780   3.4925
  3.4934   3.5153   3.5456   3.5781   3.6189   3.6247   3.6372   3.6918
  3.7551   3.7804   3.8044   3.8087   3.8359   3.8427   3.8509   3.8662
  3.8987   3.9185   3.9275   3.9387   3.9614   3.9711   3.9920   4.0304
  4.0687   4.1093   4.1331   4.1443   4.1541   4.1998   4.2593   4.2855
  4.2984   4.3321   4.3443   4.3972   4.4540   4.4659   4.4833   4.5104
  4.5338   4.5436   4.5609   4.5694   4.5777   4.5877   4.6822   4.7346
  4.7457   4.7937   4.8388   4.8589   5.0363   5.0866   5.1334   5.1425
  5.1589   5.1777   5.1826   5.1978   5.2298   5.2443   5.2662   5.2948
  5.3173   5.4190   5.4432   5.5056   5.6672   5.6825   5.8054   5.8304
  5.8490   5.8622   5.8912   6.2960   6.6008   6.9938   7.0381   7.1006
  7.1626   7.3018   7.5787  24.1490  24.7100  24.7747  24.9689  25.0379
 25.4938  50.5019
 
 Beta MOs
 -- Occupied --
-19.3242 -10.3738 -10.3556 -10.3555 -10.3533 -10.3493 -10.3492  -1.0559
 -0.9874  -0.8782  -0.8726  -0.7261  -0.7224  -0.6407  -0.5703  -0.5633
 -0.5335  -0.5302  -0.5258  -0.4853  -0.4484  -0.4424  -0.3954  -0.3678
 -0.3510
 -- Virtual --
 -0.0622   0.0242   0.0369   0.0375   0.0560   0.0574   0.0594   0.0666
  0.0774   0.0839   0.0970   0.1136   0.1184   0.1376   0.1473   0.1576
  0.1585   0.1594   0.1615   0.1636   0.1703   0.1710   0.1786   0.1867
  0.1905   0.1912   0.1934   0.2110   0.2282   0.2286   0.2409   0.2535
  0.2576   0.2685   0.2771   0.2859   0.3049   0.3104   0.3267   0.3339
  0.3438   0.3494   0.3582   0.3667   0.3777   0.4127   0.4194   0.4238
  0.4258   0.4441   0.5064   0.5200   0.5388   0.5766   0.5917   0.5983
  0.6033   0.6129   0.6137   0.6227   0.6332   0.6362   0.6502   0.6597
  0.6791   0.7016   0.7083   0.7152   0.7210   0.7287   0.7358   0.7369
  0.7435   0.7623   0.8063   0.8071   0.8248   0.8279   0.8385   0.8464
  0.8564   0.8611   0.8828   0.8869   0.8900   0.9027   0.9076   0.9541
  1.0033   1.0409   1.0620   1.0671   1.0814   1.1169   1.1266   1.1629
  1.1679   1.1783   1.2144   1.2182   1.2251   1.2542   1.2734   1.2812
  1.3023   1.3181   1.3355   1.3642   1.3726   1.3762   1.4081   1.4197
  1.4319   1.4444   1.4498   1.4506   1.4563   1.4609   1.4773   1.5330
  1.5531   1.5689   1.5799   1.5822   1.6450   1.6555   1.7222   1.7805
  1.8069   1.8158   1.8271   1.8428   1.8872   1.8964   1.9507   1.9966
  2.0482   2.0590   2.0700   2.0987   2.1140   2.1739   2.3688   2.5640
  2.5733   2.6119   2.6372   2.6457   2.6746   2.7659   2.7927   2.7963
  2.8076   2.8140   2.8226   2.8375   2.8518   2.8636   2.8740   2.8772
  2.8947   2.9166   2.9265   2.9378   2.9584   2.9708   3.0063   3.0187
  3.0387   3.0807   3.1447   3.1540   3.1776   3.1811   3.1833   3.2051
  3.2272   3.2390   3.2590   3.2711   3.2957   3.3091   3.3476   3.3814
  3.3883   3.4167   3.4188   3.4314   3.4369   3.4677   3.4699   3.4824
  3.4971   3.4979   3.5211   3.5480   3.5926   3.6187   3.6288   3.6402
  3.6972   3.7617   3.7870   3.8103   3.8131   3.8413   3.8485   3.8551
  3.8713   3.9046   3.9224   3.9321   3.9433   3.9669   3.9746   3.9967
  4.0371   4.0742   4.1140   4.1380   4.1478   4.1583   4.2020   4.2643
  4.2921   4.3030   4.3391   4.3493   4.4005   4.4576   4.4692   4.4928
  4.5178   4.5404   4.5502   4.5681   4.5736   4.5827   4.5935   4.6870
  4.7404   4.7498   4.8016   4.8447   4.8635   5.0435   5.1018   5.1505
  5.1578   5.1751   5.1916   5.2153   5.2239   5.2546   5.2785   5.2835
  5.3358   5.3802   5.4490   5.4540   5.5101   5.6810   5.7264   5.8128
  5.8394   5.8547   5.8669   5.8965   6.3014   6.6056   7.0605   7.0762
  7.1815   7.2226   7.3450   7.6294  24.1497  24.7109  24.7759  24.9707
 25.0386  25.4952  50.5144
 --------------------------------------------------------------
 
          Ground-State Mulliken Net Atomic Charges

     Atom                 Charge (a.u.)    Spin (a.u.)
  --------------------------------------------------------
      1 H                     0.289079       0.002290
      2 C                    -0.150258      -0.082935
      3 C                    -0.349856       0.206320
      4 H                     0.284811      -0.004118
      5 C                    -0.149988      -0.090724
      6 H                     0.288870       0.002469
      7 C                    -0.418548       0.198015
      8 H                     0.296163      -0.003807
      9 C                    -0.137632      -0.023987
     10 H                     0.346237       0.010518
     11 C                    -0.370202       0.182629
     12 H                     0.279985      -0.003485
     13 O                    -0.516017       0.615443
     14 H                     0.307356      -0.008628
  --------------------------------------------------------
  Sum of atomic charges =     0.000000
  Sum of spin   charges =     1.000000

 -----------------------------------------------------------------
                    Cartesian Multipole Moments
 -----------------------------------------------------------------
    Charge (ESU x 10^10)
                 0.0000
    Dipole Moment (Debye)
         X      -2.4595      Y      -2.6883      Z       0.4789
       Tot       3.6750
    Quadrupole Moments (Debye-Ang)
        XX     -36.7150     XY      -8.1835     YY     -58.3561
        XZ       4.7887     YZ       4.8738     ZZ     -34.5007
    Octopole Moments (Debye-Ang^2)
       XXX      40.9447    XXY     -63.5375    XYY      -4.6412
       YYY    -271.2920    XXZ      22.6294    XYZ      14.6482
       YYZ      39.3270    XZZ       2.0783    YZZ     -59.9146
       ZZZ      51.2648
    Hexadecapole Moments (Debye-Ang^3)
      XXXX    -334.2130   XXXY      42.6387   XXYY    -211.7795
      XYYY       4.2391   YYYY   -1073.0429   XXXZ       6.9059
      XXYZ      58.0649   XYYZ      45.2665   YYYZ     201.8991
      XXZZ    -132.8205   XYZZ     -20.8446   YYZZ    -212.1003
      XZZZ      32.3412   YZZZ     121.7509   ZZZZ    -396.3939
 -----------------------------------------------------------------
 Calculating analytic gradient of the SCF energy
 Gradient of CDS energy
            1           2           3           4           5           6
    1   0.0000981   0.0002861  -0.0002729  -0.0001056  -0.0004780  -0.0002066
    2   0.0000109   0.0000185   0.0000912   0.0000327   0.0000325   0.0000165
    3   0.0001822   0.0004044   0.0004399   0.0001740  -0.0000803  -0.0000045
            7           8           9          10          11          12
    1  -0.0001007  -0.0000959   0.0001262   0.0001178   0.0004010   0.0002047
    2  -0.0001742  -0.0000219  -0.0001079   0.0000101  -0.0000738  -0.0000219
    3  -0.0002855  -0.0001675  -0.0002066  -0.0001851  -0.0000686   0.0000052
           13          14
    1   0.0001135  -0.0000876
    2  -0.0001481   0.0003353
    3   0.0001561  -0.0003637
 Gradient of SCF Energy
            1           2           3           4           5           6
    1   0.0023166   0.0000145   0.0030384  -0.0039702   0.0074318  -0.0077857
    2   0.0001205   0.0039887  -0.0043917   0.0008544   0.0041307   0.0005294
    3   0.0048759  -0.0107071  -0.0011013   0.0063393  -0.0009360  -0.0003380
            7           8           9          10          11          12
    1   0.0021137  -0.0046494   0.0038983   0.0008356  -0.0059383   0.0030990
    2  -0.0072083  -0.0008699   0.0140285  -0.0031313  -0.0096627  -0.0017485
    3   0.0083651  -0.0089941   0.0037162  -0.0040931   0.0033134   0.0005820
           13          14
    1   0.0058986  -0.0063030
    2   0.0059433  -0.0025830
    3   0.0051076  -0.0061299
 Max gradient component =       1.403E-02
 RMS gradient           =       5.336E-03
[...]
    4      H      -1.8400744659     1.7601647541     1.8444261533
    5      C      -1.9766123157     1.4849022397    -0.2988769191
    6      H      -3.0579421052     1.5154575744    -0.3025147463
    7      C      -1.2957821439     1.3250962189    -1.4626508219
    8      H      -1.8134991037     1.1882979772    -2.4033158324
    9      C       0.1875123161     1.4939512643    -1.5101136547
   10      H       0.6422813172     0.8441664506    -2.2605064845
   11      C       0.8354506574     1.3139700377    -0.1750713887
   12      H       1.9038531874     1.1461295531    -0.1466597231
   13      O       0.4710299805     2.8778668752    -1.9080602141
   14      H      -0.1647666944     3.1188419630    -2.5932454880
 ----------------------------------------------------------------
 Nuclear Repulsion Energy =         282.24846776 hartrees
 There are       26 alpha and       25 beta electrons
 Discretize the solute cavity surface with Lebedev spheres
	Using 110 Lebedev grid points for each H atom
	Using 194 Lebedev grid points for other atoms
	Atomic van der Waals radii will be scaled by 1.20
 Remove points where switching function is < 1.0e-08
 Keep 1051 surface tesserae and discard 1077 interior tesserae
 Molecular Surface Area = 125.208 Angst**2

                       Distance Matrix (Angstroms)
             H (  1)   C (  2)   C (  3)   H (  4)   C (  5)   H (  6)
   C (  2)  1.082073
   C (  3)  2.158924  1.415107
   H (  4)  2.481112  2.167474  1.080406
   C (  5)  3.420153  2.448838  1.413058  2.165216
   H (  6)  4.301298  3.421959  2.158422  2.480411  1.081768
   C (  7)  3.895426  2.815397  2.407918  3.379689  1.357732  2.118339
   H (  8)  4.973904  3.895068  3.399184  4.286146  2.131488  2.463542
   C (  9)  3.464637  2.479341  2.852246  3.928729  2.480043  3.462908
   H ( 10)  4.230748  3.327435  3.805021  4.883812  3.334237  4.239813
   C ( 11)  2.117375  1.356588  2.410683  3.381700  2.819972  3.900685
   H ( 12)  2.457577  2.127159  3.399168  4.284677  3.898198  4.977962
   O ( 13)  4.096400  3.227478  3.570450  4.546605  3.243574  4.109450
   H ( 14)  4.883335  3.940430  3.992805  4.934125  3.349130  4.023525
             C (  7)   H (  8)   C (  9)   H ( 10)   C ( 11)   H ( 12)
   H (  8)  1.082403
   C (  9)  1.493629  2.212528
   H ( 10)  2.150339  2.483884  1.091845
   C ( 11)  2.490008  3.463784  1.494843  2.146408
   H ( 12)  3.464322  4.348906  2.219417  2.480140  1.081879
   O ( 13)  2.393974  2.884267  1.467640  2.071107  2.362589  2.855596
   H ( 14)  2.403115  2.545858  1.984325  2.436430  3.178925  3.762521
             O ( 13)
   H ( 14)  0.965290
 
 Applying Cartesian multipole field
    Component          Value
    ---------          -----
     (2,0,0)        1.00000E-11
     (0,2,0)        2.00000E-11
     (0,0,2)       -3.00000E-11
 Nucleus-field energy     =     0.0000000043 hartrees
 Requested basis set is 6-311++G(2df,2p)
 There are 98 shells and 308 basis functions
 A cutoff of  1.0D-12 yielded   4637 shell pairs
 There are     46605 function pairs (     58030 Cartesian)
 Smallest overlap matrix eigenvalue = 2.27E-06
 Guess MOs from SCF MO coefficient file

 -----------------------------------------------------------------------
  General SCF calculation program by
  Eric Jon Sundstrom, Paul Horn, Yuezhi Mao, Dmitri Zuev, Alec White,
  David Stuck, Shaama M.S., Shane Yost, Joonho Lee, David Small,
  Daniel Levine, Susi Lehtola, Hugh Burton, Evgeny Epifanovsky,
  Bang C. Huynh
 -----------------------------------------------------------------------
 Exchange:     0.1500 Hartree-Fock + 1.0000 wB97M-V + LR-HF
 Correlation:  1.0000 wB97M-V
 Using SG-2 standard quadrature grid
 Nonlocal Correlation:  VV10 with C = 0.0100 and b = 6.00 and scale = 1.00000
 Grid used for NLC:  SG-1 standard quadrature
 
 Citation of the SMD model:
 Marenich, A.V.; Cramer, C.J.; Truhlar, D.G.
 J. Phys. Chem. B 2009, 113, 6378-6396.
 iSolventCode=           1
 Solvent: water                                                           
 
 vradii
            1           2           3           4           5           6
    1   1.2000000   1.8500000   1.8500000   1.2000000   1.8500000   1.2000000
            7           8           9          10          11          12
    1   1.8500000   1.2000000   1.8500000   1.2000000   1.8500000   1.2000000
           13          14
    1   1.5200000   1.2000000
 -------------------------------------------------------
 OpenMP BLAS3 based DFT computing Module                
 Release: version 1.0, May 2013, Q-Chem Inc. Pittsburgh 
 -------------------------------------------------------
 A unrestricted SCF calculation will be
 performed using Roothaan-Hall, DIIS, GDM
 SCF converges when RMS gradient is below 1.0e-07
 ---------------------------------------
  Cycle       Energy         DIIS error
 ---------------------------------------
    1    -307.9692114420      2.07e-04  Roothaan Step
 ---------------------------------------
  Cycle       Energy         DIIS error
 ---------------------------------------
    1    -307.9844006489      2.35e-04  
    2    -307.9870942276      1.86e-04  Done DIIS. Switching to GDM
 ---------------------------------------
  Cycle       Energy        RMS Gradient
 ---------------------------------------
    1    -307.9870942276      6.73e-03   Normal BFGS step
    2    -307.9872744655      6.48e-03   Normal BFGS step
    3    -307.9883427509      1.02e-03   Normal BFGS step
    4    -307.9883553043      5.16e-04   Normal BFGS step
    5    -307.9883637016      2.59e-04   Normal BFGS step
    6    -307.9883641774      9.77e-05   Normal BFGS step
    7    -307.9883642929      9.77e-05   Normal BFGS step
    8    -307.9883643288      3.72e-05   Normal BFGS step
    9    -307.9883643382      2.14e-05   Normal BFGS step
   10    -307.9883643396      1.22e-05   Normal BFGS step
   11    -307.9883643403      6.32e-06   Normal BFGS step
   12    -307.9883643405      2.15e-06   Normal BFGS step
   13    -307.9883643405      1.15e-06   Normal BFGS step
   14    -307.9883643405      6.80e-07   Normal BFGS step
   15    -307.9883643405      3.10e-07   Normal BFGS step
   16    -307.9883643405      1.40e-07   Normal BFGS step
   17    -307.9883643405      9.10e-08  Convergence criterion met
 ---------------------------------------
 SCF time:   CPU 1217.55s  wall 82.00s 
<S^2> =          0.790107635
(3)  G-ENP(liq) elect-nuc-pol free energy of system     -307.988364341 a.u.
(4)  G-CDS(liq) cavity-dispersion-solvent structure 
     free energy                                                2.9194 kcal/mol
(6)  G-S(liq) free energy of system                     -307.983711980 a.u.
 SCF   energy in the final basis set =     -307.9837119797
 Total energy in the final basis set =     -307.9837119797
 
 --------------------------------------------------------------
 
                    Orbital Energies (a.u.)
 --------------------------------------------------------------
 
 Alpha MOs
 -- Occupied --
-19.3371 -10.3971 -10.3543 -10.3483 -10.3478 -10.3420 -10.3419  -1.1508
 -0.9737  -0.8770  -0.8605  -0.7384  -0.7159  -0.6344  -0.6189  -0.5752
 -0.5607  -0.5300  -0.5219  -0.4967  -0.4639  -0.4536  -0.4217  -0.3925
 -0.3629  -0.2775
 -- Virtual --
  0.0243   0.0373   0.0377   0.0528   0.0577   0.0588   0.0663   0.0846
  0.0996   0.1085   0.1151   0.1283   0.1365   0.1459   0.1566   0.1592
  0.1603   0.1632   0.1641   0.1657   0.1687   0.1775   0.1845   0.1918
  0.1928   0.1993   0.2121   0.2157   0.2226   0.2289   0.2435   0.2536
  0.2581   0.2835   0.2991   0.3118   0.3205   0.3339   0.3432   0.3520
  0.3576   0.3660   0.3723   0.3880   0.3979   0.4021   0.4254   0.4309
  0.4650   0.5131   0.5181   0.5239   0.5727   0.5815   0.5892   0.5967
  0.6024   0.6105   0.6139   0.6265   0.6373   0.6422   0.6584   0.6754
  0.6861   0.7038   0.7054   0.7188   0.7230   0.7310   0.7367   0.7587
  0.7619   0.7780   0.7974   0.8169   0.8200   0.8263   0.8406   0.8445
  0.8676   0.8709   0.8771   0.8910   0.9079   0.9264   0.9692   1.0006
  1.0634   1.0758   1.0844   1.1044   1.1171   1.1300   1.1477   1.1623
  1.2060   1.2163   1.2332   1.2420   1.2618   1.2789   1.2858   1.3011
  1.3080   1.3273   1.3458   1.3738   1.3853   1.3906   1.4036   1.4249
  1.4373   1.4448   1.4551   1.4696   1.4847   1.4884   1.5070   1.5499
  1.5710   1.5766   1.5904   1.6101   1.6292   1.7003   1.7060   1.7762
  1.7945   1.8043   1.8553   1.8796   1.9024   1.9604   2.0228   2.0322
  2.0583   2.0979   2.1953   2.2098   2.3114   2.4044   2.5544   2.5791
  2.6039   2.6289   2.6615   2.6884   2.7713   2.7827   2.7936   2.8085
  2.8196   2.8263   2.8378   2.8483   2.8563   2.8690   2.8963   2.9023
  2.9222   2.9305   2.9324   2.9615   2.9730   2.9968   3.0211   3.0506
  3.0670   3.0912   3.1629   3.1922   3.2042   3.2061   3.2532   3.2596
  3.2734   3.2884   3.3170   3.3230   3.3244   3.3480   3.3980   3.4125
  3.4180   3.4209   3.4352   3.4657   3.4737   3.4873   3.5023   3.5230
  3.5297   3.5541   3.5925   3.6146   3.6446   3.6663   3.7133   3.7318
  3.7515   3.7566   3.7766   3.7960   3.8183   3.8417   3.8574   3.8793
  3.8885   3.9167   3.9299   3.9428   3.9791   3.9856   4.0092   4.0318
  4.0881   4.1011   4.1452   4.1635   4.1757   4.1931   4.2188   4.2496
  4.2743   4.3010   4.3341   4.3513   4.3805   4.3958   4.4455   4.4638
  4.5019   4.5149   4.5408   4.5745   4.6136   4.6142   4.6353   4.6692
  4.7308   4.7554   4.7708   4.8256   4.9200   4.9965   5.0334   5.1304
  5.1315   5.2222   5.2436   5.2622   5.3290   5.3646   5.3854   5.4792
  5.4936   5.5921   5.6008   5.6631   5.7018   5.7524   5.8374   5.8977
  5.9088   5.9795   6.1805   6.3651   6.5016   7.1051   7.3169   7.3392
  7.3617   7.6450   7.7952  24.2134  24.5816  24.7773  24.8382  25.0851
 25.3680  50.6089
 
 Beta MOs
 -- Occupied --
-19.3347 -10.3978 -10.3470 -10.3446 -10.3445 -10.3428 -10.3424  -1.1454
 -0.9668  -0.8719  -0.8502  -0.7295  -0.7106  -0.6311  -0.6123  -0.5699
 -0.5537  -0.5269  -0.5183  -0.4891  -0.4593  -0.4268  -0.4171  -0.3885
 -0.3458
 -- Virtual --
 -0.0308   0.0236   0.0367   0.0372   0.0525   0.0573   0.0584   0.0841
  0.0848   0.0992   0.1119   0.1154   0.1306   0.1359   0.1446   0.1559
  0.1589   0.1602   0.1628   0.1647   0.1687   0.1691   0.1797   0.1835
  0.1914   0.1925   0.2004   0.2144   0.2213   0.2232   0.2287   0.2432
  0.2526   0.2558   0.2843   0.2990   0.3130   0.3255   0.3351   0.3471
  0.3562   0.3607   0.3664   0.3741   0.3911   0.4013   0.4044   0.4273
  0.4332   0.4650   0.5143   0.5216   0.5261   0.5763   0.5871   0.5944
  0.6019   0.6062   0.6149   0.6163   0.6285   0.6423   0.6488   0.6665
  0.6768   0.6895   0.7089   0.7108   0.7214   0.7261   0.7354   0.7389
  0.7605   0.7660   0.7812   0.8037   0.8203   0.8224   0.8305   0.8463
  0.8492   0.8684   0.8754   0.8799   0.8939   0.9110   0.9290   0.9724
  1.0036   1.0650   1.0768   1.0856   1.1060   1.1198   1.1330   1.1504
  1.1660   1.2095   1.2184   1.2355   1.2449   1.2655   1.2819   1.2897
  1.3036   1.3112   1.3320   1.3480   1.3759   1.3902   1.3945   1.4066
  1.4287   1.4436   1.4502   1.4612   1.4757   1.4876   1.4925   1.5122
  1.5535   1.5768   1.5805   1.5941   1.6123   1.6351   1.7059   1.7119
  1.7805   1.7968   1.8152   1.8603   1.8844   1.9073   1.9648   2.0265
  2.0364   2.0666   2.1021   2.1996   2.2153   2.3139   2.4069   2.5600
  2.5869   2.6139   2.6366   2.6724   2.6985   2.7818   2.7914   2.8171
  2.8246   2.8253   2.8326   2.8496   2.8612   2.8669   2.8792   2.9078
  2.9136   2.9402   2.9452   2.9505   2.9690   2.9894   3.0176   3.0376
  3.0632   3.0853   3.1136   3.1708   3.2026   3.2144   3.2162   3.2616
  3.2741   3.2804   3.2998   3.3224   3.3322   3.3382   3.3622   3.4125
  3.4260   3.4271   3.4316   3.4487   3.4759   3.4790   3.4985   3.5126
  3.5363   3.5400   3.5654   3.6193   3.6254   3.6587   3.6800   3.7238
  3.7407   3.7564   3.7661   3.7789   3.8110   3.8277   3.8489   3.8682
  3.8875   3.9013   3.9290   3.9389   3.9541   3.9896   3.9986   4.0158
  4.0399   4.0967   4.1104   4.1523   4.1738   4.1853   4.1997   4.2246
  4.2632   4.2864   4.3094   4.3423   4.3609   4.3880   4.4024   4.4555
  4.4793   4.5131   4.5301   4.5529   4.5838   4.6243   4.6291   4.6484
  4.6808   4.7381   4.7662   4.7850   4.8366   4.9357   5.0115   5.0481
  5.1442   5.1450   5.2359   5.2547   5.2694   5.3340   5.3695   5.3938
  5.4854   5.5013   5.6012   5.6113   5.6729   5.7066   5.7612   5.8579
  5.9043   5.9220   5.9867   6.1934   6.3762   6.5086   7.1090   7.3216
  7.3471   7.3691   7.6497   7.8038  24.2152  24.5835  24.7774  24.8439
 25.0865  25.3705  50.6110
 --------------------------------------------------------------
 
          Ground-State Mulliken Net Atomic Charges

     Atom                 Charge (a.u.)    Spin (a.u.)
  --------------------------------------------------------
      1 H                     0.282464       0.005021
      2 C                    -0.273572      -0.154711
      3 C                    -0.255957       0.513467
      4 H                     0.291743      -0.008840
      5 C                    -0.263060      -0.156768
      6 H                     0.281772       0.005111
      7 C                    -0.181065       0.390390
      8 H                     0.297891      -0.007841
      9 C                    -0.459540      -0.028170
     10 H                     0.209032       0.018822
     11 C                    -0.122029       0.382071
     12 H                     0.289525      -0.007036
     13 O                    -0.423716       0.043472
     14 H                     0.326512       0.005011
  --------------------------------------------------------
  Sum of atomic charges =     0.000000
  Sum of spin   charges =     1.000000

 -----------------------------------------------------------------
                    Cartesian Multipole Moments
 -----------------------------------------------------------------
    Charge (ESU x 10^10)
                 0.0000
    Dipole Moment (Debye)
         X      -1.8493      Y      -1.4010      Z      -0.5756
       Tot       2.3904
    Quadrupole Moments (Debye-Ang)
        XX     -38.5570     XY      -6.5507     YY     -52.0442
        XZ       3.5506     YZ       0.4121     ZZ     -33.3216
    Octopole Moments (Debye-Ang^2)
       XXX      43.9644    XXY     -66.5866    XYY       0.7102
       YYY    -245.8930    XXZ      23.3622    XYZ      10.9698
       YYZ      22.6165    XZZ       5.4388    YZZ     -52.7298
       ZZZ      46.8223
    Hexadecapole Moments (Debye-Ang^3)
      XXXX    -351.1224   XXXY      51.8449   XXYY    -212.5534
      XYYY      24.9294   YYYY    -933.5484   XXXZ       0.1645
      XXYZ      55.6437   XYYZ      31.8004   YYYZ     134.4822
      XXZZ    -136.7079   XYZZ      -9.7624   YYZZ    -175.2539
      XZZZ      22.8225   YZZZ      94.4322   ZZZZ    -386.0348
 -----------------------------------------------------------------
 Calculating analytic gradient of the SCF energy
 Gradient of CDS energy
            1           2           3           4           5           6
    1   0.0000964   0.0002975  -0.0002898  -0.0001030  -0.0004747  -0.0002080
    2  -0.0000019  -0.0000065   0.0001211   0.0000282   0.0000075   0.0000059
    3   0.0001847   0.0003880   0.0004781   0.0001707  -0.0000954  -0.0000007
            7           8           9          10          11          12
    1  -0.0001357  -0.0000924   0.0001876   0.0001007   0.0004384   0.0001978
    2  -0.0002116  -0.0000247   0.0001342  -0.0001036  -0.0000930  -0.0000311
    3  -0.0003033  -0.0001702  -0.0002684  -0.0001617  -0.0000527   0.0000053
           13          14
    1   0.0000051  -0.0000201
    2  -0.0002105   0.0003861
    3   0.0001600  -0.0003344
 Gradient of SCF Energy
            1           2           3           4           5           6
    1   0.0012401  -0.0007732   0.0044226  -0.0028046   0.0054393  -0.0053051
    2   0.0013024   0.0015730  -0.0024606   0.0006349   0.0023353   0.0020827
    3   0.0029754  -0.0067630  -0.0030458   0.0044249   0.0011268  -0.0004213
            7           8           9          10          11          12
    1   0.0048027  -0.0030684  -0.0030498   0.0017552  -0.0029344   0.0014789
    2  -0.0038501  -0.0017046   0.0081623  -0.0021171  -0.0063441  -0.0026916
    3   0.0062422  -0.0079727   0.0044248  -0.0041160   0.0013008   0.0001524
           13          14
    1   0.0073410  -0.0085445
    2   0.0030286   0.0000488
    3   0.0091895  -0.0075179
 Max gradient component =       9.190E-03
 RMS gradient           =       4.371E-03
 Computing fast CPCM-SWIG gradient
 Updating gradient with PCM contributions...
 -- total gradient after adding PCM contribution --
---------------------------------------------------
  Atom         X              Y              Z     
---------------------------------------------------
   1      -0.000016       0.001489      -0.000143
   2       0.000014       0.000034       0.000256
   3       0.000147      -0.000269      -0.000201
   4      -0.000004       0.000113      -0.000035
   5      -0.000057      -0.000154      -0.000045
   6       0.000514       0.001893      -0.000293
   7       0.000036      -0.001286      -0.000251
   8       0.000392      -0.001001       0.000045
   9       0.000416       0.000449      -0.000357
  10       0.000918       0.000672      -0.000910
  11       0.000311      -0.000963      -0.000013
  12      -0.000327      -0.001495       0.000225
  13      -0.001457      -0.000244       0.000922
  14      -0.000888       0.000762       0.000801
---------------------------------------------------
 Number of fixed atoms: 0
 Gradient time:  CPU 179.46 s  wall 14.95 s
rPathMan2.  file_steps = 952
 IRC --- Status = 4.  Checking bisector search.
 IRC --- Bisector search finished successfully.
 ------------------------------------------------------------------------
 Reaction path following.  The coordinates are cartesian              
 Step  10 E=    -307.983712 |G|=  0.004514 S_lin= 0.9105 S_tot= 1.0075
 ------------------------------------------------------------------------
  IRC -- convergence criterion reached.
 ----------------------------------------------------------------
             Standard Nuclear Orientation (Angstroms)
    I     Atom           X                Y                Z
 ----------------------------------------------------------------
    1      H       0.6135298090     1.5053337005     1.9318278117
    2      C       0.1015960107     1.4494939929     0.9811517894
    3      C      -1.2882840998     1.5877843034     0.9313026822
    4      H      -1.8423944469     1.7594740850     1.8439901262
    5      C      -1.9675492913     1.4879736587    -0.2798451500
    6      H      -3.0451492967     1.5738343491    -0.3033884476
    7      C      -1.2638190258     1.2666300816    -1.4473329736
    8      H      -1.7811367084     1.1718337996    -2.3923417805
    9      C       0.1452643752     1.1924855645    -1.4205684830
   10      H       0.6768378492     0.8555113243    -2.2973087516
   11      C       0.8136113657     1.2333105429    -0.1763311701
   12      H       1.8883997804     1.1181160216    -0.1492592103
   13      O       0.4996649382     3.1777941893    -1.9769465298
   14      H      -0.2079745594     3.2006939866    -2.6379585132
 ----------------------------------------------------------------
 Nuclear Repulsion Energy =         275.09089267 hartrees
 There are       26 alpha and       25 beta electrons
 Here is where we should summarize the reaction path
 Total job time:  4739.47s(wall), 68624.41s(cpu) 
 Tue Apr 30 12:57:28 2024

        *************************************************************
        *                                                           *
        *  Thank you very much for using Q-Chem.  Have a nice day.  *
        *                                                           *
        *************************************************************


