
Running Job 1 of 2 Q_in.in
qchem Q_in.in_26579.0 /scratch/ari.fischer/qChem2074377.hpc-mn1/qchem26579/ 0
/usr/local/qchem-5.4.1/exe/qcprog.exe_s Q_in.in_26579.0 /scratch/ari.fischer/qChem2074377.hpc-mn1/qchem26579/
                  Welcome to Q-Chem
     A Quantum Leap Into The Future Of Chemistry


 Q-Chem 5.4, Q-Chem, Inc., Pleasanton, CA (2021)

 License issued to: Nanyang Technological University (site)

 E. Epifanovsky,  A. T. B. Gilbert,  Xintian Feng,  Joonho Lee,  Yuezhi Mao,  
 N. Mardirossian,  P. Pokhilko,  A. White,  M. Wormit,  M. P. Coons,  
 A. L. Dempwolff,  Zhengting Gan,  D. Hait,  P. R. Horn,  L. D. Jacobson,  
 I. Kaliman,  J. Kussmann,  A. W. Lange,  Ka Un Lao,  D. S. Levine,  Jie Liu,  
 S. C. McKenzie,  A. F. Morrison,  K. Nanda,  F. Plasser,  D. R. Rehn,  
 M. L. Vidal,  Zhi-Qiang You,  Ying Zhu,  B. Alam,  B. Albrecht,  
 A. Aldossary,  E. Alguire,  J. H. Andersen,  D. Barton,  K. Begam,  A. Behn,  
 Y. A. Bernard,  E. J. Berquist,  H. Burton,  A. Carreras,  K. Carter-Fenk,  
 R. Chakraborty,  A. D. Chien,  K. D. Closser,  V. Cofer-Shabica,  
 S. Dasgupta,  Jia Deng,  M. de Wergifosse,  M. Diedenhofen,  Hainam Do,  
 S. Ehlert,  Po-Tung Fang,  S. Fatehi,  Qingguo Feng,  T. Friedhoff,  
 J. Gayvert,  Qinghui Ge,  G. Gidofalvi,  M. Goldey,  J. Gomes,  
 C. Gonzalez-Espinoza,  S. Gulania,  A. Gunina,  M. W. D. Hanson-Heine,  
 P. H. P. Harbach,  A. W. Hauser,  M. F. Herbst,  M. Hernandez Vera,  
 M. Hodecker,  Z. C. Holden,  S. Houck,  Xunkun Huang,  Kerwin Hui,  
 B. C. Huynh,  M. Ivanov,  Hyunjun Ji,  Hanjie Jiang,  B. Kaduk,  S. Kaehler,  
 K. Khistyaev,  Jaehoon Kim,  P. Klunzinger,  Z. Koczor-Benda,  
 Joong Hoon Koh,  D. Kosenkov,  L. Koulias,  T. Kowalczyk,  C. M. Krauter,  
 K. Kue,  A. Kunitsa,  T. Kus,  A. Landau,  K. V. Lawler,  D. Lefrancois,  
 S. Lehtola,  Rain Li,  Yi-Pei Li,  Jiashu Liang,  M. Liebenthal,  
 Hung-Hsuan Lin,  You-Sheng Lin,  Fenglai Liu,  Kuan-Yu Liu,  
 M. Loipersberger,  A. Luenser,  A. Manjanath,  P. Manohar,  E. Mansoor,  
 S. F. Manzer,  Shan-Ping Mao,  A. V. Marenich,  T. Markovich,  S. Mason,  
 S. A. Maurer,  P. F. McLaughlin,  M. F. S. J. Menger,  J.-M. Mewes,  
 S. A. Mewes,  P. Morgante,  J. W. Mullinax,  K. J. Oosterbaan,  G. Paran,  
 Alexander C. Paul,  Suranjan K. Paul,  F. Pavosevic,  Zheng Pei,  S. Prager,  
 E. I. Proynov,  E. Ramos,  B. Rana,  A. E. Rask,  A. Rettig,  R. M. Richard,  
 F. Rob,  E. Rossomme,  T. Scheele,  M. Scheurer,  M. Schneider,  
 N. Sergueev,  S. M. Sharada,  W. Skomorowski,  D. W. Small,  C. J. Stein,  
 Yu-Chuan Su,  E. J. Sundstrom,  Zhen Tao,  J. Thirman,  T. Tsuchimochi,  
 N. M. Tubman,  S. P. Veccham,  O. Vydrov,  J. Wenzel,  J. Witte,  A. Yamada,  
 Kun Yao,  S. Yeganeh,  S. R. Yost,  A. Zech,  Igor Ying Zhang,  Xing Zhang,  
 Yu Zhang,  D. Zuev,  A. Aspuru-Guzik,  A. T. Bell,  N. A. Besley,  
 K. B. Bravaya,  B. R. Brooks,  D. Casanova,  Jeng-Da Chai,  S. Coriani,  
 C. J. Cramer,  A. E. DePrince, III,  R. A. DiStasio Jr.,  A. Dreuw,  
 B. D. Dunietz,  T. R. Furlani,  W. A. Goddard III,  S. Grimme,  
 S. Hammes-Schiffer,  T. Head-Gordon,  W. J. Hehre,  Chao-Ping Hsu,  
 T.-C. Jagau,  Yousung Jung,  A. Klamt,  Jing Kong,  D. S. Lambrecht,  
 WanZhen Liang,  N. J. Mayhall,  C. W. McCurdy,  J. B. Neaton,  
 C. Ochsenfeld,  J. A. Parkhill,  R. Peverati,  V. A. Rassolov,  Yihan Shao,  
 L. V. Slipchenko,  T. Stauch,  R. P. Steele,  J. E. Subotnik,  
 A. J. W. Thom,  A. Tkatchenko,  D. G. Truhlar,  T. Van Voorhis,  
 T. A. Wesolowski,  K. B. Whaley,  H. L. Woodcock III,  P. M. Zimmerman,  
 S. Faraji,  P. M. W. Gill,  M. Head-Gordon,  J. M. Herbert,  A. I. Krylov

 Additional authors for Version 5.4.1: 
 S. Kotaru,  Shaozhi Li,  Xiangyuan Li,  F. Matz,  A. Molle,  Haisheng Ren,  
 Yingli Su,  Hung-Yi Tsai,  C. Utku,  Fang Wang

 Contributors to earlier versions of Q-Chem not listed above: 
 R. D. Adamson,  B. Austin,  R. Baer,  J. Baker,  G. J. O. Beran,  
 K. Brandhorst,  S. T. Brown,  E. F. C. Byrd,  A. K. Chakraborty,  
 G. K. L. Chan,  Chun-Min Chang,  Yunqing Chen,  C.-L. Cheng,  
 Siu Hung Chien,  D. M. Chipman,  D. L. Crittenden,  H. Dachsel,  
 R. J. Doerksen,  A. D. Dutoi,  R. G. Edgar,  J. Fosso-Tande,  
 L. Fusti-Molnar,  D. Ghosh,  A. Ghysels,  A. Golubeva-Zadorozhnaya,  
 J. Gonthier,  M. S. Gordon,  S. R. Gwaltney,  G. Hawkins,  J. E. Herr,  
 A. Heyden,  S. Hirata,  E. G. Hohenstein,  G. Kedziora,  F. J. Keil,  
 C. Kelley,  Jihan Kim,  R. A. King,  R. Z. Khaliullin,  P. P. Korambath,  
 W. Kurlancheek,  A. Laurent,  A. M. Lee,  M. S. Lee,  S. V. Levchenko,  
 Ching Yeh Lin,  D. Liotard,  E. Livshits,  R. C. Lochan,  I. Lotan,  
 L. A. Martinez-Martinez,  P. E. Maslen,  N. Nair,  D. P. O'Neill,  
 D. Neuhauser,  E. Neuscamman,  C. M. Oana,  R. Olivares-Amaya,  R. Olson,  
 T. M. Perrine,  B. Peters,  P. A. Pieniazek,  A. Prociuk,  Y. M. Rhee,  
 J. Ritchie,  M. A. Rohrdanz,  E. Rosta,  N. J. Russ,  H. F. Schaefer III,  
 M. W. Schmidt,  N. E. Schultz,  S. Sharma,  N. Shenvi,  C. D. Sherrill,  
 A. C. Simmonett,  A. Sodt,  T. Stein,  D. Stuck,  K. S. Thanthiriwatte,  
 V. Vanovschi,  L. Vogt,  Tao Wang,  A. Warshel,  M. A. Watson,  
 C. F. Williams,  Q. Wu,  X. Xu,  Jun Yang,  W. Zhang,  Yan Zhao

 Please cite Q-Chem as follows:
 Y. Shao et al., Mol. Phys. 113, 184-215 (2015)
 DOI: 10.1080/00268976.2014.952696

 Q-Chem 5.4.1 for Intel X86 EM64T Linux

 Parts of Q-Chem use Armadillo 9.800.1 (Horizon Scraper).
 http://arma.sourceforge.net/

 Q-Chem begins on Wed Apr 24 09:54:19 2024  

 Host: 
0

     Scratch files written to /scratch/ari.fischer/qChem2074377.hpc-mn1/qchem26579//
 Aug1521 |scratch|qcdevops|jenkins|workspace|build_RNUM 8249   
 Processing $rem in /usr/local/qchem-5.4.1/config/preferences:
 Processing $rem in /home/ari.fischer/.qchemrc:
 Symmetry turned off for PCM/SM12/SMD calculation


!!********************************************.
!!******************Warning*******************.
!!Desired Analytical derivatives not available.
!!Finite difference job might take a long time.
!!********************************************.
!!********************************************.


 2-order derivative to be evaluated numerically with 1-order analytical derivatives

 Checking the input file for inconsistencies... 	...done.

--------------------------------------------------------------
User input:
--------------------------------------------------------------
$molecule
0 2
H    0.5975413    1.4150051    1.9989805
C    0.0604941    1.4039422    1.0593498
C   -1.3536991    1.4015264    1.0747727
H   -1.8863849    1.4130136    2.0143839
C   -2.0668690    1.4014879   -0.1463163
H   -3.1491565    1.4159384   -0.1251551
C   -1.4169942    1.3879165   -1.3369196
H   -1.9669269    1.3892305   -2.2698904
C    0.0741557    1.3743427   -1.4357582
H    0.6506069    0.9429269   -2.3353053
C    0.7517461    1.3983753   -0.1075171
H    1.8341846    1.4072255   -0.1125566
O    0.7417469    3.1786111   -2.3771025
H    0.4721517    3.0507275   -3.2939744
$end

$rem
BASIS = 6-311++G(2df,2p)
GUI = 2
JOB_TYPE = Frequency
METHOD = wB97M-V
SCF_ALGORITHM = DIIS_GDM
MAX_SCF_CYCLES = 400
SCF_CONVERGENCE = 6
THRESH = 11
solvent_method = SMD
$end

--------------------------------------------------------------
 ----------------------------------------------------------------
             Standard Nuclear Orientation (Angstroms)
    I     Atom           X                Y                Z
 ----------------------------------------------------------------
    1      H       0.5975413000     1.4150051000     1.9989805000
    2      C       0.0604941000     1.4039422000     1.0593498000
    3      C      -1.3536991000     1.4015264000     1.0747727000
    4      H      -1.8863849000     1.4130136000     2.0143839000
    5      C      -2.0668690000     1.4014879000    -0.1463163000
    6      H      -3.1491565000     1.4159384000    -0.1251551000
    7      C      -1.4169942000     1.3879165000    -1.3369196000
    8      H      -1.9669269000     1.3892305000    -2.2698904000
    9      C       0.0741557000     1.3743427000    -1.4357582000
   10      H       0.6506069000     0.9429269000    -2.3353053000
   11      C       0.7517461000     1.3983753000    -0.1075171000
   12      H       1.8341846000     1.4072255000    -0.1125566000
   13      O       0.7417469000     3.1786111000    -2.3771025000
   14      H       0.4721517000     3.0507275000    -3.2939744000
 ----------------------------------------------------------------
 Nuclear Repulsion Energy =         265.54519479 hartrees
 There are       26 alpha and       25 beta electrons
 Requested basis set is 6-311++G(2df,2p)
 There are 98 shells and 308 basis functions

 Total QAlloc Memory Limit 288000 MB
 Mega-Array Size       188 MB
 MEM_STATIC part       192 MB
 
 Citation of the SMD model:
 Marenich, A.V.; Cramer, C.J.; Truhlar, D.G.
 J. Phys. Chem. B 2009, 113, 6378-6396.
 iSolventCode=           1
 Solvent: water                                                           
 
 vradii
            1           2           3           4           5           6
    1   1.2000000   1.8500000   1.8500000   1.2000000   1.8500000   1.2000000
            7           8           9          10          11          12
    1   1.8500000   1.2000000   1.8500000   1.2000000   1.8500000   1.2000000
           13          14
    1   1.5200000   1.2000000
 Changing PCM_VDW_RADII to SMD_RADIUS
 Discretize the solute cavity surface with Lebedev spheres
	Using 110 Lebedev grid points for each H atom
	Using 194 Lebedev grid points for other atoms
	Atomic van der Waals radii will be scaled by 1.20
 Remove points where switching function is < 1.0e-08
 Keep 1087 surface tesserae and discard 1041 interior tesserae
 Molecular Surface Area = 133.286 Angst**2

                       Distance Matrix (Angstroms)
             H (  1)   C (  2)   C (  3)   H (  4)   C (  5)   H (  6)
   C (  2)  1.082334
   C (  3)  2.159093  1.414279
   H (  4)  2.483975  2.168527  1.080164
   C (  5)  3.420755  2.445263  1.414097  2.168256
   H (  6)  4.306936  3.421265  2.159561  2.484397  1.082591
   C (  7)  3.897091  2.815197  2.412561  3.384109  1.356487  2.114130
   H (  8)  4.980002  3.898011  3.400437  4.285097  2.125960  2.449137
   C (  9)  3.474625  2.495321  2.888299  3.968463  2.499477  3.479821
   H ( 10)  4.360242  3.476270  3.981983  5.057381  3.519464  4.421166
   C ( 11)  2.112200  1.356259  2.414688  3.385619  2.818884  3.900982
   H ( 12)  2.447026  2.125877  3.401821  4.285621  3.901204  4.983365
   O ( 13)  4.720297  3.927182  4.411844  5.413831  4.002861  4.828811
   H ( 14)  5.541361  4.672558  5.013935  6.035186  4.367421  5.082108
             C (  7)   H (  8)   C (  9)   H ( 10)   C ( 11)   H ( 12)
   H (  8)  1.082988
   C (  9)  1.494484  2.204998
   H ( 10)  2.338753  2.656115  1.152216
   C ( 11)  2.492985  3.473777  1.491285  2.276116
   H ( 12)  3.474133  4.370682  2.202191  2.560672  1.082486
   O ( 13)  2.991443  3.248121  2.141773  2.237931  2.884503  3.075613
   H ( 14)  3.188083  3.123848  2.534094  2.322438  3.600271  3.831142
             O ( 13)
   H ( 14)  0.964204
 
 A cutoff of  1.0D-11 yielded   4461 shell pairs
 There are     44751 function pairs (     55600 Cartesian)
 Smallest overlap matrix eigenvalue = 1.18E-06

 Q-Chem warning in module stvman/mkSTV.C, line 323:

 Overlap eigenvalue is smaller than square root of threshold
 Use THRESH >= 12 to get rid of this warning

 Guess from superposition of atomic densities
 Warning:  Energy on first SCF cycle will be non-variational
 SAD guess density has 51.000000 electrons

 -----------------------------------------------------------------------
  General SCF calculation program by
  Eric Jon Sundstrom, Paul Horn, Yuezhi Mao, Dmitri Zuev, Alec White,
  David Stuck, Shaama M.S., Shane Yost, Joonho Lee, David Small,
  Daniel Levine, Susi Lehtola, Hugh Burton, Evgeny Epifanovsky,
  Bang C. Huynh
 -----------------------------------------------------------------------
 Exchange:     0.1500 Hartree-Fock + 1.0000 wB97M-V + LR-HF
 Correlation:  1.0000 wB97M-V
 Using SG-2 standard quadrature grid
 Nonlocal Correlation:  VV10 with C = 0.0100 and b = 6.00 and scale = 1.00000
 Grid used for NLC:  SG-1 standard quadrature
 using 16 threads for integral computing
 -------------------------------------------------------
 OpenMP Integral computing Module                
 Release: version 1.0, May 2013, Q-Chem Inc. Pittsburgh 
 -------------------------------------------------------
 
 Citation of the SMD model:
 Marenich, A.V.; Cramer, C.J.; Truhlar, D.G.
 J. Phys. Chem. B 2009, 113, 6378-6396.
 iSolventCode=           1
 Solvent: water                                                           
 
 vradii
            1           2           3           4           5           6
    1   1.2000000   1.8500000   1.8500000   1.2000000   1.8500000   1.2000000
            7           8           9          10          11          12
    1   1.8500000   1.2000000   1.8500000   1.2000000   1.8500000   1.2000000
           13          14
    1   1.5200000   1.2000000
 -------------------------------------------------------
 OpenMP BLAS3 based DFT computing Module                
 Release: version 1.0, May 2013, Q-Chem Inc. Pittsburgh 
 -------------------------------------------------------
 A unrestricted SCF calculation will be
 performed using DIIS, GDM
 SCF converges when RMS gradient is below 1.0e-06
 ---------------------------------------
  Cycle       Energy         DIIS error
 ---------------------------------------
    1    -309.5064351746      1.35e-02  
    2    -307.8140072688      1.71e-03  Done DIIS. Switching to GDM
 ---------------------------------------
  Cycle       Energy        RMS Gradient
 ---------------------------------------
    1    -307.8140072688      2.46e-01   Descent step
    2    -307.9242195377      4.12e-02   Normal BFGS step
    3    -307.9397646021      2.63e-02   Normal BFGS step
    4    -307.9426641473      1.63e-02   Normal BFGS step
    5    -307.9435270483      9.78e-03   Normal BFGS step
    6    -307.9441735110      4.23e-03   Normal BFGS step
    7    -307.9443774843      3.66e-03   Normal BFGS step
    8    -307.9444804880      2.42e-03   Normal BFGS step
    9    -307.9445137355      1.40e-03   Normal BFGS step
   10    -307.9445254578      1.24e-03   Normal BFGS step
   11    -307.9445302196      5.45e-04   Normal BFGS step
   12    -307.9445315529      2.10e-04   Normal BFGS step
   13    -307.9445318518      8.10e-05   Normal BFGS step
   14    -307.9445318988      5.73e-05   Normal BFGS step
   15    -307.9445319126      4.17e-05   Normal BFGS step
   16    -307.9445319175      3.13e-05   Normal BFGS step
   17    -307.9445319215      1.29e-05   Normal BFGS step
   18    -307.9445319227      5.55e-06   Normal BFGS step
   19    -307.9445319232      1.66e-06   Normal BFGS step
   20    -307.9445319233      1.31e-06   Normal BFGS step
   21    -307.9445319231      6.01e-07  Convergence criterion met
 ---------------------------------------
 SCF time:   CPU 1223.94s  wall 84.00s 
<S^2> =          0.801326870
(3)  G-ENP(liq) elect-nuc-pol free energy of system     -307.944531923 a.u.
(4)  G-CDS(liq) cavity-dispersion-solvent structure 
     free energy                                                3.1610 kcal/mol
(6)  G-S(liq) free energy of system                     -307.939494606 a.u.
 SCF   energy in the final basis set =     -307.9394946058
 Total energy in the final basis set =     -307.9394946058
 
 --------------------------------------------------------------
 
                    Orbital Energies (a.u.)
 --------------------------------------------------------------
 
 Alpha MOs
 -- Occupied --
-19.3301 -10.4036 -10.3706 -10.3683 -10.3663 -10.3534 -10.3527  -1.0827
 -0.9862  -0.8856  -0.8676  -0.7350  -0.7170  -0.6376  -0.5781  -0.5634
 -0.5460  -0.5331  -0.5243  -0.4950  -0.4670  -0.4382  -0.4329  -0.4073
 -0.3679  -0.3189
 -- Virtual --
  0.0239   0.0361   0.0377   0.0416   0.0556   0.0569   0.0585   0.0610
  0.0826   0.0991   0.1149   0.1171   0.1372   0.1426   0.1571   0.1582
  0.1589   0.1614   0.1617   0.1706   0.1747   0.1765   0.1840   0.1873
  0.1899   0.1930   0.2075   0.2234   0.2258   0.2406   0.2464   0.2533
  0.2588   0.2795   0.2822   0.2858   0.2961   0.3188   0.3215   0.3397
  0.3420   0.3495   0.3569   0.3673   0.3909   0.3988   0.4204   0.4274
  0.4323   0.5095   0.5185   0.5556   0.5673   0.5798   0.5928   0.6011
  0.6013   0.6023   0.6084   0.6250   0.6259   0.6358   0.6595   0.6789
  0.6830   0.6945   0.6987   0.7119   0.7164   0.7243   0.7289   0.7392
  0.7540   0.7566   0.8030   0.8100   0.8215   0.8240   0.8313   0.8362
  0.8518   0.8691   0.8728   0.8791   0.8868   0.9101   0.9346   0.9947
  1.0038   1.0159   1.0642   1.0658   1.0910   1.1098   1.1263   1.1340
  1.1424   1.1743   1.2070   1.2221   1.2400   1.2456   1.2620   1.2807
  1.2914   1.3341   1.3399   1.3516   1.3585   1.3738   1.3876   1.4006
  1.4092   1.4165   1.4268   1.4391   1.4504   1.4842   1.5057   1.5166
  1.5456   1.5667   1.5694   1.6247   1.6297   1.6940   1.7334   1.7539
  1.7887   1.7981   1.8034   1.8240   1.8847   1.9264   1.9438   1.9988
  2.0102   2.0606   2.0697   2.1105   2.2131   2.3755   2.5488   2.5614
  2.6089   2.6117   2.6320   2.6536   2.7365   2.7705   2.7725   2.7823
  2.7876   2.8107   2.8135   2.8335   2.8382   2.8607   2.8634   2.8694
  2.8949   2.9067   2.9197   2.9213   2.9555   2.9787   3.0012   3.0148
  3.0474   3.0602   3.1071   3.1389   3.1598   3.1663   3.1906   3.2152
  3.2198   3.2415   3.2441   3.2653   3.2691   3.2999   3.3213   3.3637
  3.3668   3.3818   3.4034   3.4147   3.4346   3.4620   3.4656   3.4736
  3.4827   3.5184   3.5213   3.5391   3.5813   3.6061   3.6288   3.6675
  3.7076   3.7459   3.7532   3.7757   3.7888   3.8145   3.8364   3.8456
  3.8577   3.8701   3.8941   3.9082   3.9276   3.9371   3.9435   3.9963
  4.0255   4.0679   4.0906   4.1346   4.1420   4.1577   4.2209   4.2339
  4.2727   4.2899   4.3212   4.3328   4.3499   4.3746   4.3971   4.4424
  4.4751   4.4973   4.5002   4.5127   4.5183   4.5823   4.6309   4.6518
  4.7094   4.7443   4.7570   4.8032   4.9659   5.0350   5.0400   5.1210
  5.1441   5.1475   5.1618   5.1759   5.2044   5.2297   5.2559   5.2818
  5.2972   5.3081   5.4196   5.4816   5.5758   5.6493   5.6783   5.6863
  5.7525   5.8249   5.8977   6.1802   6.4410   6.9801   7.0420   7.0811
  7.1422   7.3258   7.5716  24.1328  24.5796  24.6075  24.8169  25.0643
 25.3833  50.5072
 
 Beta MOs
 -- Occupied --
-19.3150 -10.4039 -10.3663 -10.3653 -10.3633 -10.3550 -10.3543  -1.0472
 -0.9819  -0.8835  -0.8604  -0.7311  -0.7138  -0.6348  -0.5743  -0.5599
 -0.5321  -0.5306  -0.5181  -0.4768  -0.4586  -0.4314  -0.3899  -0.3602
 -0.3571
 -- Virtual --
 -0.0724   0.0242   0.0364   0.0378   0.0537   0.0569   0.0578   0.0692
  0.0701   0.0830   0.0988   0.1152   0.1172   0.1377   0.1443   0.1578
  0.1588   0.1597   0.1613   0.1620   0.1730   0.1754   0.1775   0.1841
  0.1878   0.1901   0.1937   0.2084   0.2239   0.2260   0.2416   0.2505
  0.2534   0.2618   0.2817   0.2835   0.2867   0.2968   0.3221   0.3237
  0.3419   0.3443   0.3519   0.3577   0.3692   0.3931   0.3998   0.4229
  0.4288   0.4352   0.5102   0.5204   0.5585   0.5700   0.5832   0.5970
  0.6030   0.6031   0.6066   0.6100   0.6272   0.6287   0.6407   0.6641
  0.6808   0.6842   0.6971   0.7027   0.7139   0.7194   0.7267   0.7302
  0.7409   0.7553   0.7585   0.8064   0.8129   0.8237   0.8260   0.8332
  0.8374   0.8549   0.8706   0.8737   0.8815   0.8887   0.9127   0.9386
  0.9979   1.0075   1.0176   1.0657   1.0677   1.0941   1.1111   1.1290
  1.1378   1.1446   1.1769   1.2124   1.2288   1.2443   1.2502   1.2639
  1.2870   1.2971   1.3380   1.3424   1.3563   1.3605   1.3794   1.3911
  1.4036   1.4127   1.4194   1.4298   1.4419   1.4534   1.4864   1.5118
  1.5206   1.5469   1.5704   1.5716   1.6285   1.6335   1.7094   1.7406
  1.7639   1.7902   1.8041   1.8062   1.8313   1.8940   1.9344   1.9572
  2.0053   2.0186   2.0633   2.0753   2.1204   2.2174   2.3807   2.5565
  2.5656   2.6129   2.6174   2.6360   2.6588   2.7465   2.7763   2.7787
  2.7910   2.7962   2.8164   2.8188   2.8384   2.8433   2.8658   2.8691
  2.8772   2.9024   2.9114   2.9271   2.9327   2.9674   2.9891   3.0087
  3.0203   3.0603   3.0666   3.1049   3.1419   3.1669   3.1736   3.1946
  3.2196   3.2251   3.2500   3.2525   3.2672   3.2743   3.3040   3.3235
  3.3699   3.3722   3.3895   3.4099   3.4163   3.4418   3.4684   3.4750
  3.4798   3.4881   3.5235   3.5263   3.5432   3.5947   3.6138   3.6327
  3.6731   3.7121   3.7528   3.7588   3.7821   3.7945   3.8223   3.8446
  3.8519   3.8640   3.8772   3.8968   3.9154   3.9323   3.9415   3.9498
  4.0035   4.0327   4.0722   4.0946   4.1380   4.1473   4.1624   4.2247
  4.2387   4.2799   4.2984   4.3255   4.3373   4.3548   4.3806   4.4018
  4.4495   4.4799   4.5046   4.5070   4.5211   4.5248   4.5916   4.6373
  4.6613   4.7132   4.7507   4.7634   4.8087   4.9748   5.0447   5.0496
  5.1322   5.1598   5.1702   5.1884   5.2031   5.2295   5.2595   5.2908
  5.3064   5.3090   5.3530   5.4494   5.4862   5.5787   5.6609   5.6935
  5.7203   5.7568   5.8416   5.9023   6.1868   6.4468   7.0457   7.0683
  7.1475   7.2034   7.3586   7.6154  24.1337  24.5807  24.6078  24.8202
 25.0648  25.3847  50.5182
 --------------------------------------------------------------
 
          Ground-State Mulliken Net Atomic Charges

     Atom                 Charge (a.u.)    Spin (a.u.)
  --------------------------------------------------------
      1 H                     0.293034       0.002661
      2 C                    -0.241121      -0.099968
      3 C                    -0.239488       0.291737
      4 H                     0.290567      -0.004914
      5 C                    -0.256706      -0.102006
      6 H                     0.293644       0.002790
      7 C                    -0.301855       0.208139
      8 H                     0.286624      -0.004762
      9 C                    -0.232833      -0.038783
     10 H                     0.298372       0.023061
     11 C                    -0.173330       0.208634
     12 H                     0.283071      -0.004390
     13 O                    -0.616343       0.522152
     14 H                     0.316365      -0.004352
  --------------------------------------------------------
  Sum of atomic charges =     0.000000
  Sum of spin   charges =     1.000000

 -----------------------------------------------------------------
                    Cartesian Multipole Moments
 -----------------------------------------------------------------
    Charge (ESU x 10^10)
                 0.0000
    Dipole Moment (Debye)
         X      -2.5564      Y      -3.6358      Z       1.4634
       Tot       4.6792
    Quadrupole Moments (Debye-Ang)
        XX     -36.9825     XY      -7.1972     YY     -63.7401
        XZ       3.0059     YZ       8.1153     ZZ     -33.2408
    Octopole Moments (Debye-Ang^2)
       XXX      37.4728    XXY     -67.5409    XYY       0.0821
       YYY    -297.1792    XXZ      26.9558    XYZ      11.6031
       YYZ      54.0717    XZZ       7.4703    YZZ     -62.9125
       ZZZ      40.4818
    Hexadecapole Moments (Debye-Ang^3)
      XXXX    -370.5175   XXXY      20.3434   XXYY    -234.2203
      XYYY      -1.6374   YYYY   -1175.2516   XXXZ      33.7668
      XXYZ      76.3942   XYYZ      45.7344   YYYZ     296.8263
      XXZZ    -158.0780   XYZZ     -11.7541   YYZZ    -251.6789
      XZZZ      31.1736   YZZZ     121.4455   ZZZZ    -396.4307
 -----------------------------------------------------------------
 Calculating analytic gradient of the SCF energy
 Gradient of CDS energy
            1           2           3           4           5           6
    1   0.0001036   0.0003077  -0.0002844  -0.0000991  -0.0004921  -0.0002091
    2   0.0000021   0.0000019  -0.0000034   0.0000021   0.0000040   0.0000028
    3   0.0001813   0.0003818   0.0005022   0.0001749  -0.0000587   0.0000041
            7           8           9          10          11          12
    1  -0.0002756  -0.0000959   0.0001927   0.0001552   0.0004313   0.0002055
    2  -0.0000181   0.0000002  -0.0000950  -0.0000312   0.0000026   0.0000099
    3  -0.0003317  -0.0001795  -0.0002742  -0.0001822   0.0000396  -0.0000201
           13          14
    1   0.0000545   0.0000056
    2  -0.0001043   0.0002264
    3   0.0002224  -0.0004598
 Gradient of SCF Energy
            1           2           3           4           5           6
    1   0.0037607   0.0206733  -0.0033111  -0.0051377   0.0025157  -0.0099326
    2  -0.0000487  -0.0014628  -0.0006815   0.0003250  -0.0021722   0.0001474
    3   0.0074788  -0.0182608   0.0082529   0.0090329  -0.0257943   0.0007360
            7           8           9          10          11          12
    1  -0.0451029  -0.0027235   0.0055524   0.0263004  -0.0022859   0.0029413
    2  -0.0018074   0.0005370   0.0153902  -0.0185695  -0.0032601  -0.0002625
    3   0.0364706  -0.0075572  -0.0143659  -0.0359697   0.0533596  -0.0005036
           13          14
    1   0.0058138   0.0009361
    2   0.0101328   0.0017324
    3  -0.0084228  -0.0044565
 Max gradient component =       5.336E-02
 RMS gradient           =       1.628E-02
 Computing fast CPCM-SWIG gradient
 Updating gradient with PCM contributions...
 -- total gradient after adding PCM contribution --
---------------------------------------------------
  Atom         X              Y              Z     
---------------------------------------------------
   1       0.000255       0.000187       0.000543
   2       0.020443      -0.002540      -0.012980
   3      -0.008336      -0.000645       0.015228
   4       0.000044       0.000405      -0.000028
   5      -0.000735      -0.002808      -0.025214
   6      -0.000786       0.000308       0.000358
   7      -0.053576       0.000707       0.033449
   8       0.000876       0.001356      -0.001473
   9       0.007533       0.007425      -0.022903
  10       0.025310      -0.014759      -0.031314
  11       0.002328       0.000474       0.058525
  12       0.000440       0.001166      -0.001266
  13       0.002437       0.002359      -0.014626
  14       0.003769       0.006365       0.001700
---------------------------------------------------
 Number of fixed atoms: 0
 Gradient time:  CPU 146.45 s  wall 12.67 s
 ######################################################
 ######################################################
 # Starting finite difference calculation for IDERIV  #
 Finite diff step size:  1.88973e-03 a.u.
 ----------------------------------------------------------------
             Standard Nuclear Orientation (Angstroms)
    I     Atom           X                Y                Z
 ----------------------------------------------------------------
    1      H       0.5985413000     1.4150051000     1.9989805000
    2      C       0.0604941000     1.4039422000     1.0593498000
    3      C      -1.3536991000     1.4015264000     1.0747727000
    4      H      -1.8863849000     1.4130136000     2.0143839000
    5      C      -2.0668690000     1.4014879000    -0.1463163000
    6      H      -3.1491565000     1.4159384000    -0.1251551000
    7      C      -1.4169942000     1.3879165000    -1.3369196000
    8      H      -1.9669269000     1.3892305000    -2.2698904000
    9      C       0.0741557000     1.3743427000    -1.4357582000
   10      H       0.6506069000     0.9429269000    -2.3353053000
   11      C       0.7517461000     1.3983753000    -0.1075171000
   12      H       1.8341846000     1.4072255000    -0.1125566000
   13      O       0.7417469000     3.1786111000    -2.3771025000
   14      H       0.4721517000     3.0507275000    -3.2939744000
 ----------------------------------------------------------------
 Nuclear Repulsion Energy =         265.54285590 hartrees
 There are       26 alpha and       25 beta electrons
 Discretize the solute cavity surface with Lebedev spheres
	Using 110 Lebedev grid points for each H atom
	Using 194 Lebedev grid points for other atoms
	Atomic van der Waals radii will be scaled by 1.20
 Remove points where switching function is < 1.0e-08
 Keep 1087 surface tesserae and discard 1041 interior tesserae
 Molecular Surface Area = 133.288 Angst**2

                       Distance Matrix (Angstroms)
             H (  1)   C (  2)   C (  3)   H (  4)   C (  5)   H (  6)
   C (  2)  1.082831
   C (  3)  2.159996  1.414279
   H (  4)  2.484975  2.168527  1.080164
   C (  5)  3.421534  2.445263  1.414097  2.168256
   H (  6)  4.307806  3.421265  2.159561  2.484397  1.082591
   C (  7)  3.897608  2.815197  2.412561  3.384109  1.356487  2.114130
   H (  8)  4.980517  3.898011  3.400437  4.285097  2.125960  2.449137
   C (  9)  3.474775  2.495321  2.888299  3.968463  2.499477  3.479821
   H ( 10)  4.360230  3.476270  3.981983  5.057381  3.519464  4.421166
   C ( 11)  2.112127  1.356259  2.414688  3.385619  2.818884  3.900982
   H ( 12)  2.446521  2.125877  3.401821  4.285621  3.901204  4.983365
   O ( 13)  4.720267  3.927182  4.411844  5.413831  4.002861  4.828811
   H ( 14)  5.541384  4.672558  5.013935  6.035186  4.367421  5.082108
             C (  7)   H (  8)   C (  9)   H ( 10)   C ( 11)   H ( 12)
   H (  8)  1.082988
   C (  9)  1.494484  2.204998
   H ( 10)  2.338753  2.656115  1.152216
   C ( 11)  2.492985  3.473777  1.491285  2.276116
   H ( 12)  3.474133  4.370682  2.202191  2.560672  1.082486
   O ( 13)  2.991443  3.248121  2.141773  2.237931  2.884503  3.075613
   H ( 14)  3.188083  3.123848  2.534094  2.322438  3.600271  3.831142
             O ( 13)
   H ( 14)  0.964204
 
 Requested basis set is 6-311++G(2df,2p)
 There are 98 shells and 308 basis functions
 A cutoff of  1.0D-11 yielded   4461 shell pairs
 There are     44751 function pairs (     55600 Cartesian)
 Smallest overlap matrix eigenvalue = 1.18E-06

 Q-Chem warning in module stvman/mkSTV.C, line 323:

 Overlap eigenvalue is smaller than square root of threshold
 Use THRESH >= 12 to get rid of this warning

 Guess MOs from SCF MO coefficient file

 -----------------------------------------------------------------------
  General SCF calculation program by
  Eric Jon Sundstrom, Paul Horn, Yuezhi Mao, Dmitri Zuev, Alec White,
  David Stuck, Shaama M.S., Shane Yost, Joonho Lee, David Small,
  Daniel Levine, Susi Lehtola, Hugh Burton, Evgeny Epifanovsky,
  Bang C. Huynh
 -----------------------------------------------------------------------
 Exchange:     0.1500 Hartree-Fock + 1.0000 wB97M-V + LR-HF
 Correlation:  1.0000 wB97M-V
 Using SG-2 standard quadrature grid
 Nonlocal Correlation:  VV10 with C = 0.0100 and b = 6.00 and scale = 1.00000
 Grid used for NLC:  SG-1 standard quadrature
 
 Citation of the SMD model:
 Marenich, A.V.; Cramer, C.J.; Truhlar, D.G.
 J. Phys. Chem. B 2009, 113, 6378-6396.
 iSolventCode=           1
 Solvent: water                                                           
 
 vradii
            1           2           3           4           5           6
    1   1.2000000   1.8500000   1.8500000   1.2000000   1.8500000   1.2000000
            7           8           9          10          11          12
    1   1.8500000   1.2000000   1.8500000   1.2000000   1.8500000   1.2000000
           13          14
    1   1.5200000   1.2000000
 -------------------------------------------------------
 OpenMP BLAS3 based DFT computing Module                
 Release: version 1.0, May 2013, Q-Chem Inc. Pittsburgh 
 -------------------------------------------------------
 A unrestricted SCF calculation will be
 performed using Roothaan-Hall, DIIS, GDM
 SCF converges when RMS gradient is below 1.0e-06
 ---------------------------------------
  Cycle       Energy         DIIS error
 ---------------------------------------
    1    -307.9160344235      2.49e-04  Roothaan Step
 ---------------------------------------
  Cycle       Energy         DIIS error
 ---------------------------------------
    1    -307.9372096632      3.24e-04  
    2    -307.9400210125      3.69e-04  Done DIIS. Switching to GDM
 ---------------------------------------
  Cycle       Energy        RMS Gradient
 ---------------------------------------
    1    -307.9400210125      3.03e-02   Normal BFGS step
    2    -307.9381449477      5.19e-02  Line search: overstep
    3    -307.9442670247      7.18e-03   Normal BFGS step
    4    -307.9444225588      3.08e-03   Normal BFGS step
    5    -307.9444844582      2.68e-03   Normal BFGS step
    6    -307.9445042618      2.30e-03   Normal BFGS step
    7    -307.9445229760      9.35e-04   Normal BFGS step
    8    -307.9445294616      5.12e-04   Normal BFGS step
    9    -307.9445308047      3.83e-04   Normal BFGS step
   10    -307.9445312033      1.42e-04   Normal BFGS step
   11    -307.9445313397      7.37e-05   Normal BFGS step
   12    -307.9445313855      3.10e-05   Normal BFGS step
   13    -307.9445313972      2.19e-05   Normal BFGS step
   14    -307.9445314000      1.54e-05   Normal BFGS step
   15    -307.9445314007      9.95e-06   Normal BFGS step
   16    -307.9445314010      5.30e-06   Normal BFGS step
   17    -307.9445314012      2.75e-06   Normal BFGS step
   18    -307.9445314015      1.64e-06   Normal BFGS step
   19    -307.9445314015      7.28e-07  Convergence criterion met
 ---------------------------------------
 SCF time:   CPU 1179.29s  wall 81.00s 
<S^2> =          0.801328785
(3)  G-ENP(liq) elect-nuc-pol free energy of system     -307.944531402 a.u.
(4)  G-CDS(liq) cavity-dispersion-solvent structure 
     free energy                                                3.1611 kcal/mol
(6)  G-S(liq) free energy of system                     -307.939493888 a.u.
 SCF   energy in the final basis set =     -307.9394938879
 Total energy in the final basis set =     -307.9394938879
 
 --------------------------------------------------------------
 
                    Orbital Energies (a.u.)
 --------------------------------------------------------------
 
 Alpha MOs
 -- Occupied --
-19.3301 -10.4036 -10.3706 -10.3683 -10.3663 -10.3534 -10.3527  -1.0827
 -0.9862  -0.8856  -0.8676  -0.7350  -0.7169  -0.6376  -0.5781  -0.5634
 -0.5460  -0.5331  -0.5243  -0.4950  -0.4670  -0.4382  -0.4329  -0.4073
 -0.3679  -0.3189
 -- Virtual --
  0.0239   0.0361   0.0377   0.0416   0.0556   0.0569   0.0585   0.0610
  0.0826   0.0991   0.1149   0.1171   0.1372   0.1426   0.1571   0.1582
  0.1589   0.1614   0.1617   0.1706   0.1747   0.1765   0.1840   0.1873
  0.1899   0.1930   0.2075   0.2234   0.2258   0.2406   0.2464   0.2533
  0.2588   0.2795   0.2822   0.2857   0.2961   0.3188   0.3215   0.3397
  0.3420   0.3495   0.3568   0.3673   0.3909   0.3988   0.4204   0.4274
  0.4323   0.5095   0.5185   0.5556   0.5673   0.5798   0.5928   0.6010
  0.6012   0.6023   0.6084   0.6250   0.6259   0.6358   0.6595   0.6789
  0.6830   0.6945   0.6987   0.7119   0.7164   0.7243   0.7288   0.7391
  0.7540   0.7566   0.8030   0.8100   0.8215   0.8239   0.8313   0.8362
  0.8518   0.8691   0.8728   0.8791   0.8868   0.9101   0.9346   0.9947
  1.0038   1.0159   1.0642   1.0658   1.0910   1.1097   1.1264   1.1340
  1.1424   1.1744   1.2070   1.2221   1.2400   1.2455   1.2620   1.2807
  1.2912   1.3341   1.3400   1.3516   1.3585   1.3738   1.3875   1.4006
  1.4092   1.4165   1.4268   1.4391   1.4503   1.4842   1.5057   1.5166
  1.5455   1.5667   1.5694   1.6247   1.6297   1.6940   1.7333   1.7539
  1.7887   1.7981   1.8034   1.8240   1.8847   1.9264   1.9438   1.9987
  2.0102   2.0607   2.0695   2.1105   2.2132   2.3755   2.5488   2.5615
  2.6090   2.6117   2.6320   2.6536   2.7365   2.7705   2.7725   2.7823
  2.7876   2.8106   2.8135   2.8335   2.8382   2.8607   2.8634   2.8694
  2.8949   2.9067   2.9197   2.9213   2.9555   2.9787   3.0011   3.0148
  3.0474   3.0602   3.1071   3.1389   3.1598   3.1664   3.1905   3.2153
  3.2198   3.2415   3.2441   3.2653   3.2690   3.2998   3.3213   3.3637
  3.3668   3.3818   3.4034   3.4146   3.4346   3.4620   3.4656   3.4736
  3.4826   3.5184   3.5213   3.5391   3.5813   3.6061   3.6286   3.6674
  3.7075   3.7459   3.7532   3.7757   3.7887   3.8145   3.8364   3.8456
  3.8578   3.8701   3.8941   3.9081   3.9276   3.9371   3.9435   3.9964
  4.0255   4.0679   4.0905   4.1345   4.1418   4.1576   4.2209   4.2338
  4.2727   4.2899   4.3211   4.3328   4.3499   4.3746   4.3969   4.4423
  4.4751   4.4972   4.5002   4.5127   4.5183   4.5822   4.6307   4.6518
  4.7090   4.7441   4.7570   4.8031   4.9658   5.0349   5.0399   5.1209
  5.1439   5.1474   5.1617   5.1759   5.2043   5.2296   5.2559   5.2818
  5.2972   5.3080   5.4196   5.4813   5.5758   5.6492   5.6783   5.6863
  5.7525   5.8248   5.8969   6.1798   6.4409   6.9801   7.0420   7.0811
  7.1422   7.3258   7.5716  24.1326  24.5795  24.6074  24.8169  25.0641
 25.3832  50.5072
 
 Beta MOs
 -- Occupied --
-19.3150 -10.4038 -10.3663 -10.3653 -10.3633 -10.3550 -10.3543  -1.0472
 -0.9819  -0.8835  -0.8604  -0.7311  -0.7138  -0.6348  -0.5742  -0.5599
 -0.5321  -0.5306  -0.5181  -0.4768  -0.4585  -0.4314  -0.3899  -0.3602
 -0.3571
 -- Virtual --
 -0.0725   0.0242   0.0364   0.0378   0.0537   0.0569   0.0578   0.0692
  0.0701   0.0830   0.0988   0.1152   0.1172   0.1377   0.1443   0.1578
  0.1588   0.1597   0.1613   0.1620   0.1730   0.1754   0.1775   0.1841
  0.1878   0.1901   0.1937   0.2084   0.2239   0.2260   0.2416   0.2505
  0.2534   0.2618   0.2817   0.2835   0.2867   0.2968   0.3221   0.3236
  0.3419   0.3443   0.3519   0.3577   0.3692   0.3931   0.3997   0.4228
  0.4288   0.4352   0.5102   0.5204   0.5585   0.5700   0.5832   0.5970
  0.6029   0.6031   0.6066   0.6100   0.6272   0.6287   0.6407   0.6641
  0.6808   0.6842   0.6971   0.7027   0.7139   0.7193   0.7267   0.7302
  0.7408   0.7553   0.7585   0.8064   0.8128   0.8237   0.8260   0.8332
  0.8374   0.8549   0.8706   0.8737   0.8815   0.8887   0.9127   0.9387
  0.9979   1.0075   1.0176   1.0656   1.0677   1.0941   1.1111   1.1290
  1.1378   1.1446   1.1769   1.2124   1.2288   1.2443   1.2501   1.2639
  1.2870   1.2970   1.3380   1.3424   1.3563   1.3604   1.3794   1.3910
  1.4036   1.4127   1.4193   1.4298   1.4419   1.4533   1.4864   1.5118
  1.5206   1.5468   1.5704   1.5716   1.6285   1.6335   1.7094   1.7405
  1.7638   1.7902   1.8041   1.8063   1.8313   1.8940   1.9344   1.9572
  2.0052   2.0186   2.0633   2.0751   2.1203   2.2175   2.3807   2.5565
  2.5657   2.6130   2.6174   2.6360   2.6588   2.7465   2.7763   2.7786
  2.7909   2.7962   2.8164   2.8188   2.8384   2.8432   2.8658   2.8691
  2.8772   2.9024   2.9114   2.9270   2.9327   2.9674   2.9892   3.0087
  3.0203   3.0603   3.0666   3.1049   3.1419   3.1669   3.1736   3.1946
  3.2197   3.2252   3.2500   3.2525   3.2672   3.2742   3.3040   3.3235
  3.3699   3.3722   3.3895   3.4099   3.4163   3.4418   3.4685   3.4750
  3.4798   3.4881   3.5235   3.5262   3.5432   3.5947   3.6138   3.6326
  3.6730   3.7120   3.7528   3.7589   3.7821   3.7944   3.8223   3.8445
  3.8519   3.8640   3.8772   3.8968   3.9153   3.9324   3.9415   3.9498
  4.0036   4.0327   4.0721   4.0945   4.1378   4.1471   4.1623   4.2246
  4.2386   4.2799   4.2984   4.3254   4.3373   4.3548   4.3806   4.4016
  4.4494   4.4799   4.5045   4.5070   4.5212   4.5248   4.5915   4.6371
  4.6612   4.7129   4.7505   4.7633   4.8086   4.9748   5.0446   5.0495
  5.1321   5.1595   5.1701   5.1884   5.2031   5.2294   5.2593   5.2908
  5.3065   5.3088   5.3529   5.4494   5.4859   5.5787   5.6607   5.6934
  5.7203   5.7568   5.8416   5.9016   6.1864   6.4467   7.0457   7.0683
  7.1475   7.2034   7.3586   7.6154  24.1335  24.5805  24.6078  24.8202
 25.0646  25.3845  50.5182
 --------------------------------------------------------------
 
          Ground-State Mulliken Net Atomic Charges

     Atom                 Charge (a.u.)    Spin (a.u.)
  --------------------------------------------------------
      1 H                     0.292952       0.002664
      2 C                    -0.240538      -0.099974
      3 C                    -0.240197       0.291735
      4 H                     0.290563      -0.004914
      5 C                    -0.256503      -0.102009
      6 H                     0.293654       0.002790
      7 C                    -0.301980       0.208154
      8 H                     0.286625      -0.004762
      9 C                    -0.232656      -0.038796
     10 H                     0.298369       0.023062
     11 C                    -0.173396       0.208636
     12 H                     0.283083      -0.004389
     13 O                    -0.616342       0.522154
     14 H                     0.316365      -0.004352
  --------------------------------------------------------
  Sum of atomic charges =     0.000000
  Sum of spin   charges =     1.000000

 -----------------------------------------------------------------
                    Cartesian Multipole Moments
 -----------------------------------------------------------------
    Charge (ESU x 10^10)
                 0.0000
    Dipole Moment (Debye)
         X      -2.5561      Y      -3.6357      Z       1.4629
       Tot       4.6789
    Quadrupole Moments (Debye-Ang)
        XX     -36.9808     XY      -7.1967     YY     -63.7405
        XZ       3.0074     YZ       8.1144     ZZ     -33.2427
    Octopole Moments (Debye-Ang^2)
       XXX      37.4686    XXY     -67.5384    XYY       0.0818
       YYY    -297.1810    XXZ      26.9573    XYZ      11.6052
       YYZ      54.0688    XZZ       7.4725    YZZ     -62.9148
       ZZZ      40.4749
    Hexadecapole Moments (Debye-Ang^3)
      XXXX    -370.5123   XXXY      20.3375   XXYY    -234.2174
      XYYY      -1.6409   YYYY   -1175.2568   XXXZ      33.7647
      XXYZ      76.3963   XYYZ      45.7351   YYYZ     296.8171
      XXZZ    -158.0742   XYZZ     -11.7507   YYZZ    -251.6841
      XZZZ      31.1756   YZZZ     121.4349   ZZZZ    -396.4520
 -----------------------------------------------------------------
 Calculating analytic gradient of the SCF energy
 Gradient of CDS energy
            1           2           3           4           5           6
    1   0.0001041   0.0003072  -0.0002843  -0.0000991  -0.0004921  -0.0002091
    2   0.0000021   0.0000019  -0.0000034   0.0000021   0.0000040   0.0000028
    3   0.0001818   0.0003813   0.0005022   0.0001749  -0.0000587   0.0000041
            7           8           9          10          11          12
    1  -0.0002756  -0.0000959   0.0001927   0.0001552   0.0004313   0.0002055
    2  -0.0000181   0.0000002  -0.0000950  -0.0000312   0.0000026   0.0000099
    3  -0.0003317  -0.0001795  -0.0002742  -0.0001822   0.0000397  -0.0000201
           13          14
    1   0.0000545   0.0000056
    2  -0.0001043   0.0002264
    3   0.0002224  -0.0004598
 Gradient of SCF Energy
            1           2           3           4           5           6
    1   0.0040196   0.0204262  -0.0033347  -0.0051347   0.0025052  -0.0099345
    2  -0.0000455  -0.0014666  -0.0006815   0.0003250  -0.0021726   0.0001474
    3   0.0077168  -0.0184866   0.0081991   0.0090309  -0.0257901   0.0007332
            7           8           9          10          11          12
    1  -0.0451034  -0.0027235   0.0055497   0.0263012  -0.0022659   0.0029445
    2  -0.0018069   0.0005370   0.0153890  -0.0185693  -0.0032591  -0.0002625
    3   0.0364719  -0.0075580  -0.0143602  -0.0359686   0.0533947  -0.0005038
           13          14
    1   0.0058141   0.0009360
    2   0.0101332   0.0017323
    3  -0.0084226  -0.0044567
 Max gradient component =       5.339E-02
 RMS gradient           =       1.629E-02
 Computing fast CPCM-SWIG gradient
 Updating gradient with PCM contributions...
 -- total gradient after adding PCM contribution --
---------------------------------------------------
  Atom         X              Y              Z     
---------------------------------------------------
   1       0.000505       0.000190       0.000789
   2       0.020200      -0.002543      -0.013210
   3      -0.008357      -0.000646       0.015175
   4       0.000047       0.000405      -0.000027
   5      -0.000745      -0.002808      -0.025213
   6      -0.000787       0.000308       0.000356
   7      -0.053578       0.000707       0.033451
   8       0.000876       0.001356      -0.001473
   9       0.007531       0.007425      -0.022897
  10       0.025311      -0.014758      -0.031313
  11       0.002349       0.000473       0.058556
  12       0.000442       0.001166      -0.001267
  13       0.002437       0.002359      -0.014626
  14       0.003769       0.006365       0.001700
---------------------------------------------------
 Number of fixed atoms: 0
 Gradient time:  CPU 143.92 s  wall 12.03 s
 ----------------------------------------------------------------
             Standard Nuclear Orientation (Angstroms)
    I     Atom           X                Y                Z
 ----------------------------------------------------------------
    1      H       0.5965413000     1.4150051000     1.9989805000
    2      C       0.0604941000     1.4039422000     1.0593498000
    3      C      -1.3536991000     1.4015264000     1.0747727000
    4      H      -1.8863849000     1.4130136000     2.0143839000
    5      C      -2.0668690000     1.4014879000    -0.1463163000
    6      H      -3.1491565000     1.4159384000    -0.1251551000
    7      C      -1.4169942000     1.3879165000    -1.3369196000
    8      H      -1.9669269000     1.3892305000    -2.2698904000
    9      C       0.0741557000     1.3743427000    -1.4357582000
   10      H       0.6506069000     0.9429269000    -2.3353053000
   11      C       0.7517461000     1.3983753000    -0.1075171000
   12      H       1.8341846000     1.4072255000    -0.1125566000
   13      O       0.7417469000     3.1786111000    -2.3771025000
   14      H       0.4721517000     3.0507275000    -3.2939744000
 ----------------------------------------------------------------
 Nuclear Repulsion Energy =         265.54753315 hartrees
 There are       26 alpha and       25 beta electrons
 Discretize the solute cavity surface with Lebedev spheres
	Using 110 Lebedev grid points for each H atom
	Using 194 Lebedev grid points for other atoms
	Atomic van der Waals radii will be scaled by 1.20
 Remove points where switching function is < 1.0e-08
 Keep 1087 surface tesserae and discard 1041 interior tesserae
 Molecular Surface Area = 133.283 Angst**2

                       Distance Matrix (Angstroms)
             H (  1)   C (  2)   C (  3)   H (  4)   C (  5)   H (  6)
   C (  2)  1.081839
   C (  3)  2.158189  1.414279
   H (  4)  2.482975  2.168527  1.080164
   C (  5)  3.419976  2.445263  1.414097  2.168256
   H (  6)  4.306066  3.421265  2.159561  2.484397  1.082591
   C (  7)  3.896574  2.815197  2.412561  3.384109  1.356487  2.114130
   H (  8)  4.979487  3.898011  3.400437  4.285097  2.125960  2.449137
   C (  9)  3.474474  2.495321  2.888299  3.968463  2.499477  3.479821
   H ( 10)  4.360254  3.476270  3.981983  5.057381  3.519464  4.421166
   C ( 11)  2.112273  1.356259  2.414688  3.385619  2.818884  3.900982
   H ( 12)  2.447531  2.125877  3.401821  4.285621  3.901204  4.983365
   O ( 13)  4.720328  3.927182  4.411844  5.413831  4.002861  4.828811
   H ( 14)  5.541338  4.672558  5.013935  6.035186  4.367421  5.082108
             C (  7)   H (  8)   C (  9)   H ( 10)   C ( 11)   H ( 12)
   H (  8)  1.082988
   C (  9)  1.494484  2.204998
   H ( 10)  2.338753  2.656115  1.152216
   C ( 11)  2.492985  3.473777  1.491285  2.276116
   H ( 12)  3.474133  4.370682  2.202191  2.560672  1.082486
   O ( 13)  2.991443  3.248121  2.141773  2.237931  2.884503  3.075613
   H ( 14)  3.188083  3.123848  2.534094  2.322438  3.600271  3.831142
             O ( 13)
   H ( 14)  0.964204
 
 Requested basis set is 6-311++G(2df,2p)
 There are 98 shells and 308 basis functions
 A cutoff of  1.0D-11 yielded   4461 shell pairs
 There are     44751 function pairs (     55600 Cartesian)
 Smallest overlap matrix eigenvalue = 1.18E-06

 Q-Chem warning in module stvman/mkSTV.C, line 323:

 Overlap eigenvalue is smaller than square root of threshold
 Use THRESH >= 12 to get rid of this warning

 Guess MOs from SCF MO coefficient file

 -----------------------------------------------------------------------
  General SCF calculation program by
  Eric Jon Sundstrom, Paul Horn, Yuezhi Mao, Dmitri Zuev, Alec White,
  David Stuck, Shaama M.S., Shane Yost, Joonho Lee, David Small,
  Daniel Levine, Susi Lehtola, Hugh Burton, Evgeny Epifanovsky,
  Bang C. Huynh
 -----------------------------------------------------------------------
 Exchange:     0.1500 Hartree-Fock + 1.0000 wB97M-V + LR-HF
 Correlation:  1.0000 wB97M-V
 Using SG-2 standard quadrature grid
 Nonlocal Correlation:  VV10 with C = 0.0100 and b = 6.00 and scale = 1.00000
 Grid used for NLC:  SG-1 standard quadrature
 
 Citation of the SMD model:
 Marenich, A.V.; Cramer, C.J.; Truhlar, D.G.
 J. Phys. Chem. B 2009, 113, 6378-6396.
 iSolventCode=           1
 Solvent: water                                                           
 
 vradii
            1           2           3           4           5           6
    1   1.2000000   1.8500000   1.8500000   1.2000000   1.8500000   1.2000000
            7           8           9          10          11          12
    1   1.8500000   1.2000000   1.8500000   1.2000000   1.8500000   1.2000000
           13          14
    1   1.5200000   1.2000000
 -------------------------------------------------------
 OpenMP BLAS3 based DFT computing Module                
 Release: version 1.0, May 2013, Q-Chem Inc. Pittsburgh 
 -------------------------------------------------------
 A unrestricted SCF calculation will be
 performed using Roothaan-Hall, DIIS, GDM
 SCF converges when RMS gradient is below 1.0e-06
 ---------------------------------------
  Cycle       Energy         DIIS error
 ---------------------------------------
    1    -307.9160380845      2.49e-04  Roothaan Step
 ---------------------------------------
  Cycle       Energy         DIIS error
 ---------------------------------------
    1    -307.9372068409      3.24e-04  
    2    -307.9400185184      3.69e-04  Done DIIS. Switching to GDM
 ---------------------------------------
  Cycle       Energy        RMS Gradient
 ---------------------------------------
    1    -307.9400185184      3.03e-02   Normal BFGS step
    2    -307.9381422315      5.19e-02  Line search: overstep
    3    -307.9442673634      7.18e-03   Normal BFGS step
    4    -307.9444229973      3.09e-03   Normal BFGS step
    5    -307.9444849774      2.68e-03   Normal BFGS step
    6    -307.9445048031      2.30e-03   Normal BFGS step
    7    -307.9445235427      9.35e-04   Normal BFGS step
    8    -307.9445300324      5.12e-04   Normal BFGS step
    9    -307.9445313762      3.84e-04   Normal BFGS step
   10    -307.9445317753      1.42e-04   Normal BFGS step
   11    -307.9445319119      7.40e-05   Normal BFGS step
   12    -307.9445319579      3.10e-05   Normal BFGS step
   13    -307.9445319696      2.19e-05   Normal BFGS step
   14    -307.9445319723      1.54e-05   Normal BFGS step
   15    -307.9445319730      9.93e-06   Normal BFGS step
   16    -307.9445319733      5.35e-06   Normal BFGS step
   17    -307.9445319736      2.78e-06   Normal BFGS step
   18    -307.9445319738      1.65e-06   Normal BFGS step
   19    -307.9445319739      7.40e-07  Convergence criterion met
 ---------------------------------------
 SCF time:   CPU 1182.22s  wall 81.00s 
<S^2> =          0.801324713
(3)  G-ENP(liq) elect-nuc-pol free energy of system     -307.944531974 a.u.
(4)  G-CDS(liq) cavity-dispersion-solvent structure 
     free energy                                                3.1608 kcal/mol
(6)  G-S(liq) free energy of system                     -307.939494852 a.u.
 SCF   energy in the final basis set =     -307.9394948519
 Total energy in the final basis set =     -307.9394948519
 
 --------------------------------------------------------------
 
                    Orbital Energies (a.u.)
 --------------------------------------------------------------
 
 Alpha MOs
 -- Occupied --
-19.3301 -10.4036 -10.3706 -10.3683 -10.3663 -10.3534 -10.3526  -1.0827
 -0.9862  -0.8856  -0.8676  -0.7350  -0.7170  -0.6376  -0.5782  -0.5634
 -0.5460  -0.5332  -0.5243  -0.4950  -0.4670  -0.4382  -0.4329  -0.4073
 -0.3679  -0.3189
 -- Virtual --
  0.0239   0.0361   0.0377   0.0416   0.0556   0.0569   0.0585   0.0610
  0.0826   0.0991   0.1149   0.1171   0.1372   0.1426   0.1571   0.1582
  0.1589   0.1614   0.1617   0.1706   0.1747   0.1765   0.1840   0.1873
  0.1899   0.1930   0.2075   0.2234   0.2258   0.2406   0.2464   0.2533
  0.2588   0.2795   0.2822   0.2858   0.2961   0.3188   0.3215   0.3397
  0.3420   0.3495   0.3569   0.3674   0.3909   0.3988   0.4204   0.4274
  0.4323   0.5095   0.5185   0.5556   0.5673   0.5798   0.5928   0.6011
  0.6013   0.6023   0.6084   0.6250   0.6259   0.6358   0.6595   0.6789
  0.6830   0.6945   0.6987   0.7119   0.7164   0.7243   0.7289   0.7392
  0.7540   0.7566   0.8030   0.8100   0.8215   0.8240   0.8313   0.8362
  0.8518   0.8690   0.8729   0.8790   0.8869   0.9101   0.9346   0.9947
  1.0038   1.0159   1.0643   1.0658   1.0910   1.1098   1.1263   1.1341
  1.1423   1.1743   1.2070   1.2221   1.2399   1.2458   1.2620   1.2807
  1.2915   1.3341   1.3399   1.3516   1.3586   1.3738   1.3876   1.4006
  1.4092   1.4166   1.4268   1.4391   1.4505   1.4842   1.5058   1.5166
  1.5457   1.5668   1.5695   1.6247   1.6298   1.6940   1.7334   1.7540
  1.7887   1.7981   1.8034   1.8240   1.8847   1.9264   1.9439   1.9988
  2.0101   2.0605   2.0698   2.1106   2.2130   2.3755   2.5488   2.5614
  2.6088   2.6117   2.6320   2.6536   2.7366   2.7704   2.7725   2.7824
  2.7877   2.8107   2.8135   2.8335   2.8382   2.8607   2.8634   2.8694
  2.8949   2.9067   2.9197   2.9213   2.9555   2.9786   3.0012   3.0148
  3.0474   3.0602   3.1071   3.1389   3.1598   3.1663   3.1906   3.2152
  3.2197   3.2415   3.2441   3.2654   3.2692   3.2999   3.3213   3.3638
  3.3668   3.3818   3.4034   3.4147   3.4347   3.4620   3.4656   3.4736
  3.4828   3.5184   3.5213   3.5391   3.5813   3.6061   3.6289   3.6675
  3.7077   3.7459   3.7531   3.7757   3.7889   3.8145   3.8365   3.8456
  3.8577   3.8701   3.8941   3.9082   3.9275   3.9371   3.9435   3.9963
  4.0256   4.0679   4.0907   4.1348   4.1422   4.1578   4.2210   4.2340
  4.2727   4.2899   4.3212   4.3328   4.3499   4.3746   4.3972   4.4425
  4.4751   4.4973   4.5002   4.5127   4.5184   4.5823   4.6310   4.6518
  4.7097   4.7444   4.7570   4.8033   4.9659   5.0350   5.0400   5.1211
  5.1443   5.1476   5.1618   5.1759   5.2046   5.2298   5.2560   5.2819
  5.2972   5.3083   5.4196   5.4819   5.5759   5.6494   5.6783   5.6864
  5.7526   5.8249   5.8985   6.1807   6.4411   6.9801   7.0420   7.0811
  7.1422   7.3258   7.5716  24.1330  24.5798  24.6075  24.8170  25.0644
 25.3835  50.5072
 
 Beta MOs
 -- Occupied --
-19.3150 -10.4039 -10.3663 -10.3653 -10.3633 -10.3550 -10.3542  -1.0472
 -0.9819  -0.8835  -0.8605  -0.7311  -0.7139  -0.6348  -0.5743  -0.5599
 -0.5321  -0.5306  -0.5181  -0.4768  -0.4586  -0.4314  -0.3899  -0.3602
 -0.3571
 -- Virtual --
 -0.0724   0.0242   0.0364   0.0378   0.0537   0.0569   0.0578   0.0692
  0.0701   0.0830   0.0988   0.1152   0.1172   0.1377   0.1443   0.1578
  0.1588   0.1597   0.1613   0.1620   0.1730   0.1754   0.1775   0.1841
  0.1878   0.1901   0.1937   0.2084   0.2239   0.2260   0.2416   0.2505
  0.2534   0.2618   0.2817   0.2836   0.2867   0.2968   0.3221   0.3237
  0.3419   0.3443   0.3519   0.3577   0.3693   0.3931   0.3998   0.4229
  0.4288   0.4352   0.5102   0.5204   0.5585   0.5700   0.5832   0.5970
  0.6030   0.6032   0.6066   0.6100   0.6271   0.6287   0.6407   0.6641
  0.6808   0.6842   0.6971   0.7027   0.7139   0.7194   0.7267   0.7302
  0.7409   0.7553   0.7585   0.8064   0.8129   0.8237   0.8260   0.8332
  0.8374   0.8549   0.8706   0.8737   0.8815   0.8887   0.9127   0.9386
  0.9980   1.0076   1.0176   1.0657   1.0677   1.0941   1.1112   1.1290
  1.1379   1.1446   1.1769   1.2124   1.2288   1.2443   1.2504   1.2640
  1.2870   1.2972   1.3381   1.3423   1.3564   1.3605   1.3794   1.3911
  1.4036   1.4127   1.4194   1.4298   1.4419   1.4535   1.4864   1.5118
  1.5206   1.5470   1.5705   1.5717   1.6285   1.6336   1.7094   1.7406
  1.7639   1.7903   1.8041   1.8062   1.8313   1.8940   1.9344   1.9572
  2.0054   2.0186   2.0632   2.0755   2.1204   2.2174   2.3807   2.5564
  2.5656   2.6127   2.6174   2.6360   2.6589   2.7465   2.7762   2.7787
  2.7910   2.7963   2.8165   2.8188   2.8384   2.8433   2.8657   2.8691
  2.8771   2.9025   2.9114   2.9271   2.9327   2.9674   2.9891   3.0088
  3.0203   3.0604   3.0666   3.1049   3.1419   3.1669   3.1736   3.1947
  3.2195   3.2251   3.2500   3.2525   3.2672   3.2744   3.3041   3.3235
  3.3700   3.3722   3.3895   3.4099   3.4164   3.4419   3.4684   3.4750
  3.4798   3.4882   3.5235   3.5263   3.5432   3.5947   3.6138   3.6328
  3.6731   3.7122   3.7528   3.7588   3.7822   3.7946   3.8223   3.8446
  3.8519   3.8640   3.8772   3.8968   3.9155   3.9322   3.9415   3.9498
  4.0035   4.0327   4.0722   4.0947   4.1382   4.1475   4.1626   4.2248
  4.2388   4.2799   4.2984   4.3256   4.3373   4.3548   4.3806   4.4019
  4.4496   4.4799   4.5047   4.5070   4.5211   4.5248   4.5917   4.6374
  4.6613   4.7136   4.7509   4.7634   4.8089   4.9749   5.0447   5.0496
  5.1323   5.1600   5.1703   5.1884   5.2032   5.2296   5.2597   5.2908
  5.3064   5.3091   5.3530   5.4494   5.4865   5.5788   5.6611   5.6935
  5.7203   5.7569   5.8417   5.9030   6.1872   6.4469   7.0457   7.0683
  7.1475   7.2034   7.3586   7.6154  24.1339  24.5809  24.6079  24.8203
 25.0650  25.3848  50.5182
 --------------------------------------------------------------
 
          Ground-State Mulliken Net Atomic Charges

     Atom                 Charge (a.u.)    Spin (a.u.)
  --------------------------------------------------------
      1 H                     0.293116       0.002659
      2 C                    -0.241706      -0.099962
      3 C                    -0.238779       0.291740
      4 H                     0.290571      -0.004914
      5 C                    -0.256909      -0.102003
      6 H                     0.293635       0.002789
      7 C                    -0.301731       0.208126
      8 H                     0.286622      -0.004761
      9 C                    -0.233010      -0.038769
     10 H                     0.298374       0.023060
     11 C                    -0.173262       0.208630
     12 H                     0.283059      -0.004391
     13 O                    -0.616345       0.522149
     14 H                     0.316365      -0.004351
  --------------------------------------------------------
  Sum of atomic charges =     0.000000
  Sum of spin   charges =     1.000000

 -----------------------------------------------------------------
                    Cartesian Multipole Moments
 -----------------------------------------------------------------
    Charge (ESU x 10^10)
                 0.0000
    Dipole Moment (Debye)
         X      -2.5567      Y      -3.6358      Z       1.4639
       Tot       4.6796
    Quadrupole Moments (Debye-Ang)
        XX     -36.9843     XY      -7.1977     YY     -63.7397
        XZ       3.0043     YZ       8.1161     ZZ     -33.2389
    Octopole Moments (Debye-Ang^2)
       XXX      37.4770    XXY     -67.5434    XYY       0.0825
       YYY    -297.1774    XXZ      26.9542    XYZ      11.6010
       YYZ      54.0745    XZZ       7.4681    YZZ     -62.9101
       ZZZ      40.4886
    Hexadecapole Moments (Debye-Ang^3)
      XXXX    -370.5227   XXXY      20.3492   XXYY    -234.2233
      XYYY      -1.6339   YYYY   -1175.2466   XXXZ      33.7689
      XXYZ      76.3921   XYYZ      45.7338   YYYZ     296.8354
      XXZZ    -158.0819   XYZZ     -11.7575   YYZZ    -251.6737
      XZZZ      31.1716   YZZZ     121.4560   ZZZZ    -396.4092
 -----------------------------------------------------------------
 Calculating analytic gradient of the SCF energy
 Gradient of CDS energy
            1           2           3           4           5           6
    1   0.0001031   0.0003082  -0.0002844  -0.0000991  -0.0004921  -0.0002091
    2   0.0000021   0.0000019  -0.0000034   0.0000021   0.0000040   0.0000028
    3   0.0001808   0.0003824   0.0005022   0.0001749  -0.0000587   0.0000041
            7           8           9          10          11          12
    1  -0.0002756  -0.0000959   0.0001927   0.0001552   0.0004313   0.0002055
    2  -0.0000181   0.0000002  -0.0000950  -0.0000312   0.0000026   0.0000099
    3  -0.0003317  -0.0001795  -0.0002742  -0.0001822   0.0000396  -0.0000201
           13          14
    1   0.0000545   0.0000056
    2  -0.0001043   0.0002264
    3   0.0002224  -0.0004598
 Gradient of SCF Energy
            1           2           3           4           5           6
    1   0.0035018   0.0209205  -0.0032877  -0.0051407   0.0025262  -0.0099306
    2  -0.0000519  -0.0014590  -0.0006815   0.0003249  -0.0021718   0.0001474
    3   0.0072400  -0.0180342   0.0083068   0.0090349  -0.0257988   0.0007388
            7           8           9          10          11          12
    1  -0.0451027  -0.0027235   0.0055551   0.0262997  -0.0023059   0.0029381
    2  -0.0018079   0.0005369   0.0153913  -0.0185697  -0.0032612  -0.0002624
    3   0.0364697  -0.0075565  -0.0143716  -0.0359710   0.0533244  -0.0005034
           13          14
    1   0.0058136   0.0009362
    2   0.0101325   0.0017324
    3  -0.0084231  -0.0044563
 Max gradient component =       5.332E-02
 RMS gradient           =       1.628E-02
 Computing fast CPCM-SWIG gradient
 Updating gradient with PCM contributions...
 -- total gradient after adding PCM contribution --
---------------------------------------------------
  Atom         X              Y              Z     
---------------------------------------------------
   1       0.000005       0.000184       0.000298
   2       0.020685      -0.002537      -0.012748
   3      -0.008317      -0.000644       0.015280
   4       0.000041       0.000405      -0.000028
   5      -0.000725      -0.002808      -0.025216
   6      -0.000785       0.000308       0.000361
   7      -0.053576       0.000707       0.033448
   8       0.000875       0.001356      -0.001473
   9       0.007535       0.007425      -0.022908
  10       0.025309      -0.014759      -0.031316
  11       0.002306       0.000474       0.058495
  12       0.000438       0.001166      -0.001265
  13       0.002436       0.002358      -0.014626
  14       0.003769       0.006365       0.001700
---------------------------------------------------
 Number of fixed atoms: 0
 Gradient time:  CPU 144.19 s  wall 11.91 s
 ----------------------------------------------------------------
             Standard Nuclear Orientation (Angstroms)
    I     Atom           X                Y                Z
 ----------------------------------------------------------------
    1      H       0.5975413000     1.4160051000     1.9989805000
    2      C       0.0604941000     1.4039422000     1.0593498000
    3      C      -1.3536991000     1.4015264000     1.0747727000
    4      H      -1.8863849000     1.4130136000     2.0143839000
    5      C      -2.0668690000     1.4014879000    -0.1463163000
    6      H      -3.1491565000     1.4159384000    -0.1251551000
    7      C      -1.4169942000     1.3879165000    -1.3369196000
    8      H      -1.9669269000     1.3892305000    -2.2698904000
    9      C       0.0741557000     1.3743427000    -1.4357582000
   10      H       0.6506069000     0.9429269000    -2.3353053000
   11      C       0.7517461000     1.3983753000    -0.1075171000
   12      H       1.8341846000     1.4072255000    -0.1125566000
   13      O       0.7417469000     3.1786111000    -2.3771025000
   14      H       0.4721517000     3.0507275000    -3.2939744000
 ----------------------------------------------------------------
 Nuclear Repulsion Energy =         265.54522249 hartrees
 There are       26 alpha and       25 beta electrons
 Discretize the solute cavity surface with Lebedev spheres
	Using 110 Lebedev grid points for each H atom
	Using 194 Lebedev grid points for other atoms
	Atomic van der Waals radii will be scaled by 1.20
 Remove points where switching function is < 1.0e-08
 Keep 1087 surface tesserae and discard 1041 interior tesserae
 Molecular Surface Area = 133.286 Angst**2

                       Distance Matrix (Angstroms)
             H (  1)   C (  2)   C (  3)   H (  4)   C (  5)   H (  6)
   C (  2)  1.082345
   C (  3)  2.159099  1.414279
   H (  4)  2.483976  2.168527  1.080164
   C (  5)  3.420759  2.445263  1.414097  2.168256
   H (  6)  4.306936  3.421265  2.159561  2.484397  1.082591
   C (  7)  3.897098  2.815197  2.412561  3.384109  1.356487  2.114130
   H (  8)  4.980007  3.898011  3.400437  4.285097  2.125960  2.449137
   C (  9)  3.474636  2.495321  2.888299  3.968463  2.499477  3.479821
   H ( 10)  4.360350  3.476270  3.981983  5.057381  3.519464  4.421166
   C ( 11)  2.112208  1.356259  2.414688  3.385619  2.818884  3.900982
   H ( 12)  2.447029  2.125877  3.401821  4.285621  3.901204  4.983365
   O ( 13)  4.719923  3.927182  4.411844  5.413831  4.002861  4.828811
   H ( 14)  5.541066  4.672558  5.013935  6.035186  4.367421  5.082108
             C (  7)   H (  8)   C (  9)   H ( 10)   C ( 11)   H ( 12)
   H (  8)  1.082988
   C (  9)  1.494484  2.204998
   H ( 10)  2.338753  2.656115  1.152216
   C ( 11)  2.492985  3.473777  1.491285  2.276116
   H ( 12)  3.474133  4.370682  2.202191  2.560672  1.082486
   O ( 13)  2.991443  3.248121  2.141773  2.237931  2.884503  3.075613
   H ( 14)  3.188083  3.123848  2.534094  2.322438  3.600271  3.831142
             O ( 13)
   H ( 14)  0.964204
 
 Requested basis set is 6-311++G(2df,2p)
 There are 98 shells and 308 basis functions
 A cutoff of  1.0D-11 yielded   4461 shell pairs
 There are     44751 function pairs (     55600 Cartesian)
 Smallest overlap matrix eigenvalue = 1.17E-06

 Q-Chem warning in module stvman/mkSTV.C, line 323:

 Overlap eigenvalue is smaller than square root of threshold
 Use THRESH >= 12 to get rid of this warning

 Guess MOs from SCF MO coefficient file

 -----------------------------------------------------------------------
  General SCF calculation program by
  Eric Jon Sundstrom, Paul Horn, Yuezhi Mao, Dmitri Zuev, Alec White,
  David Stuck, Shaama M.S., Shane Yost, Joonho Lee, David Small,
  Daniel Levine, Susi Lehtola, Hugh Burton, Evgeny Epifanovsky,
  Bang C. Huynh
 -----------------------------------------------------------------------
 Exchange:     0.1500 Hartree-Fock + 1.0000 wB97M-V + LR-HF
 Correlation:  1.0000 wB97M-V
 Using SG-2 standard quadrature grid
 Nonlocal Correlation:  VV10 with C = 0.0100 and b = 6.00 and scale = 1.00000
 Grid used for NLC:  SG-1 standard quadrature
 
 Citation of the SMD model:
 Marenich, A.V.; Cramer, C.J.; Truhlar, D.G.
 J. Phys. Chem. B 2009, 113, 6378-6396.
 iSolventCode=           1
 Solvent: water                                                           
 
 vradii
            1           2           3           4           5           6
    1   1.2000000   1.8500000   1.8500000   1.2000000   1.8500000   1.2000000
            7           8           9          10          11          12
    1   1.8500000   1.2000000   1.8500000   1.2000000   1.8500000   1.2000000
           13          14
    1   1.5200000   1.2000000
 -------------------------------------------------------
 OpenMP BLAS3 based DFT computing Module                
 Release: version 1.0, May 2013, Q-Chem Inc. Pittsburgh 
 -------------------------------------------------------
 A unrestricted SCF calculation will be
 performed using Roothaan-Hall, DIIS, GDM
 SCF converges when RMS gradient is below 1.0e-06
 ---------------------------------------
  Cycle       Energy         DIIS error
 ---------------------------------------
    1    -307.9160349177      2.49e-04  Roothaan Step
 ---------------------------------------
  Cycle       Energy         DIIS error
 ---------------------------------------
    1    -307.9372102787      3.24e-04  
    2    -307.9400210944      3.69e-04  Done DIIS. Switching to GDM
 ---------------------------------------
  Cycle       Energy        RMS Gradient
 ---------------------------------------
    1    -307.9400210944      3.03e-02   Normal BFGS step
    2    -307.9381450959      5.19e-02  Line search: overstep
    3    -307.9442671955      7.18e-03   Normal BFGS step
    4    -307.9444227028      3.08e-03   Normal BFGS step
    5    -307.9444845967      2.68e-03   Normal BFGS step
    6    -307.9445043942      2.30e-03   Normal BFGS step
    7    -307.9445231020      9.35e-04   Normal BFGS step
    8    -307.9445295854      5.12e-04   Normal BFGS step
    9    -307.9445309283      3.83e-04   Normal BFGS step
   10    -307.9445313269      1.42e-04   Normal BFGS step
   11    -307.9445314632      7.37e-05   Normal BFGS step
   12    -307.9445315091      3.10e-05   Normal BFGS step
   13    -307.9445315208      2.19e-05   Normal BFGS step
   14    -307.9445315235      1.54e-05   Normal BFGS step
   15    -307.9445315242      9.95e-06   Normal BFGS step
   16    -307.9445315245      5.30e-06   Normal BFGS step
   17    -307.9445315247      2.75e-06   Normal BFGS step
   18    -307.9445315250      1.64e-06   Normal BFGS step
   19    -307.9445315251      7.29e-07  Convergence criterion met
 ---------------------------------------
 SCF time:   CPU 1179.08s  wall 80.00s 
<S^2> =          0.801326243
(3)  G-ENP(liq) elect-nuc-pol free energy of system     -307.944531525 a.u.
(4)  G-CDS(liq) cavity-dispersion-solvent structure 
     free energy                                                3.1610 kcal/mol
(6)  G-S(liq) free energy of system                     -307.939494204 a.u.
 SCF   energy in the final basis set =     -307.9394942035
 Total energy in the final basis set =     -307.9394942035
 
 --------------------------------------------------------------
 
                    Orbital Energies (a.u.)
 --------------------------------------------------------------
 
 Alpha MOs
 -- Occupied --
-19.3301 -10.4036 -10.3706 -10.3683 -10.3663 -10.3534 -10.3527  -1.0827
 -0.9862  -0.8856  -0.8676  -0.7350  -0.7170  -0.6376  -0.5781  -0.5634
 -0.5460  -0.5331  -0.5243  -0.4950  -0.4670  -0.4382  -0.4329  -0.4073
 -0.3679  -0.3189
 -- Virtual --
  0.0239   0.0361   0.0377   0.0416   0.0556   0.0569   0.0585   0.0610
  0.0826   0.0991   0.1149   0.1171   0.1372   0.1426   0.1571   0.1582
  0.1589   0.1614   0.1617   0.1706   0.1747   0.1765   0.1840   0.1873
  0.1899   0.1930   0.2075   0.2234   0.2258   0.2406   0.2464   0.2533
  0.2588   0.2795   0.2822   0.2858   0.2961   0.3188   0.3215   0.3397
  0.3420   0.3495   0.3569   0.3674   0.3908   0.3988   0.4204   0.4275
  0.4323   0.5095   0.5185   0.5556   0.5672   0.5798   0.5928   0.6011
  0.6013   0.6023   0.6084   0.6250   0.6259   0.6358   0.6595   0.6789
  0.6830   0.6945   0.6987   0.7119   0.7164   0.7243   0.7288   0.7392
  0.7540   0.7566   0.8030   0.8100   0.8215   0.8239   0.8313   0.8363
  0.8518   0.8690   0.8728   0.8791   0.8869   0.9101   0.9346   0.9947
  1.0038   1.0159   1.0643   1.0658   1.0910   1.1098   1.1264   1.1340
  1.1424   1.1743   1.2070   1.2222   1.2400   1.2456   1.2620   1.2807
  1.2914   1.3341   1.3398   1.3517   1.3585   1.3738   1.3876   1.4006
  1.4092   1.4165   1.4268   1.4391   1.4504   1.4843   1.5058   1.5166
  1.5456   1.5668   1.5695   1.6246   1.6297   1.6940   1.7333   1.7539
  1.7887   1.7981   1.8034   1.8240   1.8847   1.9264   1.9438   1.9988
  2.0101   2.0606   2.0696   2.1105   2.2131   2.3755   2.5488   2.5614
  2.6088   2.6117   2.6320   2.6536   2.7365   2.7705   2.7725   2.7824
  2.7876   2.8106   2.8135   2.8335   2.8382   2.8607   2.8634   2.8695
  2.8949   2.9067   2.9197   2.9213   2.9555   2.9787   3.0011   3.0148
  3.0474   3.0602   3.1071   3.1389   3.1598   3.1663   3.1906   3.2153
  3.2197   3.2415   3.2441   3.2653   3.2690   3.2999   3.3213   3.3637
  3.3668   3.3818   3.4034   3.4147   3.4346   3.4620   3.4656   3.4736
  3.4828   3.5184   3.5212   3.5390   3.5813   3.6061   3.6288   3.6675
  3.7076   3.7459   3.7532   3.7757   3.7888   3.8145   3.8364   3.8456
  3.8577   3.8701   3.8942   3.9082   3.9276   3.9371   3.9436   3.9963
  4.0255   4.0679   4.0906   4.1346   4.1420   4.1577   4.2209   4.2340
  4.2727   4.2899   4.3211   4.3328   4.3499   4.3747   4.3971   4.4424
  4.4751   4.4973   4.5002   4.5127   4.5183   4.5822   4.6309   4.6518
  4.7093   4.7443   4.7570   4.8032   4.9659   5.0350   5.0400   5.1210
  5.1441   5.1475   5.1618   5.1759   5.2044   5.2297   5.2559   5.2818
  5.2972   5.3081   5.4196   5.4816   5.5758   5.6493   5.6783   5.6863
  5.7525   5.8249   5.8977   6.1802   6.4410   6.9801   7.0420   7.0811
  7.1422   7.3258   7.5716  24.1328  24.5796  24.6075  24.8169  25.0643
 25.3833  50.5072
 
 Beta MOs
 -- Occupied --
-19.3150 -10.4038 -10.3663 -10.3653 -10.3633 -10.3550 -10.3543  -1.0472
 -0.9819  -0.8835  -0.8604  -0.7311  -0.7138  -0.6348  -0.5743  -0.5599
 -0.5321  -0.5306  -0.5181  -0.4768  -0.4585  -0.4314  -0.3899  -0.3602
 -0.3571
 -- Virtual --
 -0.0724   0.0242   0.0364   0.0378   0.0537   0.0569   0.0578   0.0692
  0.0701   0.0830   0.0988   0.1152   0.1172   0.1377   0.1443   0.1578
  0.1588   0.1597   0.1613   0.1620   0.1730   0.1754   0.1775   0.1841
  0.1878   0.1901   0.1937   0.2084   0.2239   0.2260   0.2416   0.2505
  0.2534   0.2618   0.2817   0.2835   0.2867   0.2967   0.3221   0.3237
  0.3419   0.3443   0.3519   0.3577   0.3693   0.3931   0.3998   0.4228
  0.4289   0.4352   0.5102   0.5204   0.5585   0.5700   0.5832   0.5970
  0.6030   0.6032   0.6066   0.6100   0.6272   0.6287   0.6407   0.6641
  0.6808   0.6842   0.6971   0.7027   0.7139   0.7193   0.7267   0.7302
  0.7409   0.7553   0.7585   0.8064   0.8129   0.8237   0.8260   0.8332
  0.8375   0.8549   0.8706   0.8737   0.8815   0.8887   0.9127   0.9386
  0.9979   1.0075   1.0177   1.0658   1.0677   1.0941   1.1111   1.1290
  1.1378   1.1446   1.1768   1.2124   1.2288   1.2443   1.2503   1.2639
  1.2870   1.2971   1.3380   1.3423   1.3564   1.3604   1.3795   1.3911
  1.4036   1.4127   1.4194   1.4298   1.4419   1.4534   1.4865   1.5118
  1.5206   1.5469   1.5705   1.5716   1.6285   1.6335   1.7094   1.7405
  1.7638   1.7902   1.8041   1.8063   1.8313   1.8940   1.9344   1.9572
  2.0053   2.0186   2.0633   2.0752   2.1204   2.2175   2.3807   2.5564
  2.5656   2.6128   2.6174   2.6360   2.6588   2.7465   2.7763   2.7787
  2.7910   2.7963   2.8164   2.8188   2.8384   2.8433   2.8657   2.8691
  2.8772   2.9024   2.9114   2.9271   2.9327   2.9674   2.9891   3.0087
  3.0203   3.0604   3.0666   3.1048   3.1419   3.1669   3.1736   3.1946
  3.2196   3.2251   3.2500   3.2525   3.2671   3.2742   3.3041   3.3236
  3.3699   3.3722   3.3895   3.4099   3.4163   3.4418   3.4684   3.4749
  3.4799   3.4882   3.5235   3.5262   3.5432   3.5947   3.6138   3.6327
  3.6731   3.7121   3.7528   3.7588   3.7821   3.7945   3.8223   3.8445
  3.8519   3.8639   3.8772   3.8969   3.9154   3.9323   3.9415   3.9498
  4.0036   4.0327   4.0722   4.0946   4.1380   4.1473   4.1624   4.2247
  4.2388   4.2799   4.2984   4.3255   4.3373   4.3548   4.3807   4.4018
  4.4495   4.4799   4.5046   4.5070   4.5212   4.5248   4.5916   4.6373
  4.6612   4.7132   4.7508   4.7634   4.8088   4.9748   5.0447   5.0496
  5.1322   5.1598   5.1702   5.1884   5.2032   5.2295   5.2595   5.2908
  5.3065   5.3089   5.3530   5.4494   5.4862   5.5788   5.6609   5.6935
  5.7203   5.7568   5.8416   5.9023   6.1868   6.4468   7.0457   7.0683
  7.1475   7.2034   7.3586   7.6154  24.1337  24.5807  24.6078  24.8202
 25.0648  25.3847  50.5182
 --------------------------------------------------------------
 
          Ground-State Mulliken Net Atomic Charges

     Atom                 Charge (a.u.)    Spin (a.u.)
  --------------------------------------------------------
      1 H                     0.292996       0.002661
      2 C                    -0.240628      -0.099960
      3 C                    -0.239772       0.291728
      4 H                     0.290584      -0.004913
      5 C                    -0.256562      -0.102006
      6 H                     0.293640       0.002789
      7 C                    -0.301969       0.208124
      8 H                     0.286630      -0.004762
      9 C                    -0.232600      -0.038760
     10 H                     0.298357       0.023061
     11 C                    -0.173779       0.208619
     12 H                     0.283066      -0.004394
     13 O                    -0.616327       0.522162
     14 H                     0.316364      -0.004351
  --------------------------------------------------------
  Sum of atomic charges =     0.000000
  Sum of spin   charges =     1.000000

 -----------------------------------------------------------------
                    Cartesian Multipole Moments
 -----------------------------------------------------------------
    Charge (ESU x 10^10)
                 0.0000
    Dipole Moment (Debye)
         X      -2.5564      Y      -3.6348      Z       1.4633
       Tot       4.6784
    Quadrupole Moments (Debye-Ang)
        XX     -36.9825     XY      -7.1965     YY     -63.7371
        XZ       3.0058     YZ       8.1170     ZZ     -33.2407
    Octopole Moments (Debye-Ang^2)
       XXX      37.4727    XXY     -67.5408    XYY       0.0845
       YYY    -297.1733    XXZ      26.9556    XYZ      11.6044
       YYZ      54.0763    XZZ       7.4704    YZZ     -62.9073
       ZZZ      40.4809
    Hexadecapole Moments (Debye-Ang^3)
      XXXX    -370.5170   XXXY      20.3425   XXYY    -234.2201
      XYYY      -1.6328   YYYY   -1175.2421   XXXZ      33.7666
      XXYZ      76.3936   XYYZ      45.7380   YYYZ     296.8307
      XXZZ    -158.0777   XYZZ     -11.7500   YYZZ    -251.6630
      XZZZ      31.1728   YZZZ     121.4491   ZZZZ    -396.4292
 -----------------------------------------------------------------
 Calculating analytic gradient of the SCF energy
 Gradient of CDS energy
            1           2           3           4           5           6
    1   0.0001036   0.0003077  -0.0002844  -0.0000991  -0.0004921  -0.0002091
    2   0.0000023   0.0000017  -0.0000034   0.0000021   0.0000040   0.0000028
    3   0.0001813   0.0003818   0.0005022   0.0001749  -0.0000587   0.0000041
            7           8           9          10          11          12
    1  -0.0002756  -0.0000959   0.0001927   0.0001552   0.0004313   0.0002055
    2  -0.0000181   0.0000002  -0.0000950  -0.0000312   0.0000026   0.0000099
    3  -0.0003317  -0.0001795  -0.0002742  -0.0001822   0.0000396  -0.0000201
           13          14
    1   0.0000545   0.0000056
    2  -0.0001043   0.0002264
    3   0.0002224  -0.0004598
 Gradient of SCF Energy
            1           2           3           4           5           6
    1   0.0037638   0.0206800  -0.0033225  -0.0051380   0.0025259  -0.0099324
    2   0.0000116  -0.0015396  -0.0006795   0.0003191  -0.0021567   0.0001476
    3   0.0074817  -0.0182776   0.0082632   0.0090333  -0.0257999   0.0007358
            7           8           9          10          11          12
    1  -0.0451127  -0.0027238   0.0055583   0.0263013  -0.0022914   0.0029421
    2  -0.0018134   0.0005349   0.0154150  -0.0185693  -0.0032609  -0.0002732
    3   0.0364717  -0.0075572  -0.0143657  -0.0359684   0.0533663  -0.0005029
           13          14
    1   0.0058132   0.0009363
    2   0.0101313   0.0017330
    3  -0.0084237  -0.0044566
 Max gradient component =       5.337E-02
 RMS gradient           =       1.629E-02
 Computing fast CPCM-SWIG gradient
 Updating gradient with PCM contributions...
[...]
  4.0371   4.0742   4.1140   4.1382   4.1477   4.1583   4.2020   4.2643
  4.2921   4.3030   4.3390   4.3494   4.4005   4.4577   4.4693   4.4928
  4.5179   4.5404   4.5502   4.5681   4.5736   4.5827   4.5935   4.6871
  4.7405   4.7498   4.8017   4.8447   4.8635   5.0435   5.1018   5.1505
  5.1578   5.1751   5.1916   5.2153   5.2239   5.2546   5.2786   5.2835
  5.3358   5.3802   5.4490   5.4540   5.5101   5.6810   5.7264   5.8128
  5.8394   5.8547   5.8670   5.8965   6.3015   6.6056   7.0605   7.0762
  7.1815   7.2226   7.3450   7.6294  24.1498  24.7109  24.7759  24.9707
 25.0386  25.4952  50.5144
 --------------------------------------------------------------
 
          Ground-State Mulliken Net Atomic Charges

     Atom                 Charge (a.u.)    Spin (a.u.)
  --------------------------------------------------------
      1 H                     0.289063       0.002291
      2 C                    -0.151102      -0.082942
      3 C                    -0.349430       0.206321
      4 H                     0.284803      -0.004118
      5 C                    -0.150220      -0.090724
      6 H                     0.288878       0.002469
      7 C                    -0.418391       0.198019
      8 H                     0.296153      -0.003807
      9 C                    -0.137980      -0.023995
     10 H                     0.346252       0.010518
     11 C                    -0.369354       0.182638
     12 H                     0.280000      -0.003483
     13 O                    -0.516027       0.615442
     14 H                     0.307356      -0.008629
  --------------------------------------------------------
  Sum of atomic charges =    -0.000000
  Sum of spin   charges =     1.000000

 -----------------------------------------------------------------
                    Cartesian Multipole Moments
 -----------------------------------------------------------------
    Charge (ESU x 10^10)
                 0.0000
    Dipole Moment (Debye)
         X      -2.4595      Y      -2.6892      Z       0.4790
       Tot       3.6756
    Quadrupole Moments (Debye-Ang)
        XX     -36.7149     XY      -8.1842     YY     -58.3589
        XZ       4.7888     YZ       4.8719     ZZ     -34.5005
    Octopole Moments (Debye-Ang^2)
       XXX      40.9446    XXY     -63.5372    XYY      -4.6435
       YYY    -271.2970    XXZ      22.6295    XYZ      14.6467
       YYZ      39.3212    XZZ       2.0785    YZZ     -59.9185
       ZZZ      51.2658
    Hexadecapole Moments (Debye-Ang^3)
      XXXX    -334.2121   XXXY      42.6393   XXYY    -211.7790
      XYYY       4.2347   YYYY   -1073.0478   XXXZ       6.9063
      XXYZ      58.0651   XYYZ      45.2618   YYYZ     201.8895
      XXZZ    -132.8204   XYZZ     -20.8475   YYZZ    -212.1122
      XZZZ      32.3417   YZZZ     121.7462   ZZZZ    -396.3921
 -----------------------------------------------------------------
 Calculating analytic gradient of the SCF energy
 Gradient of CDS energy
            1           2           3           4           5           6
    1   0.0000981   0.0002861  -0.0002729  -0.0001056  -0.0004780  -0.0002066
    2   0.0000107   0.0000187   0.0000912   0.0000327   0.0000325   0.0000165
    3   0.0001821   0.0004045   0.0004399   0.0001740  -0.0000803  -0.0000045
            7           8           9          10          11          12
    1  -0.0001007  -0.0000959   0.0001262   0.0001178   0.0004010   0.0002047
    2  -0.0001742  -0.0000219  -0.0001079   0.0000101  -0.0000738  -0.0000219
    3  -0.0002855  -0.0001675  -0.0002066  -0.0001851  -0.0000686   0.0000052
           13          14
    1   0.0001135  -0.0000876
    2  -0.0001481   0.0003353
    3   0.0001561  -0.0003637
 Gradient of SCF Energy
            1           2           3           4           5           6
    1   0.0023093   0.0000154   0.0030430  -0.0039688   0.0074225  -0.0077859
    2   0.0000610   0.0040721  -0.0043997   0.0008606   0.0041186   0.0005293
    3   0.0048440  -0.0106810  -0.0011067   0.0063381  -0.0009357  -0.0003384
            7           8           9          10          11          12
    1   0.0021196  -0.0046492   0.0038912   0.0008352  -0.0059286   0.0031003
    2  -0.0072035  -0.0008679   0.0140088  -0.0031315  -0.0096683  -0.0017397
    3   0.0083682  -0.0089944   0.0037149  -0.0040934   0.0033247   0.0005808
           13          14
    1   0.0058989  -0.0063030
    2   0.0059437  -0.0025833
    3   0.0051086  -0.0061297
 Max gradient component =       1.401E-02
 RMS gradient           =       5.334E-03
 Computing fast CPCM-SWIG gradient
 Updating gradient with PCM contributions...
 -- total gradient after adding PCM contribution --
---------------------------------------------------
  Atom         X              Y              Z     
---------------------------------------------------
   1      -0.000013       0.000008       0.000006
   2      -0.000037       0.000037       0.000027
   3       0.000008      -0.000001      -0.000011
   4      -0.000012       0.000021      -0.000006
   5      -0.000016       0.000046       0.000019
   6      -0.000002       0.000016      -0.000013
   7      -0.000017      -0.000054      -0.000017
   8       0.000002      -0.000022      -0.000003
   9      -0.000087      -0.000072       0.000077
  10       0.000073      -0.000030      -0.000029
  11       0.000026      -0.000026      -0.000001
  12      -0.000006      -0.000032       0.000018
  13       0.000168       0.000078       0.000006
  14      -0.000088       0.000032      -0.000074
---------------------------------------------------
 Number of fixed atoms: 0
 Gradient time:  CPU 164.06 s  wall 13.37 s
 Geometry Optimization Parameters
   NAtoms,    NIC,     NZ,  NCons,   NDum,   NFix, NCnnct, MaxDiis
       14     114       0       0       0       0       0       0

 Cartesian Hessian Update
 Hessian updated using Powell/Murtagh-Sargent update
  Mixing factors:     0.981646 Powell                      0.018354 Murtagh-Sargent


** GEOMETRY OPTIMIZATION IN DELOCALIZED INTERNAL COORDINATES **
   Searching for a Transition State

   Optimization Cycle:  39

                       Coordinates (Angstroms)
     ATOM                X               Y               Z
      1  H         0.6135298090    1.5053337005    1.9318278117
      2  C         0.1015960107    1.4494939929    0.9811517894
      3  C        -1.2882840998    1.5877843034    0.9313026822
      4  H        -1.8423944469    1.7594740850    1.8439901262
      5  C        -1.9675492913    1.4879736587   -0.2798451500
      6  H        -3.0451492967    1.5738343491   -0.3033884476
      7  C        -1.2638190258    1.2666300816   -1.4473329736
      8  H        -1.7811367084    1.1718337996   -2.3923417805
      9  C         0.1452643752    1.1924855645   -1.4205684830
     10  H         0.6768378492    0.8555113243   -2.2973087516
     11  C         0.8136113657    1.2333105429   -0.1763311701
     12  H         1.8883997804    1.1181160216   -0.1492592103
     13  O         0.4996649382    3.1777941893   -1.9769465298
     14  H        -0.2079745594    3.2006939866   -2.6379585132
   Point Group: c1    Number of degrees of freedom:    36


   Energy is   -307.960549719

 Hessian updated using Powell/Murtagh-Sargent update
  Mixing factors:     0.990034 Powell                      0.009966 Murtagh-Sargent

 36 Hessian modes will be used to form the next step
  Hessian Eigenvalues:
    -0.023256    0.000445    0.004770    0.011494    0.013571    0.015059
     0.016812    0.018776    0.020105    0.021533    0.024478    0.026567
     0.029914    0.032989    0.046811    0.102374    0.108068    0.113482
     0.121465    0.123853    0.145975    0.169944    0.188022    0.203023
     0.208189    0.282785    0.327798    0.359057    0.359370    0.360210
     0.361188    0.365796    0.384596    0.445856    0.476999    0.556098

 Transition state search - taking P-RFO step
 Searching for Lamda that Maximizes Along the Lowest mode
 Value Taken    Lamda =   0.00000055
 Searching for Lamda that Minimizes Along All other modes
 Value Taken    Lamda =  -0.00000167
 Step Taken.  Stepsize is  0.053742

                             Maximum     Tolerance    Cnvgd?
         Gradient           0.000086      0.000300     YES
         Displacement       0.028573      0.001200      NO
         Energy change      0.000001      0.000001     YES


                       Distance Matrix (Angstroms)
             H (  1)   C (  2)   C (  3)   H (  4)   C (  5)   H (  6)
   C (  2)  1.081193
   C (  3)  2.150522  1.397632
   H (  4)  2.470600  2.149343  1.081441
   C (  5)  3.399083  2.423418  1.392208  2.144773
   H (  6)  4.287985  3.401104  2.147378  2.468262  1.081272
   C (  7)  3.873002  2.792013  2.400343  3.377936  1.381035  2.139187
   H (  8)  4.954199  3.873272  3.385636  4.277333  2.144140  2.474481
   C (  9)  3.399369  2.415827  2.782556  3.863885  2.419203  3.401802
   H ( 10)  4.279237  3.381127  3.849917  4.930927  3.385698  4.283094
   C ( 11)  2.135032  1.376033  2.402180  3.378300  2.794713  3.875840
   H ( 12)  2.471063  2.140165  3.388144  4.278225  3.875847  4.956949
   O ( 13)  4.253070  3.449033  3.766007  4.700684  3.438429  4.235468
   H ( 14)  4.942880  4.032430  4.063025  4.983604  3.404440  4.018265
             C (  7)   H (  8)   C (  9)   H ( 10)   C ( 11)   H ( 12)
   H (  8)  1.081502
   C (  9)  1.411287  2.157728
   H ( 10)  2.158154  2.480067  1.079257
   C ( 11)  2.435626  3.412799  1.412969  2.158700
   H ( 12)  3.412262  4.301140  2.158768  2.480113  1.081283
   O ( 13)  2.653849  3.065695  2.092034  2.350961  2.668669  3.084039
   H ( 14)  2.504596  2.579039  2.374809  2.529588  3.312679  3.863359
             O ( 13)
   H ( 14)  0.968615
 
 Final energy is   -307.960549718889     


 ******************************
 **  OPTIMIZATION CONVERGED  **
 ******************************

                       Coordinates (Angstroms)
     ATOM                X               Y               Z
      1  H         0.6135298090    1.5053337005    1.9318278117
      2  C         0.1015960107    1.4494939929    0.9811517894
      3  C        -1.2882840998    1.5877843034    0.9313026822
      4  H        -1.8423944469    1.7594740850    1.8439901262
      5  C        -1.9675492913    1.4879736587   -0.2798451500
      6  H        -3.0451492967    1.5738343491   -0.3033884476
      7  C        -1.2638190258    1.2666300816   -1.4473329736
      8  H        -1.7811367084    1.1718337996   -2.3923417805
      9  C         0.1452643752    1.1924855645   -1.4205684830
     10  H         0.6768378492    0.8555113243   -2.2973087516
     11  C         0.8136113657    1.2333105429   -0.1763311701
     12  H         1.8883997804    1.1181160216   -0.1492592103
     13  O         0.4996649382    3.1777941893   -1.9769465298
     14  H        -0.2079745594    3.2006939866   -2.6379585132

Z-matrix Print:
$molecule
0 2
C 
H  1 1.079257
C  1 1.411287 2 119.522487
H  3 1.081502 1 119.311157 2 -11.758627 0
C  3 1.381035 1 120.076776 2 169.677143 0
H  5 1.081272 3 120.142815 1 178.208034 0
C  5 1.392208 3 119.887531 1 -2.411270 0
H  7 1.081441 5 119.708338 3 -179.896945 0
C  7 1.397632 5 120.606124 3 -0.797029 0
H  9 1.081193 7 119.809271 5 -178.512405 0
C  9 1.376033 7 120.007508 5 1.019491 0
H  11 1.081283 9 120.664462 7 -179.583662 0
O  1 2.092034 2 89.817516 3 -97.439713 0
H  13 0.968615 1 94.598149 2 79.192396 0
$end

 
 --------------------------------------------------------------
 
                    Orbital Energies (a.u.)
 --------------------------------------------------------------
 
 Alpha MOs
 -- Occupied --
-19.3416 -10.3739 -10.3586 -10.3585 -10.3559 -10.3479 -10.3477  -1.0963
 -0.9922  -0.8805  -0.8783  -0.7296  -0.7250  -0.6426  -0.5736  -0.5678
 -0.5494  -0.5315  -0.5303  -0.5138  -0.4527  -0.4452  -0.4438  -0.4153
 -0.3589  -0.3235
 -- Virtual --
  0.0242   0.0369   0.0375   0.0556   0.0563   0.0577   0.0591   0.0598
  0.0838   0.0977   0.1120   0.1186   0.1376   0.1469   0.1573   0.1582
  0.1594   0.1614   0.1632   0.1668   0.1703   0.1776   0.1866   0.1905
  0.1911   0.1931   0.2093   0.2281   0.2287   0.2403   0.2530   0.2570
  0.2632   0.2764   0.2852   0.3039   0.3096   0.3218   0.3335   0.3428
  0.3482   0.3566   0.3637   0.3766   0.4113   0.4182   0.4225   0.4247
  0.4422   0.5058   0.5180   0.5369   0.5729   0.5894   0.5939   0.6014
  0.6102   0.6120   0.6182   0.6313   0.6339   0.6475   0.6536   0.6767
  0.6996   0.7051   0.7131   0.7181   0.7277   0.7345   0.7358   0.7417
  0.7608   0.8037   0.8051   0.8227   0.8278   0.8357   0.8435   0.8543
  0.8607   0.8800   0.8854   0.8883   0.9013   0.9065   0.9486   0.9984
  1.0392   1.0604   1.0654   1.0776   1.1153   1.1242   1.1606   1.1664
  1.1706   1.2077   1.2169   1.2226   1.2487   1.2679   1.2793   1.2976
  1.3071   1.3261   1.3627   1.3693   1.3745   1.4056   1.4162   1.4294
  1.4406   1.4461   1.4481   1.4532   1.4587   1.4754   1.5285   1.5493
  1.5647   1.5775   1.5802   1.6398   1.6527   1.7084   1.7685   1.8060
  1.8135   1.8177   1.8368   1.8744   1.8915   1.9429   1.9796   2.0425
  2.0463   2.0662   2.0936   2.1064   2.1706   2.3631   2.5580   2.5691
  2.6083   2.6347   2.6411   2.6688   2.7571   2.7850   2.7921   2.8043
  2.8071   2.8172   2.8311   2.8465   2.8595   2.8698   2.8711   2.8909
  2.9107   2.9219   2.9330   2.9496   2.9606   2.9985   3.0102   3.0336
  3.0778   3.1407   3.1498   3.1746   3.1755   3.1768   3.2000   3.2211
  3.2343   3.2553   3.2661   3.2899   3.3028   3.3431   3.3746   3.3849
  3.4123   3.4156   3.4271   3.4336   3.4606   3.4644   3.4779   3.4925
  3.4934   3.5153   3.5456   3.5781   3.6190   3.6246   3.6373   3.6917
  3.7551   3.7804   3.8044   3.8088   3.8359   3.8427   3.8509   3.8662
  3.8987   3.9185   3.9275   3.9386   3.9615   3.9711   3.9921   4.0304
  4.0687   4.1093   4.1332   4.1443   4.1541   4.1997   4.2593   4.2855
  4.2985   4.3320   4.3443   4.3972   4.4541   4.4659   4.4832   4.5105
  4.5337   4.5436   4.5610   4.5694   4.5777   4.5877   4.6823   4.7347
  4.7457   4.7938   4.8388   4.8588   5.0363   5.0867   5.1334   5.1425
  5.1589   5.1777   5.1826   5.1977   5.2298   5.2443   5.2662   5.2948
  5.3173   5.4190   5.4433   5.5056   5.6672   5.6825   5.8054   5.8304
  5.8490   5.8623   5.8911   6.2961   6.6008   6.9938   7.0381   7.1006
  7.1626   7.3018   7.5787  24.1490  24.7100  24.7747  24.9689  25.0379
 25.4938  50.5019
 
 Beta MOs
 -- Occupied --
-19.3242 -10.3738 -10.3556 -10.3555 -10.3533 -10.3493 -10.3492  -1.0559
 -0.9874  -0.8782  -0.8726  -0.7261  -0.7224  -0.6407  -0.5703  -0.5633
 -0.5335  -0.5302  -0.5258  -0.4853  -0.4484  -0.4424  -0.3954  -0.3678
 -0.3510
 -- Virtual --
 -0.0622   0.0242   0.0369   0.0375   0.0560   0.0574   0.0594   0.0666
  0.0774   0.0839   0.0970   0.1136   0.1184   0.1376   0.1473   0.1576
  0.1585   0.1594   0.1615   0.1636   0.1703   0.1710   0.1786   0.1867
  0.1905   0.1912   0.1934   0.2110   0.2282   0.2286   0.2410   0.2535
  0.2576   0.2685   0.2771   0.2860   0.3049   0.3104   0.3267   0.3339
  0.3438   0.3494   0.3582   0.3667   0.3777   0.4128   0.4194   0.4238
  0.4258   0.4441   0.5064   0.5200   0.5388   0.5766   0.5917   0.5983
  0.6033   0.6129   0.6136   0.6227   0.6332   0.6362   0.6502   0.6597
  0.6791   0.7016   0.7083   0.7152   0.7210   0.7287   0.7358   0.7369
  0.7435   0.7623   0.8063   0.8071   0.8248   0.8278   0.8384   0.8464
  0.8565   0.8611   0.8828   0.8869   0.8900   0.9027   0.9076   0.9541
  1.0033   1.0409   1.0620   1.0671   1.0815   1.1168   1.1267   1.1629
  1.1679   1.1783   1.2144   1.2181   1.2251   1.2542   1.2735   1.2811
  1.3023   1.3181   1.3355   1.3642   1.3726   1.3762   1.4081   1.4197
  1.4319   1.4444   1.4498   1.4506   1.4564   1.4609   1.4773   1.5330
  1.5531   1.5689   1.5799   1.5822   1.6450   1.6555   1.7222   1.7805
  1.8069   1.8158   1.8271   1.8428   1.8872   1.8964   1.9507   1.9966
  2.0482   2.0590   2.0700   2.0987   2.1140   2.1738   2.3688   2.5640
  2.5733   2.6119   2.6372   2.6457   2.6746   2.7659   2.7928   2.7963
  2.8076   2.8140   2.8227   2.8375   2.8518   2.8636   2.8740   2.8772
  2.8947   2.9167   2.9265   2.9378   2.9584   2.9708   3.0063   3.0187
  3.0387   3.0807   3.1447   3.1541   3.1776   3.1811   3.1833   3.2051
  3.2272   3.2391   3.2590   3.2711   3.2958   3.3090   3.3476   3.3814
  3.3882   3.4167   3.4187   3.4314   3.4369   3.4677   3.4699   3.4824
  3.4971   3.4980   3.5211   3.5480   3.5926   3.6187   3.6288   3.6403
  3.6971   3.7617   3.7870   3.8103   3.8132   3.8413   3.8485   3.8551
  3.8713   3.9046   3.9225   3.9321   3.9432   3.9669   3.9746   3.9968
  4.0371   4.0742   4.1140   4.1382   4.1477   4.1583   4.2020   4.2643
  4.2921   4.3030   4.3390   4.3494   4.4005   4.4577   4.4693   4.4928
  4.5179   4.5404   4.5502   4.5681   4.5736   4.5827   4.5935   4.6871
  4.7405   4.7498   4.8017   4.8447   4.8635   5.0435   5.1018   5.1505
  5.1578   5.1751   5.1916   5.2153   5.2239   5.2546   5.2786   5.2835
  5.3358   5.3802   5.4490   5.4540   5.5101   5.6810   5.7264   5.8128
  5.8394   5.8547   5.8670   5.8965   6.3015   6.6056   7.0605   7.0762
  7.1815   7.2226   7.3450   7.6294  24.1498  24.7109  24.7759  24.9707
 25.0386  25.4952  50.5144
 --------------------------------------------------------------
 
          Ground-State Mulliken Net Atomic Charges

     Atom                 Charge (a.u.)    Spin (a.u.)
  --------------------------------------------------------
      1 H                     0.289063       0.002291
      2 C                    -0.151102      -0.082942
      3 C                    -0.349430       0.206321
      4 H                     0.284803      -0.004118
      5 C                    -0.150220      -0.090724
      6 H                     0.288878       0.002469
      7 C                    -0.418391       0.198019
      8 H                     0.296153      -0.003807
      9 C                    -0.137980      -0.023995
     10 H                     0.346252       0.010518
     11 C                    -0.369354       0.182638
     12 H                     0.280000      -0.003483
     13 O                    -0.516027       0.615442
     14 H                     0.307356      -0.008629
  --------------------------------------------------------
  Sum of atomic charges =    -0.000000
  Sum of spin   charges =     1.000000

 -----------------------------------------------------------------
                    Cartesian Multipole Moments
 -----------------------------------------------------------------
    Charge (ESU x 10^10)
                 0.0000
    Dipole Moment (Debye)
         X      -2.4595      Y      -2.6892      Z       0.4790
       Tot       3.6756
    Quadrupole Moments (Debye-Ang)
        XX     -36.7149     XY      -8.1842     YY     -58.3589
        XZ       4.7888     YZ       4.8719     ZZ     -34.5005
    Octopole Moments (Debye-Ang^2)
       XXX      40.9446    XXY     -63.5372    XYY      -4.6435
       YYY    -271.2970    XXZ      22.6295    XYZ      14.6467
       YYZ      39.3212    XZZ       2.0785    YZZ     -59.9185
       ZZZ      51.2658
    Hexadecapole Moments (Debye-Ang^3)
      XXXX    -334.2121   XXXY      42.6393   XXYY    -211.7790
      XYYY       4.2347   YYYY   -1073.0478   XXXZ       6.9063
      XXYZ      58.0651   XYYZ      45.2618   YYYZ     201.8895
      XXZZ    -132.8204   XYZZ     -20.8475   YYZZ    -212.1122
      XZZZ      32.3417   YZZZ     121.7462   ZZZZ    -396.3921
 -----------------------------------------------------------------
 Total job time:  4198.87s(wall), 60606.70s(cpu) 
 Wed Apr 24 13:17:26 2024

        *************************************************************
        *                                                           *
        *  Thank you very much for using Q-Chem.  Have a nice day.  *
        *                                                           *
        *************************************************************


