
Running Job 1 of 1 Q_in.in
qchem Q_in.in_131523.0 /scratch/ari.fischer/qChem2187300.hpc-mn1/qchem131523/ 0
/usr/local/qchem-5.4.1/exe/qcprog.exe_s Q_in.in_131523.0 /scratch/ari.fischer/qChem2187300.hpc-mn1/qchem131523/
                  Welcome to Q-Chem
     A Quantum Leap Into The Future Of Chemistry


 Q-Chem 5.4, Q-Chem, Inc., Pleasanton, CA (2021)

 License issued to: Nanyang Technological University (site)

 E. Epifanovsky,  A. T. B. Gilbert,  Xintian Feng,  Joonho Lee,  Yuezhi Mao,  
 N. Mardirossian,  P. Pokhilko,  A. White,  M. Wormit,  M. P. Coons,  
 A. L. Dempwolff,  Zhengting Gan,  D. Hait,  P. R. Horn,  L. D. Jacobson,  
 I. Kaliman,  J. Kussmann,  A. W. Lange,  Ka Un Lao,  D. S. Levine,  Jie Liu,  
 S. C. McKenzie,  A. F. Morrison,  K. Nanda,  F. Plasser,  D. R. Rehn,  
 M. L. Vidal,  Zhi-Qiang You,  Ying Zhu,  B. Alam,  B. Albrecht,  
 A. Aldossary,  E. Alguire,  J. H. Andersen,  D. Barton,  K. Begam,  A. Behn,  
 Y. A. Bernard,  E. J. Berquist,  H. Burton,  A. Carreras,  K. Carter-Fenk,  
 R. Chakraborty,  A. D. Chien,  K. D. Closser,  V. Cofer-Shabica,  
 S. Dasgupta,  Jia Deng,  M. de Wergifosse,  M. Diedenhofen,  Hainam Do,  
 S. Ehlert,  Po-Tung Fang,  S. Fatehi,  Qingguo Feng,  T. Friedhoff,  
 J. Gayvert,  Qinghui Ge,  G. Gidofalvi,  M. Goldey,  J. Gomes,  
 C. Gonzalez-Espinoza,  S. Gulania,  A. Gunina,  M. W. D. Hanson-Heine,  
 P. H. P. Harbach,  A. W. Hauser,  M. F. Herbst,  M. Hernandez Vera,  
 M. Hodecker,  Z. C. Holden,  S. Houck,  Xunkun Huang,  Kerwin Hui,  
 B. C. Huynh,  M. Ivanov,  Hyunjun Ji,  Hanjie Jiang,  B. Kaduk,  S. Kaehler,  
 K. Khistyaev,  Jaehoon Kim,  P. Klunzinger,  Z. Koczor-Benda,  
 Joong Hoon Koh,  D. Kosenkov,  L. Koulias,  T. Kowalczyk,  C. M. Krauter,  
 K. Kue,  A. Kunitsa,  T. Kus,  A. Landau,  K. V. Lawler,  D. Lefrancois,  
 S. Lehtola,  Rain Li,  Yi-Pei Li,  Jiashu Liang,  M. Liebenthal,  
 Hung-Hsuan Lin,  You-Sheng Lin,  Fenglai Liu,  Kuan-Yu Liu,  
 M. Loipersberger,  A. Luenser,  A. Manjanath,  P. Manohar,  E. Mansoor,  
 S. F. Manzer,  Shan-Ping Mao,  A. V. Marenich,  T. Markovich,  S. Mason,  
 S. A. Maurer,  P. F. McLaughlin,  M. F. S. J. Menger,  J.-M. Mewes,  
 S. A. Mewes,  P. Morgante,  J. W. Mullinax,  K. J. Oosterbaan,  G. Paran,  
 Alexander C. Paul,  Suranjan K. Paul,  F. Pavosevic,  Zheng Pei,  S. Prager,  
 E. I. Proynov,  E. Ramos,  B. Rana,  A. E. Rask,  A. Rettig,  R. M. Richard,  
 F. Rob,  E. Rossomme,  T. Scheele,  M. Scheurer,  M. Schneider,  
 N. Sergueev,  S. M. Sharada,  W. Skomorowski,  D. W. Small,  C. J. Stein,  
 Yu-Chuan Su,  E. J. Sundstrom,  Zhen Tao,  J. Thirman,  T. Tsuchimochi,  
 N. M. Tubman,  S. P. Veccham,  O. Vydrov,  J. Wenzel,  J. Witte,  A. Yamada,  
 Kun Yao,  S. Yeganeh,  S. R. Yost,  A. Zech,  Igor Ying Zhang,  Xing Zhang,  
 Yu Zhang,  D. Zuev,  A. Aspuru-Guzik,  A. T. Bell,  N. A. Besley,  
 K. B. Bravaya,  B. R. Brooks,  D. Casanova,  Jeng-Da Chai,  S. Coriani,  
 C. J. Cramer,  A. E. DePrince, III,  R. A. DiStasio Jr.,  A. Dreuw,  
 B. D. Dunietz,  T. R. Furlani,  W. A. Goddard III,  S. Grimme,  
 S. Hammes-Schiffer,  T. Head-Gordon,  W. J. Hehre,  Chao-Ping Hsu,  
 T.-C. Jagau,  Yousung Jung,  A. Klamt,  Jing Kong,  D. S. Lambrecht,  
 WanZhen Liang,  N. J. Mayhall,  C. W. McCurdy,  J. B. Neaton,  
 C. Ochsenfeld,  J. A. Parkhill,  R. Peverati,  V. A. Rassolov,  Yihan Shao,  
 L. V. Slipchenko,  T. Stauch,  R. P. Steele,  J. E. Subotnik,  
 A. J. W. Thom,  A. Tkatchenko,  D. G. Truhlar,  T. Van Voorhis,  
 T. A. Wesolowski,  K. B. Whaley,  H. L. Woodcock III,  P. M. Zimmerman,  
 S. Faraji,  P. M. W. Gill,  M. Head-Gordon,  J. M. Herbert,  A. I. Krylov

 Additional authors for Version 5.4.1: 
 S. Kotaru,  Shaozhi Li,  Xiangyuan Li,  F. Matz,  A. Molle,  Haisheng Ren,  
 Yingli Su,  Hung-Yi Tsai,  C. Utku,  Fang Wang

 Contributors to earlier versions of Q-Chem not listed above: 
 R. D. Adamson,  B. Austin,  R. Baer,  J. Baker,  G. J. O. Beran,  
 K. Brandhorst,  S. T. Brown,  E. F. C. Byrd,  A. K. Chakraborty,  
 G. K. L. Chan,  Chun-Min Chang,  Yunqing Chen,  C.-L. Cheng,  
 Siu Hung Chien,  D. M. Chipman,  D. L. Crittenden,  H. Dachsel,  
 R. J. Doerksen,  A. D. Dutoi,  R. G. Edgar,  J. Fosso-Tande,  
 L. Fusti-Molnar,  D. Ghosh,  A. Ghysels,  A. Golubeva-Zadorozhnaya,  
 J. Gonthier,  M. S. Gordon,  S. R. Gwaltney,  G. Hawkins,  J. E. Herr,  
 A. Heyden,  S. Hirata,  E. G. Hohenstein,  G. Kedziora,  F. J. Keil,  
 C. Kelley,  Jihan Kim,  R. A. King,  R. Z. Khaliullin,  P. P. Korambath,  
 W. Kurlancheek,  A. Laurent,  A. M. Lee,  M. S. Lee,  S. V. Levchenko,  
 Ching Yeh Lin,  D. Liotard,  E. Livshits,  R. C. Lochan,  I. Lotan,  
 L. A. Martinez-Martinez,  P. E. Maslen,  N. Nair,  D. P. O'Neill,  
 D. Neuhauser,  E. Neuscamman,  C. M. Oana,  R. Olivares-Amaya,  R. Olson,  
 T. M. Perrine,  B. Peters,  P. A. Pieniazek,  A. Prociuk,  Y. M. Rhee,  
 J. Ritchie,  M. A. Rohrdanz,  E. Rosta,  N. J. Russ,  H. F. Schaefer III,  
 M. W. Schmidt,  N. E. Schultz,  S. Sharma,  N. Shenvi,  C. D. Sherrill,  
 A. C. Simmonett,  A. Sodt,  T. Stein,  D. Stuck,  K. S. Thanthiriwatte,  
 V. Vanovschi,  L. Vogt,  Tao Wang,  A. Warshel,  M. A. Watson,  
 C. F. Williams,  Q. Wu,  X. Xu,  Jun Yang,  W. Zhang,  Yan Zhao

 Please cite Q-Chem as follows:
 Y. Shao et al., Mol. Phys. 113, 184-215 (2015)
 DOI: 10.1080/00268976.2014.952696

 Q-Chem 5.4.1 for Intel X86 EM64T Linux

 Parts of Q-Chem use Armadillo 9.800.1 (Horizon Scraper).
 http://arma.sourceforge.net/

 Q-Chem begins on Tue Jun 25 21:17:21 2024  

 Host: 
0

     Scratch files written to /scratch/ari.fischer/qChem2187300.hpc-mn1/qchem131523//
 Aug1521 |scratch|qcdevops|jenkins|workspace|build_RNUM 8249   
 Processing $rem in /usr/local/qchem-5.4.1/config/preferences:
 Processing $rem in /home/ari.fischer/.qchemrc:
 Symmetry turned off for PCM/SM12/SMD calculation


!!********************************************.
!!******************Warning*******************.
!!Desired Analytical derivatives not available.
!!Finite difference job might take a long time.
!!********************************************.
!!********************************************.


 2-order derivative to be evaluated numerically with 1-order analytical derivatives

 Checking the input file for inconsistencies... 	...done.

--------------------------------------------------------------
User input:
--------------------------------------------------------------
$molecule
0 2
C         2.6734104870   -1.0133856500   -1.0766569455
O         1.5952869242   -0.1112565256   -1.1267776265
C         3.5203067944   -0.6271265149    0.1453714037
O         2.7624164900   -0.9461054092    1.2708409184
C         3.9689066851    0.8280209597    0.0743522565
C         5.0310537016    1.2266255546    1.0734320097
O         4.4072660002    1.0787743093    2.4056014887
H         3.2768019537   -0.9475885302   -1.9788978699
H         1.1746574978   -0.1997028163   -1.9896658454
H         3.0976799036    1.4695721825    0.2056325120
H         4.3780789325    1.0238573820   -0.9157464423
H         5.9043191156    0.5811961322    1.0913972435
O         2.2378731862   -2.3458737295   -0.9889839985
H         1.8024608400   -2.4635069195   -0.1338814168
O         4.6443130406   -1.5265058954    0.2403613145
O         5.4489935152   -1.3958181788   -0.9319290447
H         3.1354363428   -0.5189244255    2.0528136427
H         6.2314219733   -0.9317708259   -0.5992041394
O         5.4699525297    2.5308557342    0.9223722115
H         4.7160056750    3.1039201626    0.7289699261
O         5.2983425115    1.1153756037    3.3556713018
$end

$rem
BASIS = 6-311++G(2df,2p)
GUI = 2
JOB_TYPE = Frequency
METHOD = wB97M-V
SOLVENT_METHOD = SMD
SCF_ALGORITHM = DIIS_GDM
MAX_SCF_CYCLES = 400
SCF_CONVERGENCE = 7
THRESH = 12
$end
--------------------------------------------------------------
 ----------------------------------------------------------------
             Standard Nuclear Orientation (Angstroms)
    I     Atom           X                Y                Z
 ----------------------------------------------------------------
    1      C       2.6734104870    -1.0133856500    -1.0766569455
    2      O       1.5952869242    -0.1112565256    -1.1267776265
    3      C       3.5203067944    -0.6271265149     0.1453714037
    4      O       2.7624164900    -0.9461054092     1.2708409184
    5      C       3.9689066851     0.8280209597     0.0743522565
    6      C       5.0310537016     1.2266255546     1.0734320097
    7      O       4.4072660002     1.0787743093     2.4056014887
    8      H       3.2768019537    -0.9475885302    -1.9788978699
    9      H       1.1746574978    -0.1997028163    -1.9896658454
   10      H       3.0976799036     1.4695721825     0.2056325120
   11      H       4.3780789325     1.0238573820    -0.9157464423
   12      H       5.9043191156     0.5811961322     1.0913972435
   13      O       2.2378731862    -2.3458737295    -0.9889839985
   14      H       1.8024608400    -2.4635069195    -0.1338814168
   15      O       4.6443130406    -1.5265058954     0.2403613145
   16      O       5.4489935152    -1.3958181788    -0.9319290447
   17      H       3.1354363428    -0.5189244255     2.0528136427
   18      H       6.2314219733    -0.9317708259    -0.5992041394
   19      O       5.4699525297     2.5308557342     0.9223722115
   20      H       4.7160056750     3.1039201626     0.7289699261
   21      O       5.2983425115     1.1153756037     3.3556713018
 ----------------------------------------------------------------
 Nuclear Repulsion Energy =         839.17189647 hartrees
 There are       49 alpha and       48 beta electrons
 Requested basis set is 6-311++G(2df,2p)
 There are 150 shells and 498 basis functions

 Total QAlloc Memory Limit 288000 MB
 Mega-Array Size       188 MB
 MEM_STATIC part       192 MB
 
 Citation of the SMD model:
 Marenich, A.V.; Cramer, C.J.; Truhlar, D.G.
 J. Phys. Chem. B 2009, 113, 6378-6396.
 iSolventCode=           1
 Solvent: water                                                           
 
 vradii
            1           2           3           4           5           6
    1   1.8500000   1.5200000   1.8500000   1.5200000   1.8500000   1.8500000
            7           8           9          10          11          12
    1   1.5200000   1.2000000   1.2000000   1.2000000   1.2000000   1.2000000
           13          14          15          16          17          18
    1   1.5200000   1.2000000   1.5200000   1.5200000   1.2000000   1.2000000
           19          20          21
    1   1.5200000   1.2000000   1.5200000
 Changing PCM_VDW_RADII to SMD_RADIUS
 Discretize the solute cavity surface with Lebedev spheres
	Using 110 Lebedev grid points for each H atom
	Using 194 Lebedev grid points for other atoms
	Atomic van der Waals radii will be scaled by 1.20
 Remove points where switching function is < 1.0e-08
 Keep 1643 surface tesserae and discard 1675 interior tesserae
 Molecular Surface Area = 180.815 Angst**2
 A cutoff of  1.0D-12 yielded   9688 shell pairs
 There are    104647 function pairs (    129901 Cartesian)
 Smallest overlap matrix eigenvalue = 3.99E-06
 Guess from superposition of atomic densities
 Warning:  Energy on first SCF cycle will be non-variational
 SAD guess density has 97.000000 electrons

 -----------------------------------------------------------------------
  General SCF calculation program by
  Eric Jon Sundstrom, Paul Horn, Yuezhi Mao, Dmitri Zuev, Alec White,
  David Stuck, Shaama M.S., Shane Yost, Joonho Lee, David Small,
  Daniel Levine, Susi Lehtola, Hugh Burton, Evgeny Epifanovsky,
  Bang C. Huynh
 -----------------------------------------------------------------------
 Exchange:     0.1500 Hartree-Fock + 1.0000 wB97M-V + LR-HF
 Correlation:  1.0000 wB97M-V
 Using SG-2 standard quadrature grid
 Nonlocal Correlation:  VV10 with C = 0.0100 and b = 6.00 and scale = 1.00000
 Grid used for NLC:  SG-1 standard quadrature
 using 16 threads for integral computing
 -------------------------------------------------------
 OpenMP Integral computing Module                
 Release: version 1.0, May 2013, Q-Chem Inc. Pittsburgh 
 -------------------------------------------------------
 
 Citation of the SMD model:
 Marenich, A.V.; Cramer, C.J.; Truhlar, D.G.
 J. Phys. Chem. B 2009, 113, 6378-6396.
 iSolventCode=           1
 Solvent: water                                                           
 
 vradii
            1           2           3           4           5           6
    1   1.8500000   1.5200000   1.8500000   1.5200000   1.8500000   1.8500000
            7           8           9          10          11          12
    1   1.5200000   1.2000000   1.2000000   1.2000000   1.2000000   1.2000000
           13          14          15          16          17          18
    1   1.5200000   1.2000000   1.5200000   1.5200000   1.2000000   1.2000000
           19          20          21
    1   1.5200000   1.2000000   1.5200000
 -------------------------------------------------------
 OpenMP BLAS3 based DFT computing Module                
 Release: version 1.0, May 2013, Q-Chem Inc. Pittsburgh 
 -------------------------------------------------------
 A unrestricted SCF calculation will be
 performed using DIIS, GDM
 SCF converges when RMS gradient is below 1.0e-07
 ---------------------------------------
  Cycle       Energy         DIIS error
 ---------------------------------------
    1    -761.7437448686      1.10e-02  
    2    -759.2740072840      1.51e-03  Done DIIS. Switching to GDM
 ---------------------------------------
  Cycle       Energy        RMS Gradient
 ---------------------------------------
    1    -759.2740072840      7.18e-02   Descent step
    2    -759.4571095508      2.34e-02   Normal BFGS step
    3    -759.4900862606      4.15e-02   Normal BFGS step
    4    -759.4930011645      1.92e-02   Normal BFGS step
    5    -759.4953199562      6.53e-03   Normal BFGS step
    6    -759.4954821568      4.73e-03   Normal BFGS step
    7    -759.4955566263      2.62e-03   Normal BFGS step
    8    -759.4955810979      1.68e-04   Normal BFGS step
    9    -759.4955832858      1.28e-04   Normal BFGS step
   10    -759.4955844987      8.97e-05   Normal BFGS step
   11    -759.4955845636      8.00e-05   Normal BFGS step
   12    -759.4955846060      7.44e-05   Normal BFGS step
   13    -759.4955846173      6.54e-05   Normal BFGS step
   14    -759.4955846307      4.46e-05   Normal BFGS step
   15    -759.4955846400      2.05e-05   Normal BFGS step
   16    -759.4955846447      5.31e-06   Normal BFGS step
   17    -759.4955846460      2.70e-06   Normal BFGS step
   18    -759.4955846462      7.34e-07   Normal BFGS step
   19    -759.4955846462      3.34e-07   Normal BFGS step
   20    -759.4955846462      2.16e-07   Normal BFGS step
   21    -759.4955846462      1.16e-07   Normal BFGS step
   22    -759.4955846464      4.03e-08  Convergence criterion met
 ---------------------------------------
 SCF time:   CPU 4071.74s  wall 284.00s 
<S^2> =          0.753832922
(3)  G-ENP(liq) elect-nuc-pol free energy of system     -759.495584646 a.u.
(4)  G-CDS(liq) cavity-dispersion-solvent structure 
     free energy                                                3.3617 kcal/mol
(6)  G-S(liq) free energy of system                     -759.490227428 a.u.
 SCF   energy in the final basis set =     -759.4902274285
 Total energy in the final basis set =     -759.4902274285
 
 --------------------------------------------------------------
 
                    Orbital Energies (a.u.)
 --------------------------------------------------------------
 
 Alpha MOs
 -- Occupied --
-19.4643 -19.4251 -19.4064 -19.3995 -19.3636 -19.3611 -19.3487 -19.3474
-10.4700 -10.4657 -10.4491 -10.3554  -1.3499  -1.2803  -1.2131  -1.1937
 -1.1842  -1.1383  -1.0419  -1.0164  -0.9075  -0.8402  -0.7771  -0.7419
 -0.6933  -0.6781  -0.6630  -0.6554  -0.6408  -0.6237  -0.6124  -0.5893
 -0.5800  -0.5756  -0.5520  -0.5461  -0.5316  -0.4987  -0.4863  -0.4725
 -0.4655  -0.4590  -0.4384  -0.4337  -0.4160  -0.4093  -0.4045  -0.4002
 -0.3907
 -- Virtual --
  0.0270   0.0368   0.0412   0.0426   0.0619   0.0644   0.0703   0.0733
  0.0914   0.0945   0.1119   0.1203   0.1261   0.1264   0.1354   0.1460
  0.1476   0.1524   0.1551   0.1610   0.1671   0.1736   0.1781   0.1846
  0.1871   0.1971   0.2109   0.2155   0.2286   0.2420   0.2463   0.2526
  0.2560   0.2581   0.2662   0.2694   0.2745   0.2829   0.2879   0.2893
  0.2924   0.2994   0.3046   0.3060   0.3201   0.3236   0.3302   0.3357
  0.3395   0.3462   0.3498   0.3598   0.3630   0.3657   0.3740   0.3847
  0.3867   0.3945   0.3961   0.4026   0.4047   0.4087   0.4166   0.4227
  0.4250   0.4297   0.4377   0.4471   0.4497   0.4645   0.4674   0.4805
  0.4874   0.4938   0.5066   0.5294   0.5435   0.5701   0.5863   0.5933
  0.6073   0.6192   0.6251   0.6394   0.6559   0.6604   0.6842   0.6897
  0.7032   0.7109   0.7169   0.7298   0.7352   0.7494   0.7572   0.7620
  0.7861   0.7969   0.8042   0.8237   0.8392   0.8590   0.8679   0.8769
  0.9009   0.9086   0.9353   0.9508   0.9783   0.9858   1.0064   1.0293
  1.0485   1.0634   1.0691   1.0716   1.0852   1.1020   1.1078   1.1177
  1.1321   1.1420   1.1493   1.1575   1.1641   1.1737   1.1863   1.1899
  1.1973   1.2036   1.2111   1.2158   1.2237   1.2262   1.2356   1.2432
  1.2532   1.2651   1.2821   1.2896   1.2954   1.3040   1.3081   1.3215
  1.3317   1.3523   1.3553   1.3794   1.3911   1.4004   1.4198   1.4244
  1.4402   1.4608   1.4751   1.4937   1.4986   1.5035   1.5192   1.5303
  1.5353   1.5418   1.5555   1.5692   1.5823   1.5915   1.6112   1.6244
  1.6303   1.6487   1.6553   1.6789   1.6853   1.6913   1.7060   1.7162
  1.7414   1.7646   1.7851   1.8042   1.8203   1.8392   1.8558   1.8742
  1.8913   1.9214   1.9378   1.9510   1.9773   1.9938   2.0102   2.0287
  2.0467   2.0645   2.0861   2.1127   2.1722   2.1782   2.2147   2.2370
  2.2483   2.2631   2.2851   2.2967   2.3221   2.3430   2.3572   2.3759
  2.3934   2.4023   2.4309   2.4509   2.4653   2.4809   2.4938   2.5087
  2.5320   2.5626   2.6030   2.6761   2.6821   2.7148   2.7559   2.7906
  2.8031   2.8416   2.8592   2.8785   2.8913   2.9283   2.9549   2.9799
  3.0074   3.0573   3.0815   3.0992   3.1395   3.1778   3.2019   3.2227
  3.2732   3.2860   3.2876   3.3244   3.3415   3.3748   3.4145   3.4192
  3.4457   3.4644   3.4828   3.5126   3.5378   3.5624   3.5730   3.6153
  3.6271   3.6471   3.6564   3.6710   3.6871   3.7182   3.7280   3.7388
  3.7525   3.7698   3.8161   3.8218   3.8318   3.8438   3.8491   3.8596
  3.8711   3.8847   3.9039   3.9101   3.9335   3.9378   3.9693   3.9785
  4.0070   4.0357   4.0668   4.0812   4.1161   4.1311   4.1535   4.1804
  4.1908   4.2129   4.2295   4.2535   4.2580   4.2893   4.3104   4.3396
  4.3583   4.3896   4.3945   4.4037   4.4104   4.4436   4.4588   4.4837
  4.5617   4.5687   4.5826   4.6209   4.6271   4.6464   4.6833   4.7119
  4.7451   4.7684   4.8101   4.8550   4.8739   4.9014   4.9369   5.0293
  5.0421   5.0583   5.0754   5.0845   5.0950   5.1403   5.1586   5.2116
  5.2198   5.2299   5.2448   5.2554   5.2663   5.2708   5.2816   5.2990
  5.3021   5.3164   5.3240   5.3283   5.3344   5.3590   5.3725   5.3806
  5.3908   5.3986   5.4034   5.4300   5.4379   5.4734   5.4919   5.4941
  5.5099   5.5473   5.5602   5.5674   5.6006   5.6124   5.6131   5.6323
  5.6422   5.6443   5.6618   5.6772   5.6833   5.7241   5.7370   5.7603
  5.7860   5.7991   5.8158   5.8521   5.9200   5.9749   6.0295   6.0382
  6.0547   6.0915   6.1071   6.1554   6.1650   6.2504   6.3885   6.4717
  6.5016   6.5836   6.5982   6.6959   6.7561   6.8205   6.8383   6.8652
  6.8710   6.9867   7.0178   7.0469   7.0699   7.0867   7.0999   7.1180
  7.1332   7.1633   7.1833   7.2230   7.2546   7.2721   7.2866   7.3095
  7.3128   7.3236   7.3308   7.3397   7.3756   7.3973   7.4026   7.4237
  7.4388   7.4699   7.5022   7.5142   7.5226   7.5920   7.6096   7.6714
  7.6901   7.7021   7.7555   7.7850   7.8319   7.8609   7.8700   7.8961
  7.9193   8.0202   8.0561   8.1115   8.2074  24.6421  24.7471  24.8133
 24.8671  50.4212  50.5011  50.5300  50.5975  50.6163  50.6297  50.6551
 50.7025
 
 Beta MOs
 -- Occupied --
-19.4548 -19.4064 -19.4057 -19.3995 -19.3633 -19.3610 -19.3487 -19.3474
-10.4700 -10.4660 -10.4491 -10.3554  -1.3243  -1.2803  -1.2131  -1.1914
 -1.1841  -1.1383  -1.0418  -0.9862  -0.9022  -0.8363  -0.7737  -0.7416
 -0.6926  -0.6678  -0.6572  -0.6524  -0.6227  -0.6170  -0.6032  -0.5808
 -0.5757  -0.5678  -0.5442  -0.5319  -0.5165  -0.4957  -0.4830  -0.4702
 -0.4639  -0.4563  -0.4371  -0.4336  -0.4157  -0.4039  -0.3907  -0.3859
 -- Virtual --
 -0.0376   0.0271   0.0371   0.0414   0.0429   0.0620   0.0648   0.0705
  0.0735   0.0917   0.0947   0.1129   0.1208   0.1262   0.1275   0.1363
  0.1476   0.1480   0.1526   0.1566   0.1627   0.1677   0.1740   0.1793
  0.1859   0.1873   0.1977   0.2118   0.2161   0.2305   0.2437   0.2477
  0.2541   0.2590   0.2619   0.2668   0.2720   0.2763   0.2838   0.2884
  0.2901   0.2934   0.3021   0.3051   0.3073   0.3211   0.3244   0.3313
  0.3377   0.3407   0.3469   0.3501   0.3601   0.3631   0.3663   0.3745
  0.3854   0.3869   0.3954   0.3964   0.4031   0.4052   0.4091   0.4174
  0.4236   0.4267   0.4319   0.4382   0.4471   0.4503   0.4652   0.4680
  0.4809   0.4880   0.4941   0.5072   0.5309   0.5448   0.5704   0.5870
  0.5938   0.6080   0.6192   0.6251   0.6394   0.6564   0.6613   0.6846
  0.6899   0.7036   0.7110   0.7174   0.7300   0.7355   0.7503   0.7577
  0.7620   0.7863   0.7973   0.8048   0.8241   0.8400   0.8592   0.8686
  0.8771   0.9012   0.9091   0.9358   0.9511   0.9792   0.9868   1.0069
  1.0298   1.0495   1.0643   1.0695   1.0740   1.0879   1.1037   1.1092
  1.1196   1.1343   1.1440   1.1585   1.1600   1.1671   1.1820   1.1882
  1.1912   1.2018   1.2068   1.2166   1.2174   1.2268   1.2286   1.2399
  1.2455   1.2600   1.2658   1.2844   1.2932   1.2975   1.3053   1.3109
  1.3273   1.3339   1.3539   1.3570   1.3817   1.3914   1.4017   1.4207
  1.4286   1.4420   1.4627   1.4760   1.4946   1.4992   1.5060   1.5211
  1.5311   1.5395   1.5462   1.5571   1.5720   1.5871   1.5973   1.6169
  1.6257   1.6413   1.6498   1.6586   1.6830   1.6882   1.6932   1.7158
  1.7215   1.7446   1.7694   1.7888   1.8078   1.8211   1.8439   1.8614
  1.8767   1.8944   1.9264   1.9408   1.9519   1.9780   1.9944   2.0121
  2.0313   2.0509   2.0655   2.0891   2.1137   2.1754   2.1814   2.2184
  2.2425   2.2504   2.2715   2.2881   2.3011   2.3276   2.3464   2.3595
  2.3814   2.3948   2.4027   2.4346   2.4520   2.4658   2.4826   2.4941
  2.5098   2.5327   2.5629   2.6039   2.6773   2.6851   2.7200   2.7568
  2.7909   2.8033   2.8419   2.8595   2.8788   2.8916   2.9285   2.9553
  2.9803   3.0078   3.0575   3.0819   3.0994   3.1399   3.1780   3.2021
  3.2229   3.2738   3.2861   3.2884   3.3253   3.3417   3.3748   3.4146
  3.4195   3.4459   3.4646   3.4831   3.5127   3.5379   3.5626   3.5730
  3.6153   3.6272   3.6471   3.6564   3.6710   3.6871   3.7184   3.7280
  3.7387   3.7528   3.7709   3.8163   3.8219   3.8318   3.8440   3.8497
  3.8599   3.8712   3.8848   3.9041   3.9101   3.9337   3.9379   3.9694
  3.9787   4.0071   4.0360   4.0670   4.0813   4.1166   4.1314   4.1540
  4.1804   4.1910   4.2133   4.2297   4.2537   4.2582   4.2897   4.3106
  4.3400   4.3586   4.3905   4.3947   4.4039   4.4105   4.4463   4.4591
  4.4841   4.5655   4.5698   4.5894   4.6225   4.6376   4.6566   4.6873
  4.7146   4.7545   4.7724   4.8172   4.8715   4.8770   4.9118   4.9406
  5.0313   5.0509   5.0650   5.1296   5.1356   5.1450   5.1738   5.1967
  5.2159   5.2226   5.2487   5.2534   5.2575   5.2694   5.2830   5.2901
  5.3032   5.3071   5.3248   5.3261   5.3332   5.3454   5.3607   5.3742
  5.3843   5.3997   5.4062   5.4144   5.4369   5.4392   5.4765   5.4924
  5.5002   5.5133   5.5481   5.5608   5.5740   5.6016   5.6132   5.6273
  5.6325   5.6432   5.6499   5.6624   5.6787   5.6847   5.7247   5.7450
  5.7617   5.7864   5.8111   5.8161   5.8525   5.9206   5.9763   6.0331
  6.0406   6.0550   6.0919   6.1087   6.1557   6.1651   6.2505   6.4009
  6.5007   6.5196   6.5868   6.6076   6.7064   6.7561   6.8218   6.8672
  6.9186   6.9514   7.0181   7.0321   7.0580   7.0767   7.0877   7.1040
  7.1356   7.1415   7.1687   7.2052   7.2475   7.2620   7.2724   7.2877
  7.3140   7.3182   7.3243   7.3376   7.3459   7.3803   7.4110   7.4163
  7.4261   7.4407   7.4769   7.5106   7.5162   7.5402   7.5939   7.6102
  7.6714   7.6916   7.7035   7.7621   7.7851   7.8331   7.8617   7.8767
  7.8972   7.9193   8.0205   8.0690   8.1303   8.2074  24.6420  24.7469
 24.8133  24.8671  50.4345  50.5011  50.5374  50.5985  50.6167  50.6297
 50.6553  50.7025
 --------------------------------------------------------------
 
          Ground-State Mulliken Net Atomic Charges

     Atom                 Charge (a.u.)    Spin (a.u.)
  --------------------------------------------------------
      1 C                    -0.131436      -0.002937
      2 O                    -0.420939      -0.000101
      3 C                     0.195662       0.003227
      4 O                    -0.399840       0.001485
      5 C                    -0.657769      -0.005448
      6 C                    -0.119038       0.008083
      7 O                     0.080174       0.286795
      8 H                     0.307942      -0.000043
      9 H                     0.337045      -0.000045
     10 H                     0.325788      -0.000894
     11 H                     0.296235       0.000350
     12 H                     0.327771       0.002292
     13 O                    -0.460632       0.000033
     14 H                     0.353861       0.000072
     15 O                    -0.141532       0.000246
     16 O                    -0.280495       0.000555
     17 H                     0.323713       0.001764
     18 H                     0.332923      -0.000434
     19 O                    -0.419679       0.006880
     20 H                     0.350738      -0.000207
     21 O                    -0.200492       0.698326
  --------------------------------------------------------
  Sum of atomic charges =     0.000000
  Sum of spin   charges =     1.000000

 -----------------------------------------------------------------
                    Cartesian Multipole Moments
 -----------------------------------------------------------------
    Charge (ESU x 10^10)
                 0.0000
    Dipole Moment (Debye)
         X      -0.0531      Y       4.1571      Z      -3.4438
       Tot       5.3985
    Quadrupole Moments (Debye-Ang)
        XX     -70.1751     XY      11.3583     YY     -78.2917
        XZ     -16.2545     YZ      -8.0721     ZZ     -76.9137
    Octopole Moments (Debye-Ang^2)
       XXX    -812.8496    XXY      12.9542    XYY    -322.3216
       YYY      65.5395    XXZ    -125.4004    XYZ     -38.5881
       YYZ     -19.0634    XZZ    -332.9455    YZZ      -5.3256
       ZZZ    -138.0042
    Hexadecapole Moments (Debye-Ang^3)
      XXXX   -7041.8746   XXXY    -346.7465   XXYY   -1650.8747
      XYYY      36.1704   YYYY    -890.4525   XXXZ   -1115.1344
      XXYZ    -284.4663   XYYZ    -179.7833   YYYZ    -265.7836
      XXZZ   -1711.4091   XYZZ    -114.8081   YYZZ    -354.5628
      XZZZ    -765.2760   YZZZ    -290.1784   ZZZZ   -1053.6634
 -----------------------------------------------------------------
 Calculating analytic gradient of the SCF energy
 Gradient of CDS energy
            1           2           3           4           5           6
    1  -0.0026780   0.0017737  -0.0019639   0.0020777  -0.0000498   0.0020571
    2  -0.0015803  -0.0015297  -0.0008579   0.0008848   0.0000174   0.0052348
    3  -0.0002226   0.0003375   0.0029460  -0.0031998  -0.0000555  -0.0006507
            7           8           9          10          11          12
    1   0.0001231   0.0002508  -0.0003801  -0.0001729   0.0000712  -0.0000601
    2   0.0001079  -0.0000337   0.0002258  -0.0000129  -0.0000485  -0.0001199
    3  -0.0000212   0.0000117  -0.0002687   0.0000750  -0.0001215   0.0001210
           13          14          15          16          17          18
    1   0.0011228  -0.0002765  -0.0000546  -0.0002939  -0.0001442   0.0004787
    2   0.0030914  -0.0003694  -0.0000149  -0.0000308  -0.0000761  -0.0000862
    3  -0.0001516   0.0001792  -0.0000845   0.0000991   0.0004154  -0.0001382
           19          20          21
    1  -0.0017618  -0.0000730  -0.0000463
    2  -0.0052642   0.0004765  -0.0000140
    3   0.0007231  -0.0000322   0.0000382
 Gradient of SCF Energy
            1           2           3           4           5           6
    1  -0.0038223   0.0026507   0.0027800  -0.0048599   0.0042668  -0.0188387
    2   0.0009087   0.0009990   0.0020644  -0.0050829  -0.0136827   0.0077636
    3   0.0054543   0.0152878  -0.0001396  -0.0065289   0.0142442   0.0006199
            7           8           9          10          11          12
    1   0.0028468   0.0020654  -0.0041036  -0.0070589   0.0063083   0.0123939
    2   0.0011698   0.0046769  -0.0000144   0.0096474   0.0030342  -0.0099186
    3  -0.0001923  -0.0065622  -0.0141345   0.0024591  -0.0129374  -0.0037260
           13          14          15          16          17          18
    1   0.0036212  -0.0027415  -0.0027065  -0.0142517   0.0036292   0.0151690
    2  -0.0052179   0.0006866  -0.0040697  -0.0125364   0.0043161   0.0128243
    3  -0.0022122   0.0012935   0.0012436  -0.0080441   0.0066449   0.0061235
           19          20          21
    1   0.0191137  -0.0162526  -0.0002094
    2  -0.0086731   0.0106029   0.0005018
    3   0.0070253  -0.0058068  -0.0001118
 Max gradient component =       1.911E-02
 RMS gradient           =       8.023E-03
 Computing fast CPCM-SWIG gradient
 Updating gradient with PCM contributions...
 -- total gradient after adding PCM contribution --
---------------------------------------------------
  Atom         X              Y              Z     
---------------------------------------------------
   1      -0.000006      -0.000005       0.000015
   2      -0.000001       0.000012       0.000026
   3      -0.000024       0.000012       0.000024
   4       0.000005      -0.000006      -0.000013
   5      -0.000008       0.000023      -0.000007
   6      -0.000018      -0.000037       0.000013
   7       0.000027       0.000010      -0.000024
   8      -0.000006       0.000003      -0.000001
   9      -0.000023      -0.000005       0.000010
  10      -0.000002      -0.000004       0.000002
  11      -0.000001      -0.000005      -0.000008
  12       0.000004      -0.000007      -0.000020
  13      -0.000012      -0.000005       0.000003
  14      -0.000006      -0.000002       0.000028
  15       0.000029      -0.000004      -0.000041
  16      -0.000037      -0.000015       0.000007
  17       0.000013      -0.000002       0.000012
  18       0.000007       0.000001      -0.000015
  19       0.000022       0.000026       0.000003
  20      -0.000001       0.000003      -0.000021
  21       0.000036       0.000004       0.000007
---------------------------------------------------
 Number of fixed atoms: 0
 Gradient time:  CPU 512.63 s  wall 42.49 s
 ######################################################
 ######################################################
 # Starting finite difference calculation for IDERIV  #
 Finite diff step size:  1.88973e-03 a.u.
 ----------------------------------------------------------------
             Standard Nuclear Orientation (Angstroms)
    I     Atom           X                Y                Z
 ----------------------------------------------------------------
    1      C       2.6744104870    -1.0133856500    -1.0766569455
    2      O       1.5952869242    -0.1112565256    -1.1267776265
    3      C       3.5203067944    -0.6271265149     0.1453714037
    4      O       2.7624164900    -0.9461054092     1.2708409184
    5      C       3.9689066851     0.8280209597     0.0743522565
    6      C       5.0310537016     1.2266255546     1.0734320097
    7      O       4.4072660002     1.0787743093     2.4056014887
    8      H       3.2768019537    -0.9475885302    -1.9788978699
    9      H       1.1746574978    -0.1997028163    -1.9896658454
   10      H       3.0976799036     1.4695721825     0.2056325120
   11      H       4.3780789325     1.0238573820    -0.9157464423
   12      H       5.9043191156     0.5811961322     1.0913972435
   13      O       2.2378731862    -2.3458737295    -0.9889839985
   14      H       1.8024608400    -2.4635069195    -0.1338814168
   15      O       4.6443130406    -1.5265058954     0.2403613145
   16      O       5.4489935152    -1.3958181788    -0.9319290447
   17      H       3.1354363428    -0.5189244255     2.0528136427
   18      H       6.2314219733    -0.9317708259    -0.5992041394
   19      O       5.4699525297     2.5308557342     0.9223722115
   20      H       4.7160056750     3.1039201626     0.7289699261
   21      O       5.2983425115     1.1153756037     3.3556713018
 ----------------------------------------------------------------
 Nuclear Repulsion Energy =         839.17444262 hartrees
 There are       49 alpha and       48 beta electrons
 Discretize the solute cavity surface with Lebedev spheres
	Using 110 Lebedev grid points for each H atom
	Using 194 Lebedev grid points for other atoms
	Atomic van der Waals radii will be scaled by 1.20
 Remove points where switching function is < 1.0e-08
 Keep 1643 surface tesserae and discard 1675 interior tesserae
 Molecular Surface Area = 180.814 Angst**2
 Requested basis set is 6-311++G(2df,2p)
 There are 150 shells and 498 basis functions
 A cutoff of  1.0D-12 yielded   9688 shell pairs
 There are    104647 function pairs (    129901 Cartesian)
 Smallest overlap matrix eigenvalue = 3.99E-06
 Guess MOs from SCF MO coefficient file

 -----------------------------------------------------------------------
  General SCF calculation program by
  Eric Jon Sundstrom, Paul Horn, Yuezhi Mao, Dmitri Zuev, Alec White,
  David Stuck, Shaama M.S., Shane Yost, Joonho Lee, David Small,
  Daniel Levine, Susi Lehtola, Hugh Burton, Evgeny Epifanovsky,
  Bang C. Huynh
 -----------------------------------------------------------------------
 Exchange:     0.1500 Hartree-Fock + 1.0000 wB97M-V + LR-HF
 Correlation:  1.0000 wB97M-V
 Using SG-2 standard quadrature grid
 Nonlocal Correlation:  VV10 with C = 0.0100 and b = 6.00 and scale = 1.00000
 Grid used for NLC:  SG-1 standard quadrature
 
 Citation of the SMD model:
 Marenich, A.V.; Cramer, C.J.; Truhlar, D.G.
 J. Phys. Chem. B 2009, 113, 6378-6396.
 iSolventCode=           1
 Solvent: water                                                           
 
 vradii
            1           2           3           4           5           6
    1   1.8500000   1.5200000   1.8500000   1.5200000   1.8500000   1.8500000
            7           8           9          10          11          12
    1   1.5200000   1.2000000   1.2000000   1.2000000   1.2000000   1.2000000
           13          14          15          16          17          18
    1   1.5200000   1.2000000   1.5200000   1.5200000   1.2000000   1.2000000
           19          20          21
    1   1.5200000   1.2000000   1.5200000
 -------------------------------------------------------
 OpenMP BLAS3 based DFT computing Module                
 Release: version 1.0, May 2013, Q-Chem Inc. Pittsburgh 
 -------------------------------------------------------
 A unrestricted SCF calculation will be
 performed using Roothaan-Hall, DIIS, GDM
 SCF converges when RMS gradient is below 1.0e-07
 ---------------------------------------
  Cycle       Energy         DIIS error
 ---------------------------------------
    1    -759.4352958639      2.27e-04  Roothaan Step
 ---------------------------------------
  Cycle       Energy         DIIS error
 ---------------------------------------
    1    -759.4838972553      2.59e-04  
    2    -759.4912147993      2.23e-04  Done DIIS. Switching to GDM
 ---------------------------------------
  Cycle       Energy        RMS Gradient
 ---------------------------------------
    1    -759.4912147993      2.04e-02   Normal BFGS step
    2    -759.4896089564      3.39e-02  Line search: overstep
    3    -759.4952605703      5.20e-03   Normal BFGS step
    4    -759.4954862202      1.19e-03   Normal BFGS step
    5    -759.4955688053      1.22e-03   Normal BFGS step
    6    -759.4955759660      4.14e-04   Normal BFGS step
    7    -759.4955778008      3.77e-04   Normal BFGS step
    8    -759.4955783619      1.85e-04   Normal BFGS step
    9    -759.4955785553      5.16e-05   Normal BFGS step
   10    -759.4955785898      4.61e-05   Normal BFGS step
   11    -759.4955786030      4.39e-05   Normal BFGS step
   12    -759.4955786064      3.85e-05   Normal BFGS step
   13    -759.4955786104      2.97e-05   Normal BFGS step
   14    -759.4955786153      7.04e-06   Normal BFGS step
   15    -759.4955786162      2.23e-06   Normal BFGS step
   16    -759.4955786165      9.22e-07   Normal BFGS step
   17    -759.4955786165      2.60e-07   Normal BFGS step
   18    -759.4955786166      1.46e-07   Normal BFGS step
   19    -759.4955786166      5.86e-08  Convergence criterion met
 ---------------------------------------
 SCF time:   CPU 3890.84s  wall 269.00s 
<S^2> =          0.753832896
(3)  G-ENP(liq) elect-nuc-pol free energy of system     -759.495578617 a.u.
(4)  G-CDS(liq) cavity-dispersion-solvent structure 
     free energy                                                3.3586 kcal/mol
(6)  G-S(liq) free energy of system                     -759.490226324 a.u.
 SCF   energy in the final basis set =     -759.4902263242
 Total energy in the final basis set =     -759.4902263242
 
 --------------------------------------------------------------
 
                    Orbital Energies (a.u.)
 --------------------------------------------------------------
 
 Alpha MOs
 -- Occupied --
-19.4643 -19.4251 -19.4064 -19.3996 -19.3636 -19.3611 -19.3486 -19.3474
-10.4700 -10.4657 -10.4491 -10.3554  -1.3499  -1.2803  -1.2130  -1.1937
 -1.1842  -1.1382  -1.0419  -1.0164  -0.9075  -0.8403  -0.7771  -0.7419
 -0.6933  -0.6781  -0.6630  -0.6554  -0.6408  -0.6237  -0.6124  -0.5893
 -0.5800  -0.5756  -0.5520  -0.5460  -0.5316  -0.4987  -0.4864  -0.4725
 -0.4655  -0.4590  -0.4384  -0.4338  -0.4160  -0.4093  -0.4045  -0.4002
 -0.3908
 -- Virtual --
  0.0270   0.0368   0.0412   0.0426   0.0619   0.0644   0.0703   0.0733
  0.0914   0.0945   0.1119   0.1203   0.1261   0.1264   0.1354   0.1460
  0.1476   0.1524   0.1551   0.1610   0.1671   0.1736   0.1781   0.1846
  0.1870   0.1971   0.2109   0.2154   0.2286   0.2420   0.2463   0.2526
  0.2561   0.2581   0.2662   0.2694   0.2745   0.2829   0.2878   0.2893
  0.2923   0.2994   0.3046   0.3060   0.3201   0.3236   0.3302   0.3357
  0.3395   0.3462   0.3498   0.3598   0.3630   0.3656   0.3739   0.3847
  0.3867   0.3945   0.3961   0.4025   0.4047   0.4087   0.4166   0.4227
  0.4250   0.4297   0.4376   0.4471   0.4497   0.4645   0.4674   0.4804
  0.4873   0.4939   0.5066   0.5294   0.5435   0.5702   0.5863   0.5933
  0.6073   0.6192   0.6251   0.6393   0.6559   0.6604   0.6842   0.6897
  0.7032   0.7109   0.7169   0.7298   0.7352   0.7495   0.7572   0.7620
  0.7861   0.7970   0.8042   0.8236   0.8393   0.8590   0.8679   0.8769
  0.9009   0.9086   0.9352   0.9507   0.9783   0.9858   1.0064   1.0294
  1.0486   1.0634   1.0691   1.0716   1.0852   1.1020   1.1078   1.1178
  1.1322   1.1420   1.1493   1.1574   1.1640   1.1737   1.1863   1.1899
  1.1973   1.2036   1.2111   1.2158   1.2237   1.2262   1.2357   1.2431
  1.2532   1.2650   1.2821   1.2896   1.2954   1.3040   1.3081   1.3215
  1.3317   1.3523   1.3553   1.3795   1.3911   1.4004   1.4198   1.4244
  1.4402   1.4608   1.4750   1.4937   1.4986   1.5035   1.5192   1.5303
  1.5353   1.5418   1.5555   1.5692   1.5824   1.5916   1.6112   1.6244
  1.6304   1.6487   1.6553   1.6790   1.6853   1.6913   1.7060   1.7162
  1.7414   1.7646   1.7850   1.8043   1.8204   1.8391   1.8559   1.8743
  1.8913   1.9214   1.9379   1.9510   1.9772   1.9938   2.0101   2.0287
  2.0467   2.0645   2.0860   2.1127   2.1722   2.1781   2.2145   2.2370
  2.2482   2.2630   2.2852   2.2966   2.3221   2.3430   2.3571   2.3758
  2.3933   2.4020   2.4309   2.4509   2.4652   2.4808   2.4938   2.5086
  2.5320   2.5625   2.6030   2.6760   2.6821   2.7148   2.7559   2.7905
  2.8031   2.8415   2.8591   2.8785   2.8912   2.9282   2.9549   2.9799
  3.0075   3.0575   3.0815   3.0992   3.1395   3.1779   3.2019   3.2229
  3.2732   3.2860   3.2877   3.3244   3.3412   3.3746   3.4146   3.4193
  3.4456   3.4643   3.4827   3.5126   3.5377   3.5622   3.5730   3.6153
  3.6269   3.6471   3.6563   3.6709   3.6872   3.7183   3.7281   3.7389
  3.7525   3.7699   3.8160   3.8218   3.8318   3.8438   3.8493   3.8596
  3.8711   3.8848   3.9039   3.9102   3.9335   3.9378   3.9692   3.9785
  4.0070   4.0357   4.0671   4.0813   4.1160   4.1311   4.1536   4.1804
  4.1908   4.2130   4.2296   4.2535   4.2580   4.2894   4.3104   4.3399
  4.3584   4.3897   4.3945   4.4038   4.4107   4.4437   4.4590   4.4841
  4.5619   4.5688   4.5827   4.6213   4.6272   4.6465   4.6834   4.7119
  4.7452   4.7684   4.8102   4.8550   4.8739   4.9015   4.9370   5.0293
  5.0421   5.0583   5.0754   5.0845   5.0950   5.1404   5.1586   5.2115
  5.2198   5.2299   5.2449   5.2553   5.2664   5.2708   5.2816   5.2990
  5.3021   5.3164   5.3239   5.3284   5.3345   5.3590   5.3725   5.3807
  5.3908   5.3986   5.4034   5.4300   5.4383   5.4734   5.4920   5.4941
  5.5098   5.5473   5.5600   5.5675   5.6008   5.6124   5.6131   5.6323
  5.6422   5.6443   5.6617   5.6771   5.6832   5.7240   5.7370   5.7603
  5.7858   5.7991   5.8157   5.8520   5.9199   5.9748   6.0294   6.0380
  6.0543   6.0914   6.1070   6.1549   6.1628   6.2504   6.3885   6.4717
  6.5016   6.5833   6.5980   6.6959   6.7547   6.8205   6.8383   6.8652
  6.8710   6.9867   7.0178   7.0469   7.0700   7.0867   7.0998   7.1180
  7.1332   7.1633   7.1833   7.2230   7.2545   7.2720   7.2866   7.3094
  7.3129   7.3235   7.3308   7.3396   7.3756   7.3972   7.4026   7.4235
  7.4387   7.4699   7.5022   7.5142   7.5225   7.5920   7.6096   7.6713
  7.6900   7.7021   7.7555   7.7849   7.8319   7.8609   7.8699   7.8962
  7.9191   8.0202   8.0561   8.1115   8.2074  24.6420  24.7470  24.8131
 24.8674  50.4212  50.5011  50.5300  50.5975  50.6162  50.6295  50.6551
 50.7024
 
 Beta MOs
 -- Occupied --
-19.4548 -19.4064 -19.4057 -19.3996 -19.3633 -19.3611 -19.3486 -19.3474
-10.4700 -10.4661 -10.4491 -10.3554  -1.3243  -1.2803  -1.2130  -1.1914
 -1.1841  -1.1382  -1.0418  -0.9862  -0.9023  -0.8364  -0.7737  -0.7417
 -0.6925  -0.6678  -0.6572  -0.6524  -0.6227  -0.6170  -0.6032  -0.5808
 -0.5757  -0.5678  -0.5441  -0.5318  -0.5165  -0.4957  -0.4830  -0.4702
 -0.4639  -0.4563  -0.4371  -0.4336  -0.4157  -0.4039  -0.3908  -0.3859
 -- Virtual --
 -0.0376   0.0271   0.0371   0.0414   0.0429   0.0620   0.0648   0.0705
  0.0735   0.0917   0.0947   0.1129   0.1208   0.1262   0.1275   0.1363
  0.1476   0.1480   0.1526   0.1566   0.1627   0.1677   0.1740   0.1793
  0.1859   0.1873   0.1977   0.2117   0.2160   0.2304   0.2437   0.2477
  0.2541   0.2590   0.2619   0.2668   0.2721   0.2763   0.2838   0.2884
  0.2901   0.2933   0.3021   0.3051   0.3073   0.3211   0.3244   0.3313
  0.3377   0.3407   0.3469   0.3501   0.3601   0.3631   0.3663   0.3744
  0.3854   0.3869   0.3955   0.3964   0.4030   0.4052   0.4090   0.4174
  0.4236   0.4267   0.4319   0.4382   0.4471   0.4503   0.4652   0.4680
  0.4809   0.4879   0.4941   0.5071   0.5309   0.5448   0.5705   0.5870
  0.5938   0.6080   0.6192   0.6252   0.6394   0.6563   0.6613   0.6846
  0.6900   0.7036   0.7110   0.7175   0.7301   0.7355   0.7503   0.7577
  0.7620   0.7863   0.7974   0.8048   0.8240   0.8400   0.8592   0.8686
  0.8771   0.9012   0.9091   0.9357   0.9510   0.9792   0.9868   1.0068
  1.0298   1.0495   1.0643   1.0695   1.0740   1.0879   1.1037   1.1092
  1.1197   1.1344   1.1440   1.1585   1.1600   1.1671   1.1820   1.1882
  1.1912   1.2018   1.2068   1.2166   1.2173   1.2268   1.2287   1.2399
  1.2454   1.2600   1.2657   1.2844   1.2932   1.2976   1.3053   1.3109
  1.3273   1.3340   1.3539   1.3571   1.3818   1.3914   1.4017   1.4206
  1.4286   1.4420   1.4627   1.4760   1.4946   1.4992   1.5060   1.5211
  1.5311   1.5395   1.5462   1.5571   1.5720   1.5872   1.5974   1.6168
  1.6257   1.6414   1.6498   1.6586   1.6831   1.6881   1.6933   1.7158
  1.7215   1.7447   1.7694   1.7887   1.8079   1.8212   1.8439   1.8615
  1.8768   1.8944   1.9264   1.9409   1.9519   1.9779   1.9943   2.0121
  2.0313   2.0509   2.0655   2.0889   2.1136   2.1753   2.1813   2.2183
  2.2425   2.2502   2.2715   2.2881   2.3010   2.3276   2.3464   2.3594
  2.3813   2.3947   2.4024   2.4346   2.4520   2.4657   2.4826   2.4941
  2.5097   2.5327   2.5628   2.6039   2.6773   2.6851   2.7200   2.7568
  2.7908   2.8034   2.8418   2.8593   2.8787   2.8915   2.9285   2.9553
  2.9803   3.0078   3.0576   3.0819   3.0994   3.1398   3.1780   3.2022
  3.2232   3.2737   3.2861   3.2885   3.3252   3.3414   3.3747   3.4147
  3.4196   3.4458   3.4645   3.4829   3.5127   3.5379   3.5624   3.5731
  3.6153   3.6271   3.6471   3.6563   3.6709   3.6872   3.7185   3.7280
  3.7388   3.7528   3.7709   3.8163   3.8219   3.8319   3.8440   3.8499
  3.8599   3.8712   3.8849   3.9040   3.9102   3.9337   3.9378   3.9693
  3.9787   4.0071   4.0359   4.0673   4.0814   4.1166   4.1313   4.1541
  4.1804   4.1910   4.2134   4.2298   4.2537   4.2581   4.2897   4.3106
  4.3403   4.3587   4.3906   4.3946   4.4040   4.4109   4.4464   4.4593
  4.4845   4.5658   4.5698   4.5894   4.6229   4.6377   4.6567   4.6874
  4.7146   4.7545   4.7725   4.8173   4.8716   4.8770   4.9119   4.9408
  5.0313   5.0509   5.0650   5.1297   5.1356   5.1450   5.1738   5.1967
  5.2158   5.2226   5.2488   5.2533   5.2574   5.2694   5.2830   5.2900
  5.3032   5.3070   5.3247   5.3261   5.3332   5.3454   5.3607   5.3743
  5.3844   5.3996   5.4062   5.4145   5.4371   5.4395   5.4765   5.4925
  5.5002   5.5133   5.5480   5.5606   5.5740   5.6020   5.6132   5.6273
  5.6325   5.6432   5.6499   5.6624   5.6786   5.6847   5.7246   5.7450
  5.7617   5.7863   5.8111   5.8160   5.8525   5.9205   5.9762   6.0330
  6.0405   6.0547   6.0918   6.1086   6.1552   6.1629   6.2505   6.4009
  6.5008   6.5196   6.5864   6.6076   6.7064   6.7548   6.8218   6.8672
  6.9186   6.9514   7.0181   7.0321   7.0581   7.0767   7.0876   7.1040
  7.1356   7.1415   7.1687   7.2052   7.2475   7.2619   7.2723   7.2876
  7.3140   7.3182   7.3242   7.3376   7.3459   7.3803   7.4110   7.4163
  7.4259   7.4407   7.4769   7.5106   7.5161   7.5402   7.5939   7.6102
  7.6714   7.6915   7.7034   7.7621   7.7851   7.8331   7.8616   7.8767
  7.8972   7.9191   8.0205   8.0690   8.1303   8.2074  24.6419  24.7469
 24.8130  24.8674  50.4345  50.5011  50.5374  50.5985  50.6167  50.6295
 50.6554  50.7025
 --------------------------------------------------------------
 
          Ground-State Mulliken Net Atomic Charges

     Atom                 Charge (a.u.)    Spin (a.u.)
  --------------------------------------------------------
      1 C                    -0.131783      -0.002941
      2 O                    -0.421280      -0.000101
      3 C                     0.195755       0.003231
      4 O                    -0.399823       0.001485
      5 C                    -0.657706      -0.005447
      6 C                    -0.119061       0.008082
      7 O                     0.080175       0.286790
      8 H                     0.308426      -0.000043
      9 H                     0.337011      -0.000045
     10 H                     0.325807      -0.000894
     11 H                     0.296234       0.000349
     12 H                     0.327782       0.002292
     13 O                    -0.460756       0.000033
     14 H                     0.353888       0.000072
     15 O                    -0.141526       0.000246
     16 O                    -0.280384       0.000556
     17 H                     0.323725       0.001765
     18 H                     0.332928      -0.000434
     19 O                    -0.419673       0.006880
     20 H                     0.350737      -0.000207
     21 O                    -0.200476       0.698331
  --------------------------------------------------------
  Sum of atomic charges =     0.000000
  Sum of spin   charges =     1.000000

 -----------------------------------------------------------------
                    Cartesian Multipole Moments
 -----------------------------------------------------------------
    Charge (ESU x 10^10)
                 0.0000
    Dipole Moment (Debye)
         X      -0.0475      Y       4.1565      Z      -3.4432
       Tot       5.3976
    Quadrupole Moments (Debye-Ang)
        XX     -70.1453     XY      11.3546     YY     -78.2919
        XZ     -16.2591     YZ      -8.0705     ZZ     -76.9091
    Octopole Moments (Debye-Ang^2)
       XXX    -812.7301    XXY      12.9380    XYY    -322.3203
       YYY      65.5451    XXZ    -125.4257    XYZ     -38.5790
       YYZ     -19.0611    XZZ    -332.9229    YZZ      -5.3315
       ZZZ    -138.0073
    Hexadecapole Moments (Debye-Ang^3)
      XXXX   -7041.4210   XXXY    -346.7925   XXYY   -1650.8567
      XYYY      36.2048   YYYY    -890.4700   XXXZ   -1115.2214
      XXYZ    -284.4244   XYYZ    -179.7777   YYYZ    -265.7855
      XXZZ   -1711.3173   XYZZ    -114.8245   YYZZ    -354.5566
      XZZZ    -765.2889   YZZZ    -290.1630   ZZZZ   -1053.6149
 -----------------------------------------------------------------
 Calculating analytic gradient of the SCF energy
 Gradient of CDS energy
            1           2           3           4           5           6
    1  -0.0025345   0.0016528  -0.0019639   0.0020775  -0.0000498   0.0020571
    2  -0.0016137  -0.0014273  -0.0008579   0.0008849   0.0000174   0.0052348
    3  -0.0002217   0.0003320   0.0029460  -0.0031999  -0.0000556  -0.0006507
            7           8           9          10          11          12
    1   0.0001231   0.0002503  -0.0003804  -0.0001732   0.0000712  -0.0000601
    2   0.0001079  -0.0000333   0.0002260  -0.0000129  -0.0000485  -0.0001199
    3  -0.0000212   0.0000119  -0.0002688   0.0000749  -0.0001215   0.0001210
           13          14          15          16          17          18
    1   0.0011016  -0.0002767  -0.0000547  -0.0002939  -0.0001442   0.0004787
    2   0.0030219  -0.0003696  -0.0000150  -0.0000307  -0.0000761  -0.0000862
    3  -0.0001466   0.0001792  -0.0000845   0.0000991   0.0004154  -0.0001382
           19          20          21
    1  -0.0017618  -0.0000730  -0.0000463
    2  -0.0052642   0.0004765  -0.0000140
    3   0.0007231  -0.0000322   0.0000382
 Gradient of SCF Energy
            1           2           3           4           5           6
    1  -0.0026329   0.0021821   0.0025821  -0.0048482   0.0042605  -0.0188461
    2   0.0009375   0.0012240   0.0020201  -0.0050727  -0.0137047   0.0077669
    3   0.0053228   0.0152351  -0.0002458  -0.0064837   0.0142386   0.0006155
            7           8           9          10          11          12
    1   0.0028484   0.0018287  -0.0041338  -0.0070561   0.0063108   0.0123991
    2   0.0011717   0.0046624   0.0000207   0.0096488   0.0030324  -0.0099224
    3  -0.0001925  -0.0063539  -0.0141190   0.0024615  -0.0129445  -0.0037261
           13          14          15          16          17          18
    1   0.0034120  -0.0027523  -0.0027536  -0.0142545   0.0036275   0.0151726
    2  -0.0053952   0.0006401  -0.0040603  -0.0125400   0.0043092   0.0128275
    3  -0.0021509   0.0012932   0.0012060  -0.0080468   0.0066566   0.0061244
           19          20          21
    1   0.0191163  -0.0162531  -0.0002093
    2  -0.0086709   0.0106034   0.0005014
    3   0.0070278  -0.0058076  -0.0001108
 Max gradient component =       1.912E-02
 RMS gradient           =       8.007E-03
 Computing fast CPCM-SWIG gradient
 Updating gradient with PCM contributions...
 -- total gradient after adding PCM contribution --
---------------------------------------------------
  Atom         X              Y              Z     
---------------------------------------------------
   1       0.001175       0.000019      -0.000128
   2      -0.000449       0.000237      -0.000015
   3      -0.000213      -0.000029      -0.000090
   4       0.000022       0.000004       0.000040
   5      -0.000013       0.000005      -0.000016
   6      -0.000020      -0.000037       0.000009
   7       0.000027       0.000011      -0.000024
   8      -0.000246      -0.000014       0.000224
   9      -0.000064       0.000030       0.000014
  10      -0.000002      -0.000003       0.000002
  11      -0.000001      -0.000006      -0.000009
  12       0.000004      -0.000007      -0.000020
  13      -0.000212      -0.000184       0.000058
  14      -0.000024      -0.000047       0.000031
  15      -0.000020       0.000008      -0.000078
  16      -0.000037      -0.000015       0.000004
  17       0.000009      -0.000009       0.000018
  18       0.000007       0.000001      -0.000014
  19       0.000024       0.000029       0.000005
  20      -0.000001       0.000003      -0.000021
  21       0.000036       0.000004       0.000008
---------------------------------------------------
 Number of fixed atoms: 0
 Gradient time:  CPU 557.97 s  wall 45.24 s
 ----------------------------------------------------------------
             Standard Nuclear Orientation (Angstroms)
    I     Atom           X                Y                Z
 ----------------------------------------------------------------
    1      C       2.6724104870    -1.0133856500    -1.0766569455
    2      O       1.5952869242    -0.1112565256    -1.1267776265
    3      C       3.5203067944    -0.6271265149     0.1453714037
    4      O       2.7624164900    -0.9461054092     1.2708409184
    5      C       3.9689066851     0.8280209597     0.0743522565
    6      C       5.0310537016     1.2266255546     1.0734320097
    7      O       4.4072660002     1.0787743093     2.4056014887
    8      H       3.2768019537    -0.9475885302    -1.9788978699
    9      H       1.1746574978    -0.1997028163    -1.9896658454
   10      H       3.0976799036     1.4695721825     0.2056325120
   11      H       4.3780789325     1.0238573820    -0.9157464423
   12      H       5.9043191156     0.5811961322     1.0913972435
   13      O       2.2378731862    -2.3458737295    -0.9889839985
   14      H       1.8024608400    -2.4635069195    -0.1338814168
   15      O       4.6443130406    -1.5265058954     0.2403613145
   16      O       5.4489935152    -1.3958181788    -0.9319290447
   17      H       3.1354363428    -0.5189244255     2.0528136427
   18      H       6.2314219733    -0.9317708259    -0.5992041394
   19      O       5.4699525297     2.5308557342     0.9223722115
   20      H       4.7160056750     3.1039201626     0.7289699261
   21      O       5.2983425115     1.1153756037     3.3556713018
 ----------------------------------------------------------------
 Nuclear Repulsion Energy =         839.16935184 hartrees
 There are       49 alpha and       48 beta electrons
 Discretize the solute cavity surface with Lebedev spheres
	Using 110 Lebedev grid points for each H atom
	Using 194 Lebedev grid points for other atoms
	Atomic van der Waals radii will be scaled by 1.20
 Remove points where switching function is < 1.0e-08
 Keep 1643 surface tesserae and discard 1675 interior tesserae
 Molecular Surface Area = 180.815 Angst**2
 Requested basis set is 6-311++G(2df,2p)
 There are 150 shells and 498 basis functions
 A cutoff of  1.0D-12 yielded   9688 shell pairs
 There are    104647 function pairs (    129901 Cartesian)
 Smallest overlap matrix eigenvalue = 4.00E-06
 Guess MOs from SCF MO coefficient file

 -----------------------------------------------------------------------
  General SCF calculation program by
  Eric Jon Sundstrom, Paul Horn, Yuezhi Mao, Dmitri Zuev, Alec White,
  David Stuck, Shaama M.S., Shane Yost, Joonho Lee, David Small,
  Daniel Levine, Susi Lehtola, Hugh Burton, Evgeny Epifanovsky,
  Bang C. Huynh
 -----------------------------------------------------------------------
 Exchange:     0.1500 Hartree-Fock + 1.0000 wB97M-V + LR-HF
 Correlation:  1.0000 wB97M-V
 Using SG-2 standard quadrature grid
 Nonlocal Correlation:  VV10 with C = 0.0100 and b = 6.00 and scale = 1.00000
 Grid used for NLC:  SG-1 standard quadrature
 
 Citation of the SMD model:
 Marenich, A.V.; Cramer, C.J.; Truhlar, D.G.
 J. Phys. Chem. B 2009, 113, 6378-6396.
 iSolventCode=           1
 Solvent: water                                                           
 
 vradii
            1           2           3           4           5           6
    1   1.8500000   1.5200000   1.8500000   1.5200000   1.8500000   1.8500000
            7           8           9          10          11          12
    1   1.5200000   1.2000000   1.2000000   1.2000000   1.2000000   1.2000000
           13          14          15          16          17          18
    1   1.5200000   1.2000000   1.5200000   1.5200000   1.2000000   1.2000000
           19          20          21
    1   1.5200000   1.2000000   1.5200000
 -------------------------------------------------------
 OpenMP BLAS3 based DFT computing Module                
 Release: version 1.0, May 2013, Q-Chem Inc. Pittsburgh 
 -------------------------------------------------------
 A unrestricted SCF calculation will be
 performed using Roothaan-Hall, DIIS, GDM
 SCF converges when RMS gradient is below 1.0e-07
 ---------------------------------------
  Cycle       Energy         DIIS error
 ---------------------------------------
    1    -759.4353022236      2.27e-04  Roothaan Step
 ---------------------------------------
  Cycle       Energy         DIIS error
 ---------------------------------------
    1    -759.4839229481      2.58e-04  
    2    -759.4912392928      2.23e-04  Done DIIS. Switching to GDM
 ---------------------------------------
  Cycle       Energy        RMS Gradient
 ---------------------------------------
    1    -759.4912392928      2.04e-02   Normal BFGS step
    2    -759.4896356228      3.39e-02  Line search: overstep
    3    -759.4952709040      5.20e-03   Normal BFGS step
    4    -759.4954965522      1.17e-03   Normal BFGS step
    5    -759.4955789239      1.22e-03   Normal BFGS step
    6    -759.4955860653      4.15e-04   Normal BFGS step
    7    -759.4955878995      3.77e-04   Normal BFGS step
    8    -759.4955884613      1.85e-04   Normal BFGS step
    9    -759.4955886546      5.13e-05   Normal BFGS step
   10    -759.4955886891      4.59e-05   Normal BFGS step
   11    -759.4955887022      4.37e-05   Normal BFGS step
   12    -759.4955887056      3.84e-05   Normal BFGS step
   13    -759.4955887095      2.96e-05   Normal BFGS step
   14    -759.4955887145      7.03e-06   Normal BFGS step
   15    -759.4955887153      2.22e-06   Normal BFGS step
   16    -759.4955887156      9.19e-07   Normal BFGS step
   17    -759.4955887157      2.58e-07   Normal BFGS step
   18    -759.4955887157      1.45e-07   Normal BFGS step
   19    -759.4955887157      5.83e-08  Convergence criterion met
 ---------------------------------------
 SCF time:   CPU 3869.23s  wall 267.00s 
<S^2> =          0.753832949
(3)  G-ENP(liq) elect-nuc-pol free energy of system     -759.495588716 a.u.
(4)  G-CDS(liq) cavity-dispersion-solvent structure 
     free energy                                                3.3650 kcal/mol
(6)  G-S(liq) free energy of system                     -759.490226304 a.u.
 SCF   energy in the final basis set =     -759.4902263036
 Total energy in the final basis set =     -759.4902263036
 
 --------------------------------------------------------------
 
                    Orbital Energies (a.u.)
 --------------------------------------------------------------
 
 Alpha MOs
 -- Occupied --
-19.4643 -19.4251 -19.4064 -19.3995 -19.3636 -19.3611 -19.3487 -19.3474
-10.4700 -10.4657 -10.4490 -10.3554  -1.3499  -1.2803  -1.2132  -1.1937
 -1.1843  -1.1385  -1.0419  -1.0164  -0.9074  -0.8401  -0.7771  -0.7418
 -0.6934  -0.6781  -0.6631  -0.6554  -0.6408  -0.6237  -0.6123  -0.5894
 -0.5800  -0.5756  -0.5520  -0.5461  -0.5316  -0.4987  -0.4863  -0.4725
 -0.4655  -0.4590  -0.4384  -0.4337  -0.4160  -0.4093  -0.4045  -0.4002
 -0.3907
 -- Virtual --
  0.0270   0.0368   0.0412   0.0426   0.0619   0.0644   0.0703   0.0733
  0.0914   0.0945   0.1119   0.1203   0.1261   0.1264   0.1354   0.1460
  0.1476   0.1523   0.1551   0.1610   0.1671   0.1736   0.1781   0.1846
  0.1871   0.1971   0.2110   0.2156   0.2286   0.2420   0.2464   0.2526
  0.2560   0.2581   0.2662   0.2694   0.2745   0.2829   0.2879   0.2893
  0.2924   0.2994   0.3046   0.3060   0.3201   0.3236   0.3302   0.3357
  0.3395   0.3463   0.3497   0.3598   0.3630   0.3658   0.3740   0.3847
  0.3867   0.3945   0.3961   0.4026   0.4047   0.4088   0.4166   0.4227
  0.4251   0.4297   0.4377   0.4470   0.4497   0.4645   0.4674   0.4805
  0.4874   0.4938   0.5067   0.5294   0.5435   0.5701   0.5863   0.5932
  0.6072   0.6192   0.6251   0.6394   0.6559   0.6605   0.6842   0.6897
  0.7033   0.7109   0.7169   0.7297   0.7353   0.7494   0.7572   0.7620
  0.7861   0.7969   0.8042   0.8237   0.8392   0.8589   0.8679   0.8769
  0.9009   0.9086   0.9353   0.9508   0.9783   0.9858   1.0064   1.0293
  1.0485   1.0634   1.0691   1.0716   1.0852   1.1020   1.1078   1.1176
  1.1321   1.1420   1.1493   1.1575   1.1641   1.1737   1.1862   1.1899
  1.1973   1.2036   1.2111   1.2158   1.2237   1.2262   1.2356   1.2432
  1.2532   1.2652   1.2821   1.2896   1.2953   1.3040   1.3081   1.3214
  1.3316   1.3523   1.3553   1.3794   1.3911   1.4004   1.4199   1.4244
  1.4402   1.4608   1.4751   1.4937   1.4985   1.5035   1.5192   1.5302
  1.5353   1.5418   1.5555   1.5692   1.5823   1.5914   1.6112   1.6244
  1.6302   1.6486   1.6553   1.6789   1.6853   1.6913   1.7060   1.7162
  1.7413   1.7646   1.7852   1.8041   1.8201   1.8392   1.8557   1.8742
  1.8913   1.9214   1.9378   1.9509   1.9773   1.9939   2.0102   2.0287
  2.0467   2.0646   2.0862   2.1128   2.1722   2.1782   2.2149   2.2370
  2.2484   2.2631   2.2851   2.2967   2.3222   2.3431   2.3572   2.3759
  2.3934   2.4026   2.4309   2.4510   2.4654   2.4809   2.4938   2.5087
  2.5320   2.5628   2.6030   2.6761   2.6821   2.7148   2.7559   2.7907
  2.8030   2.8417   2.8593   2.8786   2.8914   2.9283   2.9549   2.9799
  3.0073   3.0572   3.0815   3.0991   3.1396   3.1778   3.2019   3.2225
  3.2733   3.2861   3.2875   3.3245   3.3417   3.3749   3.4145   3.4191
  3.4458   3.4644   3.4830   3.5125   3.5378   3.5626   3.5729   3.6154
  3.6272   3.6470   3.6564   3.6711   3.6869   3.7181   3.7280   3.7387
  3.7525   3.7698   3.8161   3.8218   3.8317   3.8438   3.8490   3.8596
  3.8710   3.8846   3.9039   3.9100   3.9335   3.9379   3.9694   3.9786
  4.0070   4.0357   4.0666   4.0811   4.1161   4.1312   4.1534   4.1804
  4.1907   4.2128   4.2294   4.2534   4.2581   4.2892   4.3104   4.3393
  4.3582   4.3894   4.3945   4.4035   4.4100   4.4435   4.4586   4.4833
  4.5614   4.5687   4.5825   4.6205   4.6271   4.6462   4.6832   4.7118
  4.7450   4.7684   4.8101   4.8550   4.8738   4.9014   4.9367   5.0292
  5.0420   5.0583   5.0754   5.0845   5.0950   5.1402   5.1586   5.2117
  5.2197   5.2299   5.2448   5.2556   5.2663   5.2708   5.2817   5.2989
  5.3021   5.3164   5.3240   5.3283   5.3344   5.3591   5.3724   5.3806
  5.3907   5.3987   5.4034   5.4299   5.4376   5.4734   5.4918   5.4941
  5.5100   5.5474   5.5604   5.5674   5.6003   5.6123   5.6130   5.6323
  5.6421   5.6443   5.6618   5.6773   5.6834   5.7242   5.7370   5.7603
  5.7861   5.7991   5.8159   5.8521   5.9202   5.9751   6.0296   6.0383
  6.0550   6.0916   6.1072   6.1558   6.1673   6.2505   6.3885   6.4717
  6.5015   6.5839   6.5984   6.6959   6.7574   6.8205   6.8383   6.8652
  6.8711   6.9867   7.0179   7.0469   7.0699   7.0868   7.0999   7.1180
  7.1332   7.1632   7.1833   7.2230   7.2546   7.2721   7.2867   7.3095
  7.3128   7.3237   7.3308   7.3397   7.3757   7.3973   7.4026   7.4239
  7.4388   7.4699   7.5022   7.5142   7.5227   7.5921   7.6096   7.6714
  7.6902   7.7022   7.7555   7.7851   7.8319   7.8610   7.8700   7.8961
  7.9195   8.0203   8.0561   8.1115   8.2074  24.6422  24.7472  24.8136
 24.8668  50.4212  50.5011  50.5300  50.5976  50.6163  50.6298  50.6550
 50.7026
 
 Beta MOs
 -- Occupied --
-19.4548 -19.4064 -19.4057 -19.3995 -19.3633 -19.3610 -19.3487 -19.3474
-10.4700 -10.4660 -10.4490 -10.3554  -1.3243  -1.2802  -1.2132  -1.1914
 -1.1841  -1.1385  -1.0418  -0.9862  -0.9021  -0.8362  -0.7737  -0.7416
 -0.6926  -0.6678  -0.6573  -0.6524  -0.6227  -0.6170  -0.6032  -0.5808
 -0.5757  -0.5678  -0.5442  -0.5319  -0.5165  -0.4957  -0.4830  -0.4702
 -0.4638  -0.4563  -0.4371  -0.4335  -0.4158  -0.4039  -0.3907  -0.3859
 -- Virtual --
 -0.0376   0.0271   0.0371   0.0414   0.0429   0.0620   0.0648   0.0705
  0.0735   0.0917   0.0947   0.1129   0.1208   0.1262   0.1275   0.1363
  0.1476   0.1480   0.1526   0.1566   0.1627   0.1677   0.1740   0.1793
  0.1859   0.1874   0.1977   0.2118   0.2163   0.2305   0.2437   0.2477
  0.2541   0.2590   0.2618   0.2668   0.2720   0.2763   0.2838   0.2884
  0.2901   0.2935   0.3021   0.3051   0.3073   0.3211   0.3244   0.3313
  0.3377   0.3407   0.3469   0.3500   0.3601   0.3631   0.3664   0.3745
  0.3854   0.3869   0.3954   0.3964   0.4031   0.4052   0.4091   0.4174
  0.4236   0.4267   0.4319   0.4382   0.4471   0.4504   0.4652   0.4680
  0.4809   0.4880   0.4941   0.5072   0.5310   0.5448   0.5704   0.5870
  0.5937   0.6080   0.6192   0.6251   0.6394   0.6564   0.6613   0.6846
  0.6899   0.7036   0.7110   0.7174   0.7300   0.7355   0.7503   0.7577
  0.7620   0.7863   0.7973   0.8048   0.8241   0.8400   0.8592   0.8686
  0.8771   0.9012   0.9091   0.9358   0.9511   0.9792   0.9868   1.0069
  1.0297   1.0494   1.0643   1.0695   1.0741   1.0879   1.1037   1.1092
  1.1195   1.1343   1.1440   1.1586   1.1600   1.1671   1.1820   1.1882
  1.1912   1.2018   1.2068   1.2166   1.2174   1.2268   1.2285   1.2399
  1.2455   1.2600   1.2658   1.2844   1.2932   1.2975   1.3053   1.3109
  1.3273   1.3338   1.3540   1.3570   1.3817   1.3914   1.4017   1.4207
  1.4286   1.4420   1.4627   1.4760   1.4946   1.4992   1.5060   1.5211
  1.5311   1.5395   1.5462   1.5571   1.5720   1.5871   1.5972   1.6169
  1.6257   1.6412   1.6497   1.6585   1.6829   1.6882   1.6932   1.7158
  1.7215   1.7445   1.7694   1.7888   1.8077   1.8209   1.8439   1.8613
  1.8766   1.8945   1.9264   1.9408   1.9518   1.9780   1.9945   2.0122
  2.0313   2.0509   2.0656   2.0892   2.1137   2.1754   2.1814   2.2186
  2.2425   2.2505   2.2715   2.2880   2.3011   2.3276   2.3465   2.3596
  2.3814   2.3949   2.4029   2.4346   2.4520   2.4659   2.4826   2.4941
  2.5098   2.5327   2.5631   2.6038   2.6774   2.6851   2.7200   2.7568
  2.7910   2.8033   2.8420   2.8596   2.8788   2.8917   2.9286   2.9553
  2.9803   3.0077   3.0574   3.0818   3.0994   3.1400   3.1780   3.2021
  3.2227   3.2738   3.2862   3.2884   3.3253   3.3419   3.3750   3.4146
  3.4194   3.4460   3.4646   3.4833   3.5126   3.5380   3.5628   3.5730
  3.6154   3.6274   3.6471   3.6564   3.6711   3.6869   3.7183   3.7279
  3.7386   3.7528   3.7708   3.8163   3.8219   3.8318   3.8440   3.8495
  3.8599   3.8712   3.8846   3.9041   3.9101   3.9337   3.9379   3.9695
  3.9787   4.0071   4.0360   4.0667   4.0812   4.1167   4.1314   4.1540
  4.1804   4.1909   4.2133   4.2296   4.2536   4.2582   4.2896   4.3106
  4.3398   4.3584   4.3904   4.3947   4.4037   4.4102   4.4462   4.4590
  4.4837   4.5652   4.5697   4.5893   4.6221   4.6376   4.6565   4.6872
  4.7146   4.7544   4.7724   4.8172   4.8715   4.8769   4.9118   4.9405
  5.0313   5.0509   5.0649   5.1296   5.1356   5.1449   5.1738   5.1967
  5.2159   5.2226   5.2486   5.2534   5.2576   5.2694   5.2830   5.2901
  5.3031   5.3071   5.3248   5.3261   5.3332   5.3453   5.3608   5.3742
  5.3843   5.3998   5.4062   5.4144   5.4367   5.4390   5.4766   5.4923
  5.5003   5.5134   5.5482   5.5610   5.5740   5.6013   5.6131   5.6272
  5.6324   5.6432   5.6499   5.6625   5.6788   5.6848   5.7248   5.7450
  5.7618   5.7865   5.8111   5.8163   5.8526   5.9208   5.9765   6.0333
  6.0407   6.0554   6.0920   6.1088   6.1561   6.1674   6.2505   6.4009
  6.5006   6.5196   6.5873   6.6077   6.7064   6.7575   6.8218   6.8672
  6.9186   6.9514   7.0181   7.0321   7.0580   7.0766   7.0877   7.1040
  7.1356   7.1415   7.1687   7.2052   7.2475   7.2620   7.2724   7.2878
  7.3140   7.3182   7.3244   7.3377   7.3459   7.3803   7.4111   7.4164
  7.4262   7.4407   7.4769   7.5106   7.5162   7.5403   7.5940   7.6102
  7.6715   7.6917   7.7035   7.7621   7.7852   7.8331   7.8617   7.8767
  7.8972   7.9196   8.0205   8.0690   8.1303   8.2074  24.6421  24.7470
 24.8136  24.8668  50.4345  50.5011  50.5374  50.5986  50.6167  50.6299
 50.6553  50.7026
 --------------------------------------------------------------
 
          Ground-State Mulliken Net Atomic Charges

     Atom                 Charge (a.u.)    Spin (a.u.)
  --------------------------------------------------------
      1 C                    -0.131091      -0.002932
      2 O                    -0.420598      -0.000101
      3 C                     0.195571       0.003224
      4 O                    -0.399857       0.001484
      5 C                    -0.657833      -0.005450
      6 C                    -0.119015       0.008085
      7 O                     0.080173       0.286800
      8 H                     0.307458      -0.000043
      9 H                     0.337078      -0.000045
     10 H                     0.325769      -0.000894
     11 H                     0.296236       0.000350
     12 H                     0.327761       0.002292
     13 O                    -0.460508       0.000033
     14 H                     0.353833       0.000072
     15 O                    -0.141537       0.000246
     16 O                    -0.280606       0.000555
     17 H                     0.323701       0.001764
     18 H                     0.332918      -0.000434
     19 O                    -0.419685       0.006880
     20 H                     0.350739      -0.000207
     21 O                    -0.200508       0.698321
  --------------------------------------------------------
  Sum of atomic charges =     0.000000
  Sum of spin   charges =     1.000000

 -----------------------------------------------------------------
                    Cartesian Multipole Moments
 -----------------------------------------------------------------
    Charge (ESU x 10^10)
                 0.0000
    Dipole Moment (Debye)
         X      -0.0588      Y       4.1576      Z      -3.4445
       Tot       5.3994
    Quadrupole Moments (Debye-Ang)
        XX     -70.2049     XY      11.3621     YY     -78.2914
        XZ     -16.2500     YZ      -8.0736     ZZ     -76.9184
    Octopole Moments (Debye-Ang^2)
       XXX    -812.9692    XXY      12.9705    XYY    -322.3229
       YYY      65.5339    XXZ    -125.3750    XYZ     -38.5973
       YYZ     -19.0657    XZZ    -332.9682    YZZ      -5.3197
       ZZZ    -138.0011
    Hexadecapole Moments (Debye-Ang^3)
      XXXX   -7042.3282   XXXY    -346.7006   XXYY   -1650.8928
      XYYY      36.1361   YYYY    -890.4349   XXXZ   -1115.0472
      XXYZ    -284.5083   XYYZ    -179.7890   YYYZ    -265.7817
      XXZZ   -1711.5011   XYZZ    -114.7916   YYZZ    -354.5691
      XZZZ    -765.2630   YZZZ    -290.1938   ZZZZ   -1053.7120
 -----------------------------------------------------------------
 Calculating analytic gradient of the SCF energy
 Gradient of CDS energy
            1           2           3           4           5           6
    1  -0.0028186   0.0018921  -0.0019638   0.0020779  -0.0000497   0.0020571
    2  -0.0015477  -0.0016302  -0.0008579   0.0008847   0.0000174   0.0052348
    3  -0.0002234   0.0003430   0.0029460  -0.0031998  -0.0000554  -0.0006507
            7           8           9          10          11          12
    1   0.0001231   0.0002512  -0.0003797  -0.0001727   0.0000712  -0.0000601
    2   0.0001079  -0.0000340   0.0002255  -0.0000128  -0.0000485  -0.0001199
    3  -0.0000212   0.0000116  -0.0002687   0.0000751  -0.0001215   0.0001210
           13          14          15          16          17          18
    1   0.0011434  -0.0002763  -0.0000546  -0.0002940  -0.0001442   0.0004787
    2   0.0031599  -0.0003692  -0.0000148  -0.0000309  -0.0000761  -0.0000862
    3  -0.0001564   0.0001793  -0.0000844   0.0000990   0.0004154  -0.0001382
           19          20          21
    1  -0.0017618  -0.0000730  -0.0000463
    2  -0.0052642   0.0004765  -0.0000140
    3   0.0007231  -0.0000322   0.0000382
 Gradient of SCF Energy
            1           2           3           4           5           6
    1  -0.0050096   0.0031183   0.0029776  -0.0048715   0.0042731  -0.0188313
    2   0.0008804   0.0007748   0.0021084  -0.0050931  -0.0136607   0.0077603
    3   0.0055852   0.0153404  -0.0000340  -0.0065740   0.0142497   0.0006242
            7           8           9          10          11          12
    1   0.0028453   0.0023018  -0.0040733  -0.0070617   0.0063058   0.0123886
    2   0.0011679   0.0046913  -0.0000496   0.0096460   0.0030359  -0.0099148
    3  -0.0001921  -0.0067695  -0.0141500   0.0024567  -0.0129304  -0.0037259
           13          14          15          16          17          18
    1   0.0038300  -0.0027307  -0.0026595  -0.0142490   0.0036310   0.0151653
    2  -0.0050415   0.0007332  -0.0040791  -0.0125327   0.0043230   0.0128211
    3  -0.0022735   0.0012938   0.0012812  -0.0080414   0.0066333   0.0061225
           19          20          21
    1   0.0191112  -0.0162520  -0.0002094
    2  -0.0086754   0.0106024   0.0005023
    3   0.0070228  -0.0058061  -0.0001128
 Max gradient component =       1.911E-02
 RMS gradient           =       8.043E-03
 Computing fast CPCM-SWIG gradient
 Updating gradient with PCM contributions...
 -- total gradient after adding PCM contribution --
---------------------------------------------------
  Atom         X              Y              Z     
---------------------------------------------------
   1      -0.001184      -0.000028       0.000158
   2       0.000446      -0.000211       0.000067
   3       0.000164       0.000053       0.000138
   4      -0.000012      -0.000016      -0.000066
   5      -0.000003       0.000042       0.000002
   6      -0.000015      -0.000037       0.000016
   7       0.000026       0.000010      -0.000025
   8       0.000233       0.000020      -0.000225
   9       0.000018      -0.000041       0.000005
  10      -0.000001      -0.000005       0.000001
  11       0.000000      -0.000004      -0.000006
  12       0.000004      -0.000007      -0.000020
  13       0.000189       0.000174      -0.000052
  14       0.000012       0.000043       0.000025
  15       0.000079      -0.000016      -0.000004
  16      -0.000037      -0.000015       0.000009
  17       0.000018       0.000006       0.000005
  18       0.000007       0.000001      -0.000015
  19       0.000020       0.000023       0.000002
  20      -0.000001       0.000004      -0.000021
  21       0.000036       0.000004       0.000007
---------------------------------------------------
 Number of fixed atoms: 0
 Gradient time:  CPU 559.84 s  wall 45.66 s
 ----------------------------------------------------------------
             Standard Nuclear Orientation (Angstroms)
    I     Atom           X                Y                Z
 ----------------------------------------------------------------
    1      C       2.6734104870    -1.0123856500    -1.0766569455
    2      O       1.5952869242    -0.1112565256    -1.1267776265
    3      C       3.5203067944    -0.6271265149     0.1453714037
    4      O       2.7624164900    -0.9461054092     1.2708409184
    5      C       3.9689066851     0.8280209597     0.0743522565
    6      C       5.0310537016     1.2266255546     1.0734320097
    7      O       4.4072660002     1.0787743093     2.4056014887
    8      H       3.2768019537    -0.9475885302    -1.9788978699
    9      H       1.1746574978    -0.1997028163    -1.9896658454
   10      H       3.0976799036     1.4695721825     0.2056325120
   11      H       4.3780789325     1.0238573820    -0.9157464423
   12      H       5.9043191156     0.5811961322     1.0913972435
   13      O       2.2378731862    -2.3458737295    -0.9889839985
   14      H       1.8024608400    -2.4635069195    -0.1338814168
   15      O       4.6443130406    -1.5265058954     0.2403613145
   16      O       5.4489935152    -1.3958181788    -0.9319290447
   17      H       3.1354363428    -0.5189244255     2.0528136427
   18      H       6.2314219733    -0.9317708259    -0.5992041394
   19      O       5.4699525297     2.5308557342     0.9223722115
   20      H       4.7160056750     3.1039201626     0.7289699261
   21      O       5.2983425115     1.1153756037     3.3556713018
 ----------------------------------------------------------------
 Nuclear Repulsion Energy =         839.17410176 hartrees
 There are       49 alpha and       48 beta electrons
 Discretize the solute cavity surface with Lebedev spheres
	Using 110 Lebedev grid points for each H atom
	Using 194 Lebedev grid points for other atoms
	Atomic van der Waals radii will be scaled by 1.20
 Remove points where switching function is < 1.0e-08
 Keep 1643 surface tesserae and discard 1675 interior tesserae
 Molecular Surface Area = 180.817 Angst**2
 Requested basis set is 6-311++G(2df,2p)
 There are 150 shells and 498 basis functions
 A cutoff of  1.0D-12 yielded   9688 shell pairs
 There are    104647 function pairs (    129901 Cartesian)
 Smallest overlap matrix eigenvalue = 3.99E-06
 Guess MOs from SCF MO coefficient file

 -----------------------------------------------------------------------
  General SCF calculation program by
  Eric Jon Sundstrom, Paul Horn, Yuezhi Mao, Dmitri Zuev, Alec White,
  David Stuck, Shaama M.S., Shane Yost, Joonho Lee, David Small,
  Daniel Levine, Susi Lehtola, Hugh Burton, Evgeny Epifanovsky,
  Bang C. Huynh
 -----------------------------------------------------------------------
 Exchange:     0.1500 Hartree-Fock + 1.0000 wB97M-V + LR-HF
 Correlation:  1.0000 wB97M-V
 Using SG-2 standard quadrature grid
 Nonlocal Correlation:  VV10 with C = 0.0100 and b = 6.00 and scale = 1.00000
 Grid used for NLC:  SG-1 standard quadrature
 
 Citation of the SMD model:
 Marenich, A.V.; Cramer, C.J.; Truhlar, D.G.
 J. Phys. Chem. B 2009, 113, 6378-6396.
 iSolventCode=           1
 Solvent: water                                                           
 
 vradii
            1           2           3           4           5           6
    1   1.8500000   1.5200000   1.8500000   1.5200000   1.8500000   1.8500000
            7           8           9          10          11          12
    1   1.5200000   1.2000000   1.2000000   1.2000000   1.2000000   1.2000000
           13          14          15          16          17          18
    1   1.5200000   1.2000000   1.5200000   1.5200000   1.2000000   1.2000000
           19          20          21
    1   1.5200000   1.2000000   1.5200000
 -------------------------------------------------------
 OpenMP BLAS3 based DFT computing Module                
 Release: version 1.0, May 2013, Q-Chem Inc. Pittsburgh 
 -------------------------------------------------------
 A unrestricted SCF calculation will be
 performed using Roothaan-Hall, DIIS, GDM
 SCF converges when RMS gradient is below 1.0e-07
 ---------------------------------------
  Cycle       Energy         DIIS error
 ---------------------------------------
[...]
 O         -0.002 -0.000  0.010    0.024  0.029 -0.035    0.055  0.039 -0.021
 C         -0.001 -0.017 -0.003   -0.024  0.033 -0.020   -0.036 -0.006 -0.031
 C         -0.045 -0.036  0.003   -0.052 -0.036  0.006    0.012 -0.005 -0.003
 O         -0.005  0.000 -0.024   -0.004 -0.001 -0.036    0.123  0.006  0.135
 H         -0.406  0.135 -0.288    0.045 -0.183  0.038   -0.149  0.364  0.036
 H          0.463 -0.451 -0.154   -0.274  0.264  0.084    0.097 -0.095 -0.002
 H          0.216  0.245  0.165    0.383  0.534  0.245    0.043  0.101 -0.013
 H         -0.170 -0.205 -0.107   -0.143 -0.202 -0.114    0.178  0.249  0.106
 H          0.008  0.041  0.084    0.050  0.108  0.218    0.117  0.130  0.081
 O         -0.010 -0.041 -0.005    0.024  0.071  0.004    0.017 -0.002 -0.015
 H          0.004  0.113  0.027   -0.014 -0.131 -0.049    0.082  0.392  0.082
 O          0.004 -0.009 -0.001   -0.030  0.031 -0.008   -0.000  0.010  0.002
 O         -0.000 -0.000  0.000    0.005 -0.006 -0.013    0.003 -0.003 -0.006
 H          0.016 -0.001  0.003   -0.099 -0.052  0.063   -0.425 -0.251  0.353
 H         -0.006 -0.000  0.014   -0.058  0.009  0.118   -0.027 -0.002  0.062
 O         -0.005  0.014 -0.001   -0.013  0.004 -0.003   -0.005 -0.007 -0.001
 H          0.115  0.169 -0.001    0.158  0.226  0.006    0.079  0.101 -0.000
 O          0.017  0.001  0.024    0.023  0.001  0.032   -0.122 -0.006 -0.130
 TransDip   0.172  0.019  0.019   -0.061 -0.287  0.185   -0.356  0.076  0.025

 Mode:                37                     38                     39
 Frequency:      1270.25                1286.37                1300.57
 Force Cnst:      3.9584                 1.9639                 1.8771
 Red. Mass:       4.1638                 2.0143                 1.8835
 IR Active:          YES                    YES                    YES
 IR Intens:      117.249                 87.385                266.188
 Raman Active:       YES                    YES                    YES
               X      Y      Z        X      Y      Z        X      Y      Z
 C          0.210 -0.163 -0.008   -0.003  0.177 -0.011    0.012  0.131  0.012
 O         -0.151  0.109  0.026    0.045 -0.053 -0.021    0.023 -0.034 -0.017
 C          0.020  0.101 -0.053    0.040 -0.020  0.035    0.078  0.081 -0.095
 O         -0.029 -0.022  0.036   -0.035 -0.023 -0.011   -0.034 -0.020  0.043
 C         -0.016 -0.045 -0.014    0.057  0.038  0.001   -0.093 -0.045 -0.016
 C         -0.033 -0.067 -0.003   -0.057  0.002  0.006    0.032 -0.100  0.000
 O          0.159  0.010  0.167    0.088  0.001  0.064   -0.025  0.006 -0.004
 H          0.108 -0.639 -0.115    0.032  0.200  0.010    0.159  0.146  0.107
 H          0.091 -0.078 -0.083   -0.197  0.178  0.079   -0.190  0.175  0.071
 H          0.110  0.102  0.077    0.079  0.050  0.112    0.009  0.091 -0.056
 H         -0.039 -0.042 -0.022   -0.300 -0.326 -0.217    0.183  0.112  0.127
 H          0.069  0.067  0.087   -0.261 -0.262  0.098    0.404  0.386  0.064
 O          0.008  0.067  0.003   -0.039 -0.078  0.026   -0.033 -0.066  0.016
 H         -0.067 -0.353 -0.105   -0.066 -0.250 -0.016   -0.053 -0.179 -0.012
 O          0.004 -0.018 -0.002   -0.005  0.007 -0.001    0.013 -0.022  0.014
 O         -0.005  0.002  0.002    0.002 -0.000  0.001   -0.007  0.003 -0.002
 H          0.108  0.048 -0.063    0.368  0.221 -0.326    0.032  0.020 -0.009
 H          0.003 -0.001 -0.013    0.011  0.004 -0.022   -0.012  0.000  0.014
 O         -0.007  0.028 -0.004    0.010  0.022 -0.003   -0.026  0.005 -0.003
 H          0.180  0.268 -0.007   -0.121 -0.139  0.014    0.359  0.489 -0.021
 O         -0.149 -0.007 -0.154   -0.066 -0.003 -0.062    0.012  0.001  0.007
 TransDip   0.165 -0.280 -0.122   -0.076  0.257 -0.133    0.162  0.479 -0.133

 Mode:                40                     41                     42
 Frequency:      1338.50                1362.93                1383.88
 Force Cnst:      2.1172                 1.4784                 1.6343
 Red. Mass:       2.0057                 1.3508                 1.4484
 IR Active:          YES                    YES                    YES
 IR Intens:       54.996                 45.772                 20.205
 Raman Active:       YES                    YES                    YES
               X      Y      Z        X      Y      Z        X      Y      Z
 C         -0.112 -0.126  0.094   -0.002  0.009  0.003   -0.004 -0.050  0.032
 O          0.020 -0.007 -0.016   -0.002  0.001  0.003    0.009 -0.004 -0.017
 C          0.097  0.090 -0.132    0.023  0.048 -0.072   -0.021  0.016  0.141
 O         -0.047 -0.026  0.041   -0.006 -0.002  0.025   -0.013 -0.019 -0.039
 C          0.026  0.015  0.041   -0.036 -0.066  0.025    0.006  0.045 -0.006
 C         -0.015 -0.021  0.011   -0.018  0.054 -0.090    0.005 -0.071 -0.054
 O          0.007  0.001  0.006    0.027 -0.014 -0.032    0.011 -0.001 -0.007
 H          0.090  0.092  0.253    0.105 -0.004  0.072   -0.306  0.027 -0.153
 H         -0.106  0.105  0.037    0.005 -0.006 -0.001   -0.079  0.078  0.021
 H          0.030  0.014  0.030    0.123  0.172 -0.064   -0.250 -0.301 -0.056
 H         -0.252 -0.392 -0.154    0.069  0.197  0.116    0.217  0.112  0.098
 H         -0.071 -0.095 -0.057   -0.274 -0.260  0.788    0.050 -0.008  0.450
 O          0.032  0.028 -0.054   -0.004 -0.008  0.000    0.011  0.012 -0.019
 H          0.160  0.659  0.116   -0.005 -0.016 -0.001    0.053  0.216  0.035
 O          0.002 -0.020  0.012    0.017 -0.010  0.008    0.004  0.011 -0.013
 O         -0.005  0.007  0.008   -0.008 -0.002 -0.008    0.001 -0.009 -0.011
 H          0.147  0.104 -0.120   -0.103 -0.064  0.104    0.321  0.191 -0.299
 H          0.049  0.001 -0.106   -0.061 -0.002  0.120   -0.089  0.011  0.167
 O         -0.008  0.011 -0.003    0.009  0.010  0.011   -0.019  0.017 -0.001
 H          0.065  0.105 -0.004   -0.129 -0.151  0.038    0.156  0.244  0.011
 O         -0.005 -0.000 -0.004    0.008  0.000  0.019    0.002  0.001  0.005
 TransDip   0.155  0.116 -0.138   -0.090  0.086 -0.178   -0.009  0.083  0.117

 Mode:                43                     44                     45
 Frequency:      1408.89                1434.93                1438.27
 Force Cnst:      1.7729                 1.4199                 1.4466
 Red. Mass:       1.5159                 1.1704                 1.1869
 IR Active:          YES                    YES                    YES
 IR Intens:       38.077                 16.410                 70.883
 Raman Active:       YES                    YES                    YES
               X      Y      Z        X      Y      Z        X      Y      Z
 C         -0.028  0.026 -0.059   -0.052  0.058 -0.020    0.043 -0.081 -0.007
 O         -0.004  0.007  0.027    0.003 -0.003  0.021   -0.004  0.009 -0.014
 C         -0.042 -0.065 -0.053    0.005  0.010 -0.011   -0.005  0.007 -0.036
 O          0.022  0.019  0.007   -0.004 -0.003  0.004    0.003  0.003  0.010
 C          0.069  0.116  0.059   -0.017  0.037 -0.032   -0.025  0.028 -0.036
 C          0.026 -0.062 -0.023   -0.040  0.003 -0.021    0.017  0.026 -0.002
 O          0.003 -0.002 -0.009    0.004  0.001  0.002    0.000 -0.002 -0.002
 H          0.301 -0.092  0.141    0.196 -0.426  0.104   -0.067  0.603 -0.031
 H          0.172 -0.163 -0.047    0.121 -0.105 -0.030   -0.068  0.054  0.015
 H         -0.280 -0.312 -0.206   -0.078 -0.154  0.462   -0.070 -0.145  0.459
 H         -0.193 -0.274 -0.128    0.362 -0.333  0.058    0.361 -0.336  0.058
 H         -0.073 -0.198  0.257    0.111  0.215  0.034   -0.083 -0.107  0.060
 O          0.000  0.005  0.017    0.008 -0.013 -0.014   -0.011  0.022  0.029
 H         -0.034 -0.166 -0.028    0.043  0.114  0.024   -0.078 -0.244 -0.048
 O          0.003  0.005  0.003    0.022  0.002  0.003   -0.006 -0.004  0.001
 O         -0.001  0.001  0.002   -0.008 -0.007 -0.016    0.001  0.004  0.008
 H         -0.203 -0.119  0.180    0.011  0.010 -0.010   -0.074 -0.045  0.069
 H          0.011 -0.005 -0.018   -0.163  0.024  0.290    0.069 -0.010 -0.125
 O         -0.041  0.012 -0.007    0.024 -0.004  0.004   -0.008 -0.003  0.000
 H          0.245  0.379  0.007   -0.126 -0.195  0.004    0.019  0.034  0.007
 O          0.004  0.001  0.007   -0.001 -0.000  0.001    0.001 -0.000  0.001
 TransDip  -0.101 -0.150 -0.079   -0.097 -0.016  0.084    0.081 -0.257  0.011

 Mode:                46                     47                     48
 Frequency:      1440.89                1482.52                1491.12
 Force Cnst:      1.5579                 1.8039                 2.2288
 Red. Mass:       1.2736                 1.3931                 1.7014
 IR Active:          YES                    YES                    YES
 IR Intens:      153.765                103.522                  7.263
 Raman Active:       YES                    YES                    YES
               X      Y      Z        X      Y      Z        X      Y      Z
 C          0.019 -0.060 -0.009    0.074  0.047  0.083    0.106  0.051  0.113
 O         -0.003  0.007 -0.007   -0.005 -0.008 -0.023   -0.008 -0.009 -0.031
 C         -0.008  0.013 -0.035   -0.042 -0.017 -0.063   -0.069 -0.054 -0.088
 O         -0.001 -0.000  0.008    0.011  0.009  0.011    0.019  0.016  0.013
 C          0.049  0.024  0.049   -0.004 -0.010 -0.012    0.039  0.059  0.041
 C         -0.068 -0.038 -0.025    0.071  0.027  0.036   -0.072 -0.019 -0.046
 O          0.003  0.004  0.003   -0.011 -0.001  0.003    0.010 -0.000 -0.005
 H          0.001  0.410  0.013   -0.277 -0.163 -0.155   -0.384 -0.171 -0.215
 H         -0.028  0.017  0.005   -0.170  0.160  0.047   -0.227  0.210  0.061
 H         -0.032 -0.028 -0.210    0.017 -0.006  0.083   -0.095 -0.107 -0.020
 H         -0.232 -0.010 -0.075    0.030 -0.066 -0.010   -0.049 -0.164 -0.036
 H          0.195  0.324 -0.042   -0.249 -0.412 -0.241    0.199  0.359  0.242
 O         -0.007  0.016  0.019   -0.005 -0.023 -0.017   -0.006 -0.028 -0.021
 H         -0.050 -0.157 -0.030    0.027  0.133  0.025    0.033  0.164  0.031
 O          0.037  0.007  0.001    0.035  0.007  0.005   -0.013 -0.008  0.007
 O         -0.013 -0.014 -0.033   -0.010 -0.011 -0.027    0.005  0.009  0.019
 H         -0.025 -0.015  0.025   -0.122 -0.080  0.117   -0.182 -0.109  0.170
 H         -0.334  0.051  0.592   -0.301  0.060  0.519    0.214 -0.048 -0.362
 O          0.032  0.003  0.004   -0.032  0.002 -0.006    0.029 -0.003  0.006
 H         -0.135 -0.213 -0.005    0.132  0.212 -0.005   -0.126 -0.200  0.006
 O         -0.002 -0.000  0.003    0.001  0.000 -0.004    0.000 -0.000  0.007
 TransDip  -0.267 -0.283  0.080   -0.060  0.245  0.206   -0.065 -0.027 -0.050

 Mode:                49                     50                     51
 Frequency:      3094.92                3135.33                3143.67
 Force Cnst:      5.9901                 6.3046                 6.4155
 Red. Mass:       1.0614                 1.0885                 1.1018
 IR Active:          YES                    YES                    YES
 IR Intens:        1.573                 21.520                  1.152
 Raman Active:       YES                    YES                    YES
               X      Y      Z        X      Y      Z        X      Y      Z
 C         -0.001  0.000  0.001    0.045  0.006 -0.072    0.006  0.001 -0.010
 O         -0.000 -0.000 -0.000   -0.000  0.000  0.001    0.000  0.000  0.000
 C         -0.001 -0.001 -0.000    0.001  0.000  0.000    0.001 -0.000 -0.001
 O          0.000 -0.000  0.000    0.000  0.000  0.001   -0.000 -0.000  0.000
 C         -0.031  0.047 -0.041   -0.009  0.003  0.008    0.062 -0.018 -0.062
 C          0.004 -0.001  0.000    0.002 -0.001  0.000   -0.018  0.014 -0.002
 O          0.000  0.000  0.000    0.000 -0.000 -0.000   -0.000  0.000  0.001
 H          0.008  0.001 -0.011   -0.539 -0.061  0.825   -0.073 -0.008  0.114
 H         -0.000 -0.001 -0.000   -0.000 -0.005 -0.004   -0.000 -0.000 -0.001
 H          0.616 -0.446 -0.098    0.075 -0.055 -0.010   -0.473  0.349  0.064
 H         -0.246 -0.107  0.577    0.034  0.016 -0.086   -0.274 -0.137  0.675
 H         -0.038  0.029  0.000   -0.021  0.017 -0.000    0.216 -0.165  0.002
 O          0.000  0.000  0.000   -0.001  0.000  0.002   -0.000  0.000  0.000
 H         -0.000 -0.000 -0.000    0.006 -0.006 -0.017    0.001 -0.001 -0.003
 O          0.000 -0.000 -0.000   -0.000  0.000 -0.000   -0.000  0.001 -0.000
 O          0.000 -0.000 -0.000    0.001 -0.000  0.000    0.000 -0.000  0.000
 H         -0.001 -0.000 -0.000   -0.001 -0.000  0.001   -0.000 -0.001  0.000
 H          0.000  0.000 -0.000    0.000 -0.001  0.001   -0.001  0.002  0.001
 O         -0.000 -0.000  0.000   -0.000 -0.000 -0.000    0.000 -0.000  0.000
 H          0.000 -0.005 -0.000    0.001 -0.001  0.000   -0.005  0.004 -0.001
 O         -0.000 -0.000 -0.000   -0.000 -0.000 -0.000    0.000 -0.000  0.000
 TransDip  -0.007  0.039 -0.003    0.117  0.014 -0.090    0.016  0.014 -0.027

 Mode:                52                     53                     54
 Frequency:      3163.65                3767.68                3779.53
 Force Cnst:      6.4225                 8.9348                 8.9777
 Red. Mass:       1.0891                 1.0683                 1.0667
 IR Active:          YES                    YES                    YES
 IR Intens:       12.910                113.971                350.389
 Raman Active:       YES                    YES                    YES
               X      Y      Z        X      Y      Z        X      Y      Z
 C         -0.000 -0.000  0.001    0.000 -0.000 -0.000   -0.000  0.000  0.000
 O         -0.000 -0.000 -0.000   -0.000  0.000 -0.000   -0.000 -0.000 -0.000
 C         -0.001  0.000 -0.000   -0.001  0.001 -0.000   -0.000 -0.001 -0.001
 O          0.000  0.000 -0.000    0.003  0.003  0.005   -0.023 -0.027 -0.051
 C         -0.018  0.007  0.016    0.000 -0.000  0.000   -0.000  0.000  0.000
 C         -0.066  0.049 -0.002    0.000 -0.000  0.000    0.000 -0.000  0.001
 O         -0.001 -0.000  0.000   -0.000 -0.000  0.000   -0.000  0.000 -0.000
 H          0.006  0.001 -0.009   -0.000  0.000  0.000    0.000  0.000  0.002
 H         -0.000 -0.000  0.000    0.001  0.000  0.001    0.003  0.001  0.007
 H          0.169 -0.119 -0.018    0.000 -0.001 -0.000    0.000  0.000 -0.000
 H          0.064  0.031 -0.163    0.000  0.000 -0.001   -0.001 -0.002  0.000
 H          0.768 -0.572  0.014   -0.001 -0.001 -0.005   -0.000  0.000 -0.001
 O          0.000 -0.000 -0.000   -0.000 -0.000  0.001    0.002  0.001 -0.003
 H         -0.000  0.000  0.000    0.005  0.002 -0.010   -0.026 -0.008  0.049
 O          0.000  0.000  0.000    0.001 -0.000 -0.001   -0.000 -0.000  0.000
 O          0.000  0.000 -0.000   -0.051 -0.030 -0.021   -0.005 -0.003 -0.002
 H         -0.000  0.001 -0.001   -0.038 -0.044 -0.083    0.371  0.433  0.810
 H         -0.001  0.002  0.001    0.794  0.477  0.357    0.081  0.049  0.037
 O          0.002 -0.000  0.000    0.000 -0.000  0.000    0.002 -0.002  0.000
 H         -0.019  0.002 -0.002   -0.001  0.001 -0.000   -0.035  0.028 -0.009
 O          0.000 -0.000  0.000    0.000 -0.000  0.000   -0.000 -0.000 -0.000
 TransDip  -0.073  0.085  0.027    0.322  0.115 -0.005    0.188  0.271  0.501

 Mode:                55                     56                     57
 Frequency:      3781.70                3786.38                3823.07
 Force Cnst:      8.9790                 9.0066                 9.1863
 Red. Mass:       1.0656                 1.0663                 1.0668
 IR Active:          YES                    YES                    YES
 IR Intens:      120.753                144.902                144.518
 Raman Active:       YES                    YES                    YES
               X      Y      Z        X      Y      Z        X      Y      Z
 C          0.001  0.000 -0.002    0.000 -0.000  0.000    0.000 -0.000 -0.001
 O         -0.001 -0.000 -0.001    0.000  0.000  0.000   -0.029 -0.004 -0.056
 C          0.000 -0.000  0.000   -0.000  0.000 -0.000    0.000 -0.000  0.000
 O          0.001  0.001  0.003   -0.001 -0.001 -0.002    0.000  0.000  0.000
 C         -0.000  0.000 -0.000    0.000 -0.001  0.000    0.000 -0.000  0.000
 C         -0.000  0.000 -0.000   -0.002  0.001 -0.001   -0.000 -0.000 -0.000
 O         -0.000 -0.000  0.000   -0.000 -0.000  0.000    0.000  0.000  0.000
 H         -0.009 -0.003  0.013    0.000  0.000 -0.000    0.001 -0.002  0.005
 H          0.011  0.003  0.022   -0.001 -0.000 -0.001    0.442  0.081  0.891
 H          0.000 -0.000  0.000   -0.001  0.002  0.002   -0.000  0.000 -0.000
 H          0.000  0.000  0.001    0.000  0.000  0.001   -0.000 -0.000  0.000
 H          0.000 -0.000  0.000    0.012 -0.011  0.001    0.000 -0.000  0.000
 O          0.028  0.009 -0.054   -0.001 -0.000  0.001   -0.001 -0.001  0.001
 H         -0.453 -0.140  0.876    0.008  0.003 -0.016    0.011  0.004 -0.022
 O          0.000  0.000 -0.000    0.000 -0.000 -0.000    0.000 -0.000  0.000
 O         -0.000 -0.000 -0.000   -0.000 -0.000 -0.000    0.000  0.000  0.000
 H         -0.020 -0.024 -0.046    0.017  0.020  0.038   -0.002 -0.003 -0.005
 H          0.005  0.003  0.002    0.005  0.003  0.002   -0.002 -0.001 -0.001
 O         -0.001  0.001 -0.000   -0.048  0.038 -0.013   -0.000  0.000 -0.000
 H          0.016 -0.012  0.004    0.769 -0.601  0.203    0.001 -0.001  0.000
 O          0.000  0.000  0.000   -0.000  0.000 -0.000    0.000 -0.000  0.000
 TransDip  -0.153 -0.133  0.288    0.239 -0.279  0.117    0.221 -0.038  0.313

 STANDARD THERMODYNAMIC QUANTITIES AT   298.15 K  AND     1.00 ATM

   This Molecule has  0 Imaginary Frequencies
   Zero point vibrational energy:       98.620 kcal/mol

   Atom    1 Element C  Has Mass   12.00000
   Atom    2 Element O  Has Mass   15.99491
   Atom    3 Element C  Has Mass   12.00000
   Atom    4 Element O  Has Mass   15.99491
   Atom    5 Element C  Has Mass   12.00000
   Atom    6 Element C  Has Mass   12.00000
   Atom    7 Element O  Has Mass   15.99491
   Atom    8 Element H  Has Mass    1.00783
   Atom    9 Element H  Has Mass    1.00783
   Atom   10 Element H  Has Mass    1.00783
   Atom   11 Element H  Has Mass    1.00783
   Atom   12 Element H  Has Mass    1.00783
   Atom   13 Element O  Has Mass   15.99491
   Atom   14 Element H  Has Mass    1.00783
   Atom   15 Element O  Has Mass   15.99491
   Atom   16 Element O  Has Mass   15.99491
   Atom   17 Element H  Has Mass    1.00783
   Atom   18 Element H  Has Mass    1.00783
   Atom   19 Element O  Has Mass   15.99491
   Atom   20 Element H  Has Mass    1.00783
   Atom   21 Element O  Has Mass   15.99491
   Molecular Mass:   185.029750 amu
   Principal axes and moments of inertia in amu*Bohr^2:
                             1           2           3
    Eigenvalues --     1207.71435  3183.97635  3280.53408
          X               0.51876     0.84237    -0.14593
          Y               0.60552    -0.48253    -0.63286
          Z               0.60352    -0.23994     0.76039
   Rotational Symmetry Number is   1
   The Molecule is an Asymmetric Top
   Translational Enthalpy:        0.889 kcal/mol
   Rotational Enthalpy:           0.889 kcal/mol
   Vibrational Enthalpy:        105.284 kcal/mol
   gas constant (RT):             0.592 kcal/mol
   Translational Entropy:        41.552  cal/mol.K
   Rotational Entropy:           30.912  cal/mol.K
   Vibrational Entropy:          41.270  cal/mol.K

   Total Enthalpy:              107.654 kcal/mol
   Total Entropy:               113.734  cal/mol.K
 Total job time:  36092.51s(wall), 513730.03s(cpu) 
 Wed Jun 26 07:18:53 2024

        *************************************************************
        *                                                           *
        *  Thank you very much for using Q-Chem.  Have a nice day.  *
        *                                                           *
        *************************************************************


