
Running Job 1 of 1 Q_in.in
qchem Q_in.in_55865.0 /scratch/ari.fischer/qChem2186811.hpc-mn1/qchem55865/ 0
/usr/local/qchem-5.4.1/exe/qcprog.exe_s Q_in.in_55865.0 /scratch/ari.fischer/qChem2186811.hpc-mn1/qchem55865/
                  Welcome to Q-Chem
     A Quantum Leap Into The Future Of Chemistry


 Q-Chem 5.4, Q-Chem, Inc., Pleasanton, CA (2021)

 License issued to: Nanyang Technological University (site)

 E. Epifanovsky,  A. T. B. Gilbert,  Xintian Feng,  Joonho Lee,  Yuezhi Mao,  
 N. Mardirossian,  P. Pokhilko,  A. White,  M. Wormit,  M. P. Coons,  
 A. L. Dempwolff,  Zhengting Gan,  D. Hait,  P. R. Horn,  L. D. Jacobson,  
 I. Kaliman,  J. Kussmann,  A. W. Lange,  Ka Un Lao,  D. S. Levine,  Jie Liu,  
 S. C. McKenzie,  A. F. Morrison,  K. Nanda,  F. Plasser,  D. R. Rehn,  
 M. L. Vidal,  Zhi-Qiang You,  Ying Zhu,  B. Alam,  B. Albrecht,  
 A. Aldossary,  E. Alguire,  J. H. Andersen,  D. Barton,  K. Begam,  A. Behn,  
 Y. A. Bernard,  E. J. Berquist,  H. Burton,  A. Carreras,  K. Carter-Fenk,  
 R. Chakraborty,  A. D. Chien,  K. D. Closser,  V. Cofer-Shabica,  
 S. Dasgupta,  Jia Deng,  M. de Wergifosse,  M. Diedenhofen,  Hainam Do,  
 S. Ehlert,  Po-Tung Fang,  S. Fatehi,  Qingguo Feng,  T. Friedhoff,  
 J. Gayvert,  Qinghui Ge,  G. Gidofalvi,  M. Goldey,  J. Gomes,  
 C. Gonzalez-Espinoza,  S. Gulania,  A. Gunina,  M. W. D. Hanson-Heine,  
 P. H. P. Harbach,  A. W. Hauser,  M. F. Herbst,  M. Hernandez Vera,  
 M. Hodecker,  Z. C. Holden,  S. Houck,  Xunkun Huang,  Kerwin Hui,  
 B. C. Huynh,  M. Ivanov,  Hyunjun Ji,  Hanjie Jiang,  B. Kaduk,  S. Kaehler,  
 K. Khistyaev,  Jaehoon Kim,  P. Klunzinger,  Z. Koczor-Benda,  
 Joong Hoon Koh,  D. Kosenkov,  L. Koulias,  T. Kowalczyk,  C. M. Krauter,  
 K. Kue,  A. Kunitsa,  T. Kus,  A. Landau,  K. V. Lawler,  D. Lefrancois,  
 S. Lehtola,  Rain Li,  Yi-Pei Li,  Jiashu Liang,  M. Liebenthal,  
 Hung-Hsuan Lin,  You-Sheng Lin,  Fenglai Liu,  Kuan-Yu Liu,  
 M. Loipersberger,  A. Luenser,  A. Manjanath,  P. Manohar,  E. Mansoor,  
 S. F. Manzer,  Shan-Ping Mao,  A. V. Marenich,  T. Markovich,  S. Mason,  
 S. A. Maurer,  P. F. McLaughlin,  M. F. S. J. Menger,  J.-M. Mewes,  
 S. A. Mewes,  P. Morgante,  J. W. Mullinax,  K. J. Oosterbaan,  G. Paran,  
 Alexander C. Paul,  Suranjan K. Paul,  F. Pavosevic,  Zheng Pei,  S. Prager,  
 E. I. Proynov,  E. Ramos,  B. Rana,  A. E. Rask,  A. Rettig,  R. M. Richard,  
 F. Rob,  E. Rossomme,  T. Scheele,  M. Scheurer,  M. Schneider,  
 N. Sergueev,  S. M. Sharada,  W. Skomorowski,  D. W. Small,  C. J. Stein,  
 Yu-Chuan Su,  E. J. Sundstrom,  Zhen Tao,  J. Thirman,  T. Tsuchimochi,  
 N. M. Tubman,  S. P. Veccham,  O. Vydrov,  J. Wenzel,  J. Witte,  A. Yamada,  
 Kun Yao,  S. Yeganeh,  S. R. Yost,  A. Zech,  Igor Ying Zhang,  Xing Zhang,  
 Yu Zhang,  D. Zuev,  A. Aspuru-Guzik,  A. T. Bell,  N. A. Besley,  
 K. B. Bravaya,  B. R. Brooks,  D. Casanova,  Jeng-Da Chai,  S. Coriani,  
 C. J. Cramer,  A. E. DePrince, III,  R. A. DiStasio Jr.,  A. Dreuw,  
 B. D. Dunietz,  T. R. Furlani,  W. A. Goddard III,  S. Grimme,  
 S. Hammes-Schiffer,  T. Head-Gordon,  W. J. Hehre,  Chao-Ping Hsu,  
 T.-C. Jagau,  Yousung Jung,  A. Klamt,  Jing Kong,  D. S. Lambrecht,  
 WanZhen Liang,  N. J. Mayhall,  C. W. McCurdy,  J. B. Neaton,  
 C. Ochsenfeld,  J. A. Parkhill,  R. Peverati,  V. A. Rassolov,  Yihan Shao,  
 L. V. Slipchenko,  T. Stauch,  R. P. Steele,  J. E. Subotnik,  
 A. J. W. Thom,  A. Tkatchenko,  D. G. Truhlar,  T. Van Voorhis,  
 T. A. Wesolowski,  K. B. Whaley,  H. L. Woodcock III,  P. M. Zimmerman,  
 S. Faraji,  P. M. W. Gill,  M. Head-Gordon,  J. M. Herbert,  A. I. Krylov

 Additional authors for Version 5.4.1: 
 S. Kotaru,  Shaozhi Li,  Xiangyuan Li,  F. Matz,  A. Molle,  Haisheng Ren,  
 Yingli Su,  Hung-Yi Tsai,  C. Utku,  Fang Wang

 Contributors to earlier versions of Q-Chem not listed above: 
 R. D. Adamson,  B. Austin,  R. Baer,  J. Baker,  G. J. O. Beran,  
 K. Brandhorst,  S. T. Brown,  E. F. C. Byrd,  A. K. Chakraborty,  
 G. K. L. Chan,  Chun-Min Chang,  Yunqing Chen,  C.-L. Cheng,  
 Siu Hung Chien,  D. M. Chipman,  D. L. Crittenden,  H. Dachsel,  
 R. J. Doerksen,  A. D. Dutoi,  R. G. Edgar,  J. Fosso-Tande,  
 L. Fusti-Molnar,  D. Ghosh,  A. Ghysels,  A. Golubeva-Zadorozhnaya,  
 J. Gonthier,  M. S. Gordon,  S. R. Gwaltney,  G. Hawkins,  J. E. Herr,  
 A. Heyden,  S. Hirata,  E. G. Hohenstein,  G. Kedziora,  F. J. Keil,  
 C. Kelley,  Jihan Kim,  R. A. King,  R. Z. Khaliullin,  P. P. Korambath,  
 W. Kurlancheek,  A. Laurent,  A. M. Lee,  M. S. Lee,  S. V. Levchenko,  
 Ching Yeh Lin,  D. Liotard,  E. Livshits,  R. C. Lochan,  I. Lotan,  
 L. A. Martinez-Martinez,  P. E. Maslen,  N. Nair,  D. P. O'Neill,  
 D. Neuhauser,  E. Neuscamman,  C. M. Oana,  R. Olivares-Amaya,  R. Olson,  
 T. M. Perrine,  B. Peters,  P. A. Pieniazek,  A. Prociuk,  Y. M. Rhee,  
 J. Ritchie,  M. A. Rohrdanz,  E. Rosta,  N. J. Russ,  H. F. Schaefer III,  
 M. W. Schmidt,  N. E. Schultz,  S. Sharma,  N. Shenvi,  C. D. Sherrill,  
 A. C. Simmonett,  A. Sodt,  T. Stein,  D. Stuck,  K. S. Thanthiriwatte,  
 V. Vanovschi,  L. Vogt,  Tao Wang,  A. Warshel,  M. A. Watson,  
 C. F. Williams,  Q. Wu,  X. Xu,  Jun Yang,  W. Zhang,  Yan Zhao

 Please cite Q-Chem as follows:
 Y. Shao et al., Mol. Phys. 113, 184-215 (2015)
 DOI: 10.1080/00268976.2014.952696

 Q-Chem 5.4.1 for Intel X86 EM64T Linux

 Parts of Q-Chem use Armadillo 9.800.1 (Horizon Scraper).
 http://arma.sourceforge.net/

 Q-Chem begins on Tue Jun 25 05:58:03 2024  

 Host: 
0

     Scratch files written to /scratch/ari.fischer/qChem2186811.hpc-mn1/qchem55865//
 Aug1521 |scratch|qcdevops|jenkins|workspace|build_RNUM 8249   
 Processing $rem in /usr/local/qchem-5.4.1/config/preferences:
 Processing $rem in /home/ari.fischer/.qchemrc:
 Symmetry turned off for PCM/SM12/SMD calculation

 Checking the input file for inconsistencies... 	...done.

--------------------------------------------------------------
User input:
--------------------------------------------------------------
$molecule
0 2
C         2.6656928706   -1.0177677310   -1.0878159223
O         1.5986988813   -0.0999773583   -1.1350063474
C         3.5231781698   -0.6221599257    0.1242001909
O         2.7557708465   -0.9248636356    1.2520834335
C         3.9865934295    0.8316789700    0.0532741915
C         5.0345867789    1.2218116138    1.0772553454
O         4.3915690060    1.0313827217    2.3986698410
H         3.2640965972   -0.9811940604   -2.0012442877
H         1.1364020178   -0.2495453699   -1.9763584780
H         3.1133958321    1.4822381058    0.1674318858
H         4.4197087747    1.0242616058   -0.9325755042
H         5.9159825684    0.5802959501    1.0898302154
O         2.2200431972   -2.3450732109   -0.9632961855
H         1.8100178925   -2.4123523581   -0.0816785250
O         4.6410966923   -1.5290537383    0.2280233635
O         5.4510198099   -1.3855435043   -0.9511117873
H         3.1724352046   -0.5169401339    2.0324623541
H         6.2388205912   -0.9348188239   -0.5931171852
O         5.4698174510    2.5306738606    0.9622388907
H         4.6950773466    3.0977603818    0.7972347943
O         5.2709801419    1.1498192408    3.3645726167
$end

$rem
BASIS = 6-311++G(2df,2p)
GUI = 2
JOB_TYPE = Optimization
METHOD = wB97M-V
SCF_ALGORITHM = DIIS_GDM
MAX_SCF_CYCLES = 400
GEOM_OPT_MAX_CYCLES = 150
SCF_CONVERGENCE = 7
THRESH = 12
Solvent_method = SMD
$end
--------------------------------------------------------------
 ----------------------------------------------------------------
             Standard Nuclear Orientation (Angstroms)
    I     Atom           X                Y                Z
 ----------------------------------------------------------------
    1      C       2.6656928706    -1.0177677310    -1.0878159223
    2      O       1.5986988813    -0.0999773583    -1.1350063474
    3      C       3.5231781698    -0.6221599257     0.1242001909
    4      O       2.7557708465    -0.9248636356     1.2520834335
    5      C       3.9865934295     0.8316789700     0.0532741915
    6      C       5.0345867789     1.2218116138     1.0772553454
    7      O       4.3915690060     1.0313827217     2.3986698410
    8      H       3.2640965972    -0.9811940604    -2.0012442877
    9      H       1.1364020178    -0.2495453699    -1.9763584780
   10      H       3.1133958321     1.4822381058     0.1674318858
   11      H       4.4197087747     1.0242616058    -0.9325755042
   12      H       5.9159825684     0.5802959501     1.0898302154
   13      O       2.2200431972    -2.3450732109    -0.9632961855
   14      H       1.8100178925    -2.4123523581    -0.0816785250
   15      O       4.6410966923    -1.5290537383     0.2280233635
   16      O       5.4510198099    -1.3855435043    -0.9511117873
   17      H       3.1724352046    -0.5169401339     2.0324623541
   18      H       6.2388205912    -0.9348188239    -0.5931171852
   19      O       5.4698174510     2.5306738606     0.9622388907
   20      H       4.6950773466     3.0977603818     0.7972347943
   21      O       5.2709801419     1.1498192408     3.3645726167
 ----------------------------------------------------------------
 Nuclear Repulsion Energy =         838.92404933 hartrees
 There are       49 alpha and       48 beta electrons
 Requested basis set is 6-311++G(2df,2p)
 There are 150 shells and 498 basis functions

 Total QAlloc Memory Limit 288000 MB
 Mega-Array Size       188 MB
 MEM_STATIC part       192 MB
 
 Citation of the SMD model:
 Marenich, A.V.; Cramer, C.J.; Truhlar, D.G.
 J. Phys. Chem. B 2009, 113, 6378-6396.
 iSolventCode=           1
 Solvent: water                                                           
 
 vradii
            1           2           3           4           5           6
    1   1.8500000   1.5200000   1.8500000   1.5200000   1.8500000   1.8500000
            7           8           9          10          11          12
    1   1.5200000   1.2000000   1.2000000   1.2000000   1.2000000   1.2000000
           13          14          15          16          17          18
    1   1.5200000   1.2000000   1.5200000   1.5200000   1.2000000   1.2000000
           19          20          21
    1   1.5200000   1.2000000   1.5200000
 Changing PCM_VDW_RADII to SMD_RADIUS
 Discretize the solute cavity surface with Lebedev spheres
	Using 110 Lebedev grid points for each H atom
	Using 194 Lebedev grid points for other atoms
	Atomic van der Waals radii will be scaled by 1.20
 Remove points where switching function is < 1.0e-08
 Keep 1643 surface tesserae and discard 1675 interior tesserae
 Molecular Surface Area = 180.804 Angst**2
 A cutoff of  1.0D-12 yielded   9686 shell pairs
 There are    104612 function pairs (    129853 Cartesian)
 Smallest overlap matrix eigenvalue = 4.20E-06

 Scale SEOQF with 1.000000e-02/1.000000e-01/1.000000e-01

 Standard Electronic Orientation quadrupole field applied
 Nucleus-field energy     =    -0.0000000025 hartrees
 Guess from superposition of atomic densities
 Warning:  Energy on first SCF cycle will be non-variational
 SAD guess density has 97.000000 electrons

 -----------------------------------------------------------------------
  General SCF calculation program by
  Eric Jon Sundstrom, Paul Horn, Yuezhi Mao, Dmitri Zuev, Alec White,
  David Stuck, Shaama M.S., Shane Yost, Joonho Lee, David Small,
  Daniel Levine, Susi Lehtola, Hugh Burton, Evgeny Epifanovsky,
  Bang C. Huynh
 -----------------------------------------------------------------------
 Exchange:     0.1500 Hartree-Fock + 1.0000 wB97M-V + LR-HF
 Correlation:  1.0000 wB97M-V
 Using SG-2 standard quadrature grid
 Nonlocal Correlation:  VV10 with C = 0.0100 and b = 6.00 and scale = 1.00000
 Grid used for NLC:  SG-1 standard quadrature
 
 Citation of the SMD model:
 Marenich, A.V.; Cramer, C.J.; Truhlar, D.G.
 J. Phys. Chem. B 2009, 113, 6378-6396.
 iSolventCode=           1
 Solvent: water                                                           
 
 vradii
            1           2           3           4           5           6
    1   1.8500000   1.5200000   1.8500000   1.5200000   1.8500000   1.8500000
            7           8           9          10          11          12
    1   1.5200000   1.2000000   1.2000000   1.2000000   1.2000000   1.2000000
           13          14          15          16          17          18
    1   1.5200000   1.2000000   1.5200000   1.5200000   1.2000000   1.2000000
           19          20          21
    1   1.5200000   1.2000000   1.5200000
 using 16 threads for integral computing
 -------------------------------------------------------
 OpenMP Integral computing Module                
 Release: version 1.0, May 2013, Q-Chem Inc. Pittsburgh 
 -------------------------------------------------------
 -------------------------------------------------------
 OpenMP BLAS3 based DFT computing Module                
 Release: version 1.0, May 2013, Q-Chem Inc. Pittsburgh 
 -------------------------------------------------------
 A unrestricted SCF calculation will be
 performed using DIIS, GDM
 SCF converges when RMS gradient is below 1.0e-07
 ---------------------------------------
  Cycle       Energy         DIIS error
 ---------------------------------------
    1    -761.6643106306      1.09e-02  
    2    -759.2727253450      1.51e-03  Done DIIS. Switching to GDM
 ---------------------------------------
  Cycle       Energy        RMS Gradient
 ---------------------------------------
    1    -759.2727253450      7.82e-02   Descent step
    2    -759.4560840255      2.03e-02   Normal BFGS step
    3    -759.4887329283      4.41e-02   Normal BFGS step
    4    -759.4918638871      1.96e-02   Normal BFGS step
    5    -759.4943001095      6.87e-03   Normal BFGS step
    6    -759.4944755165      5.13e-03   Normal BFGS step
    7    -759.4945581463      2.83e-03   Normal BFGS step
    8    -759.4945857670      2.28e-04   Normal BFGS step
    9    -759.4945880935      1.32e-04   Normal BFGS step
   10    -759.4945894754      4.69e-05   Normal BFGS step
   11    -759.4945895376      4.03e-05   Normal BFGS step
   12    -759.4945895802      3.82e-05   Normal BFGS step
   13    -759.4945895849      3.45e-05   Normal BFGS step
   14    -759.4945895879      2.87e-05   Normal BFGS step
   15    -759.4945895905      1.95e-05   Normal BFGS step
   16    -759.4945895925      9.56e-06   Normal BFGS step
   17    -759.4945895937      2.50e-06   Normal BFGS step
   18    -759.4945895939      9.30e-07   Normal BFGS step
   19    -759.4945895939      3.79e-07   Normal BFGS step
   20    -759.4945895939      1.99e-07   Normal BFGS step
   21    -759.4945895939      1.20e-07   Normal BFGS step
   22    -759.4945895942      4.73e-08  Convergence criterion met
 ---------------------------------------
 SCF time:   CPU 4899.13s  wall 344.00s 
<S^2> =          0.753856549
(3)  G-ENP(liq) elect-nuc-pol free energy of system     -759.494589594 a.u.
(4)  G-CDS(liq) cavity-dispersion-solvent structure 
     free energy                                                3.3125 kcal/mol
(6)  G-S(liq) free energy of system                     -759.489310864 a.u.
 SCF   energy in the final basis set =     -759.4893108639
 Total energy in the final basis set =     -759.4893108639
 
 --------------------------------------------------------------
 
                    Orbital Energies (a.u.)
 --------------------------------------------------------------
 
 Alpha MOs
 -- Occupied --
-19.4648 -19.4271 -19.4071 -19.4006 -19.3651 -19.3614 -19.3499 -19.3485
-10.4702 -10.4668 -10.4495 -10.3569  -1.3456  -1.2769  -1.2125  -1.1928
 -1.1822  -1.1374  -1.0415  -1.0174  -0.9059  -0.8384  -0.7752  -0.7385
 -0.6914  -0.6770  -0.6607  -0.6526  -0.6375  -0.6229  -0.6118  -0.5877
 -0.5790  -0.5732  -0.5521  -0.5473  -0.5319  -0.4973  -0.4873  -0.4730
 -0.4668  -0.4588  -0.4376  -0.4326  -0.4179  -0.4108  -0.4074  -0.4011
 -0.3910
 -- Virtual --
  0.0271   0.0366   0.0410   0.0427   0.0616   0.0650   0.0700   0.0726
  0.0903   0.0946   0.1104   0.1201   0.1246   0.1260   0.1350   0.1440
  0.1473   0.1525   0.1550   0.1604   0.1668   0.1743   0.1777   0.1858
  0.1871   0.1968   0.2085   0.2152   0.2281   0.2394   0.2462   0.2514
  0.2534   0.2575   0.2646   0.2683   0.2733   0.2826   0.2860   0.2890
  0.2907   0.2994   0.3026   0.3058   0.3199   0.3230   0.3300   0.3336
  0.3381   0.3464   0.3496   0.3600   0.3611   0.3633   0.3727   0.3843
  0.3859   0.3936   0.3953   0.4024   0.4054   0.4079   0.4146   0.4232
  0.4249   0.4283   0.4372   0.4470   0.4491   0.4627   0.4696   0.4801
  0.4823   0.4934   0.5048   0.5298   0.5471   0.5687   0.5882   0.5895
  0.6035   0.6174   0.6227   0.6374   0.6540   0.6600   0.6805   0.6876
  0.7022   0.7106   0.7168   0.7282   0.7325   0.7509   0.7545   0.7630
  0.7828   0.7997   0.8077   0.8255   0.8321   0.8564   0.8714   0.8746
  0.8977   0.9087   0.9352   0.9508   0.9733   0.9857   1.0095   1.0284
  1.0474   1.0639   1.0682   1.0758   1.0866   1.0978   1.1078   1.1190
  1.1331   1.1416   1.1485   1.1580   1.1642   1.1701   1.1844   1.1909
  1.1997   1.2045   1.2093   1.2160   1.2225   1.2291   1.2366   1.2454
  1.2532   1.2655   1.2801   1.2881   1.2949   1.3023   1.3103   1.3186
  1.3324   1.3544   1.3580   1.3778   1.3906   1.3965   1.4159   1.4248
  1.4352   1.4638   1.4741   1.4918   1.4949   1.5081   1.5191   1.5283
  1.5305   1.5444   1.5531   1.5699   1.5798   1.5871   1.6053   1.6192
  1.6264   1.6444   1.6547   1.6785   1.6821   1.6882   1.7018   1.7224
  1.7423   1.7705   1.7875   1.7994   1.8208   1.8367   1.8538   1.8734
  1.8974   1.9178   1.9382   1.9493   1.9694   1.9968   1.9989   2.0340
  2.0499   2.0598   2.0877   2.1062   2.1697   2.1779   2.2108   2.2305
  2.2485   2.2636   2.2854   2.2917   2.3174   2.3338   2.3567   2.3748
  2.3938   2.4009   2.4303   2.4536   2.4655   2.4825   2.4922   2.5050
  2.5401   2.5686   2.6183   2.6773   2.6837   2.7136   2.7570   2.7874
  2.8033   2.8431   2.8546   2.8800   2.8867   2.9238   2.9543   2.9863
  3.0074   3.0508   3.0835   3.0974   3.1385   3.1742   3.1969   3.2174
  3.2659   3.2839   3.2903   3.3193   3.3356   3.3671   3.4134   3.4178
  3.4416   3.4624   3.4786   3.5118   3.5316   3.5625   3.5720   3.6166
  3.6219   3.6434   3.6585   3.6664   3.6825   3.7187   3.7267   3.7372
  3.7536   3.7675   3.8154   3.8171   3.8321   3.8404   3.8522   3.8566
  3.8619   3.8852   3.8998   3.9054   3.9317   3.9357   3.9665   3.9711
  3.9968   4.0370   4.0617   4.0751   4.1118   4.1314   4.1476   4.1751
  4.1838   4.2077   4.2271   4.2397   4.2488   4.2846   4.2972   4.3267
  4.3461   4.3796   4.3835   4.3929   4.4022   4.4360   4.4497   4.4757
  4.5554   4.5612   4.5750   4.6130   4.6246   4.6464   4.6747   4.7054
  4.7388   4.7629   4.8060   4.8552   4.8713   4.8947   4.9314   5.0266
  5.0402   5.0610   5.0713   5.0846   5.0924   5.1371   5.1580   5.2086
  5.2187   5.2278   5.2421   5.2560   5.2656   5.2684   5.2821   5.2937
  5.2991   5.3146   5.3230   5.3293   5.3342   5.3594   5.3717   5.3804
  5.3925   5.4018   5.4087   5.4291   5.4337   5.4752   5.4914   5.4976
  5.5082   5.5438   5.5592   5.5669   5.5912   5.5993   5.6008   5.6161
  5.6298   5.6367   5.6519   5.6675   5.6704   5.7118   5.7271   5.7591
  5.7822   5.7912   5.8045   5.8391   5.9103   5.9621   6.0120   6.0262
  6.0306   6.0634   6.0892   6.1332   6.1630   6.2198   6.3764   6.4381
  6.4958   6.5554   6.5844   6.6943   6.7485   6.8085   6.8349   6.8416
  6.8652   6.9904   7.0140   7.0417   7.0666   7.0881   7.0963   7.1126
  7.1303   7.1664   7.1686   7.2104   7.2368   7.2471   7.2648   7.2855
  7.2921   7.3036   7.3252   7.3360   7.3718   7.3957   7.4040   7.4222
  7.4299   7.4702   7.5013   7.5074   7.5128   7.5881   7.5959   7.6559
  7.6828   7.6982   7.7461   7.7757   7.8296   7.8599   7.8669   7.8954
  7.9158   8.0115   8.0503   8.0878   8.2137  24.6283  24.7341  24.7939
 24.8537  50.4123  50.5001  50.5268  50.5925  50.6120  50.6258  50.6532
 50.7017
 
 Beta MOs
 -- Occupied --
-19.4554 -19.4075 -19.4071 -19.4006 -19.3648 -19.3614 -19.3499 -19.3485
-10.4702 -10.4671 -10.4495 -10.3569  -1.3201  -1.2769  -1.2125  -1.1906
 -1.1821  -1.1374  -1.0414  -0.9864  -0.9008  -0.8346  -0.7719  -0.7382
 -0.6906  -0.6664  -0.6544  -0.6500  -0.6205  -0.6151  -0.6034  -0.5792
 -0.5741  -0.5675  -0.5458  -0.5323  -0.5143  -0.4950  -0.4839  -0.4706
 -0.4656  -0.4555  -0.4362  -0.4324  -0.4174  -0.4042  -0.3910  -0.3881
 -- Virtual --
 -0.0401   0.0272   0.0368   0.0412   0.0430   0.0618   0.0654   0.0703
  0.0729   0.0906   0.0948   0.1114   0.1206   0.1249   0.1269   0.1359
  0.1460   0.1476   0.1527   0.1567   0.1622   0.1671   0.1748   0.1788
  0.1870   0.1877   0.1972   0.2096   0.2158   0.2299   0.2416   0.2480
  0.2522   0.2581   0.2610   0.2654   0.2706   0.2741   0.2834   0.2864
  0.2896   0.2918   0.3019   0.3033   0.3072   0.3206   0.3238   0.3316
  0.3352   0.3388   0.3471   0.3499   0.3603   0.3613   0.3637   0.3732
  0.3848   0.3862   0.3947   0.3956   0.4029   0.4059   0.4083   0.4154
  0.4244   0.4264   0.4303   0.4376   0.4471   0.4497   0.4636   0.4701
  0.4803   0.4830   0.4936   0.5054   0.5315   0.5481   0.5691   0.5890
  0.5900   0.6043   0.6174   0.6228   0.6375   0.6545   0.6607   0.6808
  0.6879   0.7025   0.7107   0.7172   0.7285   0.7327   0.7513   0.7550
  0.7631   0.7830   0.8003   0.8085   0.8257   0.8329   0.8567   0.8721
  0.8747   0.8981   0.9091   0.9359   0.9512   0.9740   0.9867   1.0098
  1.0291   1.0482   1.0645   1.0689   1.0781   1.0890   1.0993   1.1096
  1.1215   1.1350   1.1431   1.1583   1.1615   1.1659   1.1791   1.1853
  1.1929   1.2038   1.2068   1.2163   1.2178   1.2274   1.2311   1.2421
  1.2476   1.2579   1.2663   1.2823   1.2915   1.2970   1.3060   1.3127
  1.3227   1.3332   1.3549   1.3611   1.3797   1.3909   1.3976   1.4168
  1.4290   1.4365   1.4654   1.4753   1.4928   1.4956   1.5104   1.5207
  1.5293   1.5326   1.5515   1.5543   1.5722   1.5844   1.5924   1.6104
  1.6201   1.6393   1.6467   1.6581   1.6820   1.6865   1.6892   1.7117
  1.7280   1.7446   1.7753   1.7927   1.8032   1.8216   1.8415   1.8583
  1.8756   1.9012   1.9224   1.9403   1.9500   1.9704   1.9973   2.0009
  2.0366   2.0538   2.0616   2.0910   2.1070   2.1720   2.1836   2.2153
  2.2367   2.2504   2.2705   2.2881   2.2966   2.3215   2.3372   2.3592
  2.3809   2.3945   2.4016   2.4332   2.4547   2.4660   2.4838   2.4924
  2.5059   2.5408   2.5688   2.6191   2.6787   2.6862   2.7190   2.7584
  2.7877   2.8037   2.8433   2.8548   2.8802   2.8870   2.9242   2.9546
  2.9868   3.0079   3.0510   3.0839   3.0977   3.1389   3.1744   3.1971
  3.2176   3.2667   3.2846   3.2903   3.3201   3.3358   3.3671   3.4135
  3.4181   3.4418   3.4625   3.4788   3.5119   3.5318   3.5626   3.5720
  3.6165   3.6222   3.6434   3.6584   3.6663   3.6825   3.7191   3.7267
  3.7370   3.7538   3.7684   3.8156   3.8174   3.8321   3.8409   3.8525
  3.8568   3.8621   3.8852   3.9000   3.9055   3.9319   3.9358   3.9666
  3.9713   3.9969   4.0373   4.0619   4.0752   4.1122   4.1317   4.1484
  4.1751   4.1839   4.2081   4.2273   4.2399   4.2490   4.2849   4.2974
  4.3272   4.3465   4.3803   4.3841   4.3932   4.4024   4.4396   4.4502
  4.4760   4.5568   4.5618   4.5820   4.6149   4.6309   4.6564   4.6801
  4.7102   4.7491   4.7675   4.8126   4.8701   4.8732   4.9090   4.9344
  5.0310   5.0487   5.0659   5.1293   5.1355   5.1416   5.1713   5.1937
  5.2133   5.2219   5.2483   5.2569   5.2572   5.2673   5.2828   5.2844
  5.2979   5.3030   5.3229   5.3297   5.3338   5.3418   5.3608   5.3735
  5.3835   5.4030   5.4053   5.4210   5.4304   5.4387   5.4780   5.4919
  5.5004   5.5156   5.5448   5.5611   5.5724   5.5951   5.6009   5.6109
  5.6165   5.6363   5.6373   5.6522   5.6679   5.6742   5.7133   5.7342
  5.7602   5.7828   5.8018   5.8055   5.8395   5.9110   5.9630   6.0126
  6.0272   6.0351   6.0637   6.0911   6.1335   6.1630   6.2199   6.3887
  6.4837   6.4966   6.5663   6.5857   6.7045   6.7486   6.8097   6.8368
  6.9209   6.9480   7.0144   7.0353   7.0543   7.0727   7.0887   7.0994
  7.1298   7.1423   7.1709   7.1871   7.2255   7.2471   7.2525   7.2665
  7.2893   7.2979   7.3077   7.3274   7.3455   7.3766   7.4081   7.4164
  7.4234   7.4335   7.4772   7.5076   7.5144   7.5299   7.5888   7.5974
  7.6560   7.6851   7.6988   7.7530   7.7759   7.8302   7.8605   7.8735
  7.8974   7.9159   8.0118   8.0622   8.1068   8.2138  24.6283  24.7340
 24.7939  24.8537  50.4256  50.5001  50.5342  50.5934  50.6123  50.6259
 50.6535  50.7018
 --------------------------------------------------------------
 
          Ground-State Mulliken Net Atomic Charges

     Atom                 Charge (a.u.)    Spin (a.u.)
  --------------------------------------------------------
      1 C                    -0.124919      -0.002594
      2 O                    -0.422573      -0.000097
      3 C                     0.175203       0.003107
      4 O                    -0.400837       0.001716
      5 C                    -0.630544      -0.004228
      6 C                    -0.128095       0.006847
      7 O                     0.072618       0.280346
      8 H                     0.301718      -0.000041
      9 H                     0.340687      -0.000040
     10 H                     0.318920      -0.001016
     11 H                     0.294058       0.000370
     12 H                     0.328425       0.002849
     13 O                    -0.458555       0.000018
     14 H                     0.354498       0.000098
     15 O                    -0.147964       0.000356
     16 O                    -0.277935       0.000566
     17 H                     0.325306       0.001481
     18 H                     0.333158      -0.000386
     19 O                    -0.415883       0.005395
     20 H                     0.352310       0.000069
     21 O                    -0.189595       0.705185
  --------------------------------------------------------
  Sum of atomic charges =     0.000000
  Sum of spin   charges =     1.000000

 -----------------------------------------------------------------
                    Cartesian Multipole Moments
 -----------------------------------------------------------------
    Charge (ESU x 10^10)
                 0.0000
    Dipole Moment (Debye)
         X       0.1145      Y       4.0333      Z      -3.2994
       Tot       5.2122
    Quadrupole Moments (Debye-Ang)
        XX     -68.4622     XY      10.7505     YY     -78.6095
        XZ     -15.3084     YZ      -7.6937     ZZ     -76.8681
    Octopole Moments (Debye-Ang^2)
       XXX    -800.0107    XXY       9.7510    XYY    -322.3705
       YYY      66.2020    XXZ    -120.0902    XYZ     -37.9746
       YYZ     -18.2046    XZZ    -331.7192    YZZ      -6.5836
       ZZZ    -136.9561
    Hexadecapole Moments (Debye-Ang^3)
      XXXX   -6950.4547   XXXY    -363.7922   XXYY   -1649.8328
      XYYY      31.5152   YYYY    -894.6775   XXXZ   -1082.8879
      XXYZ    -285.6363   XYYZ    -177.3053   YYYZ    -265.8199
      XXZZ   -1701.3904   XYZZ    -117.8026   YYZZ    -351.9724
      XZZZ    -757.0735   YZZZ    -290.3785   ZZZZ   -1056.5793
 -----------------------------------------------------------------
 Calculating analytic gradient of the SCF energy
 Gradient of CDS energy
            1           2           3           4           5           6
    1  -0.0023708   0.0015047  -0.0017908   0.0019068  -0.0000518   0.0020345
    2  -0.0015103  -0.0013385  -0.0007399   0.0007730   0.0000266   0.0052571
    3  -0.0001913   0.0003461   0.0026627  -0.0029260  -0.0000574  -0.0005149
            7           8           9          10          11          12
    1   0.0001271   0.0002701  -0.0003943  -0.0001766   0.0000744  -0.0000542
    2   0.0001021  -0.0000661   0.0002112  -0.0000133  -0.0000508  -0.0001242
    3  -0.0000251   0.0000193  -0.0002597   0.0000716  -0.0001255   0.0001268
           13          14          15          16          17          18
    1   0.0010728  -0.0002787  -0.0000563  -0.0002887  -0.0001421   0.0004777
    2   0.0028574  -0.0003574  -0.0000120  -0.0000245  -0.0000836  -0.0000886
    3  -0.0002182   0.0001959  -0.0000846   0.0000951   0.0004172  -0.0001310
           19          20          21
    1  -0.0017368  -0.0000811  -0.0000456
    2  -0.0052774   0.0004733  -0.0000142
    3   0.0005782  -0.0000160   0.0000369
 Gradient of SCF Energy
            1           2           3           4           5           6
    1  -0.0071925   0.0054982   0.0021384  -0.0114640   0.0045732  -0.0204362
    2   0.0005145   0.0063331   0.0024175  -0.0083742  -0.0153049   0.0110911
    3   0.0070064   0.0230057  -0.0018122  -0.0107500   0.0155767   0.0014132
            7           8           9          10          11          12
    1  -0.0052954   0.0040527  -0.0068859  -0.0095277   0.0081037   0.0150906
    2  -0.0018137   0.0031842  -0.0033042   0.0114149   0.0035318  -0.0113562
    3  -0.0043329  -0.0088237  -0.0195561   0.0025351  -0.0153565  -0.0038034
           13          14          15          16          17          18
    1   0.0074401  -0.0045729  -0.0032969  -0.0179806   0.0086830   0.0199611
    2  -0.0084954   0.0031628  -0.0055603  -0.0144264   0.0076707   0.0157341
    3  -0.0094042   0.0074973   0.0060224  -0.0164341   0.0108102   0.0104836
           19          20          21
    1   0.0283741  -0.0229629   0.0057000
    2  -0.0111707   0.0126961   0.0020553
    3   0.0075171  -0.0059572   0.0043626
 Max gradient component =       2.837E-02
 RMS gradient           =       1.094E-02
 Computing fast CPCM-SWIG gradient
 Updating gradient with PCM contributions...
 -- total gradient after adding PCM contribution --
---------------------------------------------------
  Atom         X              Y              Z     
---------------------------------------------------
   1      -0.004113      -0.000836       0.001813
   2       0.002490       0.004235       0.008534
   3       0.000117       0.000154      -0.001188
   4      -0.006357      -0.003866      -0.004718
   5       0.000752      -0.001729       0.001291
   6      -0.001414       0.003352       0.000902
   7      -0.007948      -0.002860      -0.004345
   8       0.002158      -0.000922      -0.002535
   9      -0.002334      -0.002395      -0.006104
  10      -0.002678       0.001758       0.000211
  11       0.001477       0.000710      -0.002917
  12       0.002379      -0.001318      -0.000179
  13       0.004098      -0.003026      -0.007670
  14      -0.002049       0.002438       0.006596
  15      -0.000648      -0.001470       0.005030
  16      -0.003580      -0.002305      -0.008063
  17       0.004688       0.003716       0.004560
  18       0.004686       0.003219       0.003768
  19       0.008810      -0.002730       0.001211
  20      -0.006402       0.002460      -0.000875
  21       0.005868       0.001413       0.004679
---------------------------------------------------
 Number of fixed atoms: 0
 Gradient time:  CPU 627.38 s  wall 53.28 s
 Geometry Optimization Parameters
   NAtoms,    NIC,     NZ,  NCons,   NDum,   NFix, NCnnct, MaxDiis
       21     139       0       0       0       0       0       0


** GEOMETRY OPTIMIZATION IN DELOCALIZED INTERNAL COORDINATES **
   Searching for a Minimum

   Optimization Cycle:   1

                       Coordinates (Angstroms)
     ATOM                X               Y               Z
      1  C         2.6656928706   -1.0177677310   -1.0878159223
      2  O         1.5986988813   -0.0999773583   -1.1350063474
      3  C         3.5231781698   -0.6221599257    0.1242001909
      4  O         2.7557708465   -0.9248636356    1.2520834335
      5  C         3.9865934295    0.8316789700    0.0532741915
      6  C         5.0345867789    1.2218116138    1.0772553454
      7  O         4.3915690060    1.0313827217    2.3986698410
      8  H         3.2640965972   -0.9811940604   -2.0012442877
      9  H         1.1364020178   -0.2495453699   -1.9763584780
     10  H         3.1133958321    1.4822381058    0.1674318858
     11  H         4.4197087747    1.0242616058   -0.9325755042
     12  H         5.9159825684    0.5802959501    1.0898302154
     13  O         2.2200431972   -2.3450732109   -0.9632961855
     14  H         1.8100178925   -2.4123523581   -0.0816785250
     15  O         4.6410966923   -1.5290537383    0.2280233635
     16  O         5.4510198099   -1.3855435043   -0.9511117873
     17  H         3.1724352046   -0.5169401339    2.0324623541
     18  H         6.2388205912   -0.9348188239   -0.5931171852
     19  O         5.4698174510    2.5306738606    0.9622388907
     20  H         4.6950773466    3.0977603818    0.7972347943
     21  O         5.2709801419    1.1498192408    3.3645726167
   Point Group: c1    Number of degrees of freedom:    57


   Energy is   -759.489310864


 Attempting to generate delocalized internal coordinates
 Initial Hessian constructed with Jon Baker's OPTIMIZE code

 57 Hessian modes will be used to form the next step
  Hessian Eigenvalues:
     0.004122    0.004353    0.004819    0.005533    0.007028    0.009924
     0.014560    0.014898    0.015992    0.017747    0.035796    0.049715
     0.050107    0.052429    0.058159    0.061006    0.063149    0.063389
     0.087993    0.091819    0.096217    0.097227    0.125084    0.160000
     0.160000    0.160000    0.160000    0.160000    0.170998    0.182667
     0.185554    0.191101    0.203621    0.207073    0.220115    0.250000
     0.250000    0.288331    0.296501    0.307301    0.342562    0.343589
     0.343679    0.345138    0.347883    0.391427    0.399050    0.442873
     0.446971    0.460579    0.483576    0.522339    0.524427    0.525310
     0.525345    0.530560    0.640655

 Minimum search - taking simple RFO step
 Searching for Lamda that Minimizes Along All modes
 Value Taken    Lamda =  -0.00172446
 Step Taken.  Stepsize is  0.182232

                             Maximum     Tolerance    Cnvgd?
         Gradient           0.008345      0.000300      NO
         Displacement       0.069142      0.001200      NO
         Energy change     *********      0.000001      NO


 New Cartesian Coordinates Obtained by Inverse Iteration

 Displacement from previous Coordinates is:  0.364188
 ----------------------------------------------------------------
             Standard Nuclear Orientation (Angstroms)
    I     Atom           X                Y                Z
 ----------------------------------------------------------------
    1      C       2.6754642744    -1.0090428503    -1.0836045953
    2      O       1.6011483506    -0.1025884575    -1.1464881265
    3      C       3.5154179731    -0.6226272816     0.1446516006
    4      O       2.7445137993    -0.9450575391     1.2634841179
    5      C       3.9652231328     0.8334017995     0.0783657119
    6      C       5.0346742434     1.2350797571     1.0703671287
    7      O       4.4289910679     1.0756442024     2.4109387731
    8      H       3.2840034340    -0.9477995353    -1.9829240069
    9      H       1.1571828939    -0.2279339864    -1.9938963129
   10      H       3.0949071857     1.4762987194     0.2095363656
   11      H       4.3736628471     1.0282333381    -0.9119068111
   12      H       5.9124312920     0.5953594503     1.0722643907
   13      O       2.2304066240    -2.3397243288    -0.9958426290
   14      H       1.7954983013    -2.4565725682    -0.1390297654
   15      O       4.6376408758    -1.5227047319     0.2469953269
   16      O       5.4481907341    -1.3937520466    -0.9265809307
   17      H       3.1302105103    -0.5508055218     2.0576948143
   18      H       6.2572743203    -0.9889644921    -0.5796270541
   19      O       5.4604025166     2.5429046431     0.9196495955
   20      H       4.6968425664     3.1146918868     0.7582566003
   21      O       5.3308971572     1.1365921429     3.3527687065
 ----------------------------------------------------------------
 Nuclear Repulsion Energy =         837.95593455 hartrees
 There are       49 alpha and       48 beta electrons
 Discretize the solute cavity surface with Lebedev spheres
	Using 110 Lebedev grid points for each H atom
	Using 194 Lebedev grid points for other atoms
	Atomic van der Waals radii will be scaled by 1.20
 Remove points where switching function is < 1.0e-08
 Keep 1649 surface tesserae and discard 1669 interior tesserae
 Molecular Surface Area = 181.436 Angst**2
 Applying Cartesian multipole field
    Component          Value
    ---------          -----
     (2,0,0)        1.00000E-12
     (0,2,0)        2.00000E-11
     (0,0,2)       -3.00000E-11
 Nucleus-field energy     =    -0.0000000024 hartrees
 Requested basis set is 6-311++G(2df,2p)
 There are 150 shells and 498 basis functions
 A cutoff of  1.0D-12 yielded   9677 shell pairs
 There are    104521 function pairs (    129736 Cartesian)
 Smallest overlap matrix eigenvalue = 4.04E-06
 Guess MOs from SCF MO coefficient file

 -----------------------------------------------------------------------
  General SCF calculation program by
  Eric Jon Sundstrom, Paul Horn, Yuezhi Mao, Dmitri Zuev, Alec White,
  David Stuck, Shaama M.S., Shane Yost, Joonho Lee, David Small,
  Daniel Levine, Susi Lehtola, Hugh Burton, Evgeny Epifanovsky,
  Bang C. Huynh
 -----------------------------------------------------------------------
 Exchange:     0.1500 Hartree-Fock + 1.0000 wB97M-V + LR-HF
 Correlation:  1.0000 wB97M-V
 Using SG-2 standard quadrature grid
 Nonlocal Correlation:  VV10 with C = 0.0100 and b = 6.00 and scale = 1.00000
 Grid used for NLC:  SG-1 standard quadrature
 
 Citation of the SMD model:
 Marenich, A.V.; Cramer, C.J.; Truhlar, D.G.
 J. Phys. Chem. B 2009, 113, 6378-6396.
 iSolventCode=           1
 Solvent: water                                                           
 
 vradii
            1           2           3           4           5           6
    1   1.8500000   1.5200000   1.8500000   1.5200000   1.8500000   1.8500000
            7           8           9          10          11          12
    1   1.5200000   1.2000000   1.2000000   1.2000000   1.2000000   1.2000000
           13          14          15          16          17          18
    1   1.5200000   1.2000000   1.5200000   1.5200000   1.2000000   1.2000000
           19          20          21
    1   1.5200000   1.2000000   1.5200000
 -------------------------------------------------------
 OpenMP BLAS3 based DFT computing Module                
 Release: version 1.0, May 2013, Q-Chem Inc. Pittsburgh 
 -------------------------------------------------------
 A unrestricted SCF calculation will be
 performed using Roothaan-Hall, DIIS, GDM
 SCF converges when RMS gradient is below 1.0e-07
 ---------------------------------------
  Cycle       Energy         DIIS error
 ---------------------------------------
    1    -759.4315243725      2.74e-04  Roothaan Step
 ---------------------------------------
  Cycle       Energy         DIIS error
 ---------------------------------------
    1    -759.4838178514      2.52e-04  
    2    -759.4915929272      2.06e-04  Done DIIS. Switching to GDM
 ---------------------------------------
  Cycle       Energy        RMS Gradient
 ---------------------------------------
    1    -759.4915929272      1.77e-02   Normal BFGS step
    2    -759.4905843631      3.14e-02  Line search: overstep
    3    -759.4950780334      5.78e-03   Normal BFGS step
    4    -759.4953383125      2.05e-03   Normal BFGS step
    5    -759.4954304392      2.05e-03   Normal BFGS step
    6    -759.4954451307      1.79e-03   Normal BFGS step
    7    -759.4954528260      1.54e-03   Normal BFGS step
    8    -759.4954611578      1.01e-03   Normal BFGS step
    9    -759.4954651088      5.37e-04   Normal BFGS step
   10    -759.4954674422      4.37e-04   Normal BFGS step
   11    -759.4954688338      2.52e-04   Normal BFGS step
   12    -759.4954692208      3.69e-05   Normal BFGS step
   13    -759.4954692937      3.34e-05   Normal BFGS step
   14    -759.4954693065      1.67e-05   Normal BFGS step
   15    -759.4954693096      7.49e-06   Normal BFGS step
   16    -759.4954693106      2.35e-06   Normal BFGS step
   17    -759.4954693108      9.53e-07   Normal BFGS step
   18    -759.4954693108      1.97e-07   Normal BFGS step
   19    -759.4954693108      1.18e-07   Normal BFGS step
   20    -759.4954693107      6.44e-08  Convergence criterion met
 ---------------------------------------
 SCF time:   CPU 4966.55s  wall 346.00s 
<S^2> =          0.753851433
(3)  G-ENP(liq) elect-nuc-pol free energy of system     -759.495469311 a.u.
(4)  G-CDS(liq) cavity-dispersion-solvent structure 
     free energy                                                3.3743 kcal/mol
(6)  G-S(liq) free energy of system                     -759.490091967 a.u.
 SCF   energy in the final basis set =     -759.4900919665
 Total energy in the final basis set =     -759.4900919665
 
 --------------------------------------------------------------
 
                    Orbital Energies (a.u.)
 --------------------------------------------------------------
 
 Alpha MOs
 -- Occupied --
-19.4637 -19.4250 -19.4068 -19.3996 -19.3635 -19.3615 -19.3486 -19.3476
-10.4708 -10.4656 -10.4495 -10.3554  -1.3477  -1.2787  -1.2125  -1.1935
 -1.1834  -1.1377  -1.0427  -1.0157  -0.9071  -0.8401  -0.7766  -0.7411
 -0.6920  -0.6777  -0.6619  -0.6553  -0.6402  -0.6233  -0.6112  -0.5892
 -0.5794  -0.5748  -0.5515  -0.5458  -0.5315  -0.4983  -0.4867  -0.4729
 -0.4661  -0.4593  -0.4368  -0.4331  -0.4180  -0.4090  -0.4048  -0.4002
 -0.3894
 -- Virtual --
  0.0270   0.0366   0.0411   0.0425   0.0618   0.0643   0.0700   0.0730
  0.0915   0.0939   0.1116   0.1200   0.1251   0.1262   0.1351   0.1452
  0.1473   0.1527   0.1550   0.1611   0.1673   0.1739   0.1780   0.1849
  0.1868   0.1972   0.2098   0.2151   0.2285   0.2420   0.2460   0.2525
  0.2557   0.2579   0.2639   0.2688   0.2735   0.2828   0.2875   0.2892
  0.2917   0.2987   0.3033   0.3059   0.3192   0.3237   0.3302   0.3350
  0.3394   0.3465   0.3498   0.3599   0.3629   0.3640   0.3737   0.3848
  0.3866   0.3941   0.3958   0.4022   0.4053   0.4097   0.4159   0.4229
  0.4245   0.4292   0.4378   0.4481   0.4491   0.4633   0.4681   0.4796
  0.4819   0.4956   0.5067   0.5295   0.5450   0.5705   0.5865   0.5930
  0.6071   0.6173   0.6239   0.6387   0.6565   0.6613   0.6827   0.6904
  0.7017   0.7136   0.7137   0.7311   0.7342   0.7490   0.7564   0.7638
  0.7869   0.7978   0.8041   0.8255   0.8357   0.8577   0.8704   0.8749
  0.8892   0.9115   0.9369   0.9462   0.9755   0.9819   1.0068   1.0327
  1.0512   1.0634   1.0713   1.0718   1.0844   1.0992   1.1077   1.1190
  1.1303   1.1419   1.1461   1.1582   1.1639   1.1716   1.1854   1.1890
  1.1966   1.2040   1.2101   1.2156   1.2231   1.2251   1.2393   1.2434
  1.2531   1.2626   1.2811   1.2911   1.2941   1.3028   1.3072   1.3204
  1.3321   1.3518   1.3583   1.3770   1.3908   1.3993   1.4169   1.4257
  1.4397   1.4621   1.4757   1.4930   1.4955   1.5035   1.5199   1.5289
  1.5332   1.5418   1.5525   1.5688   1.5805   1.5908   1.6097   1.6209
  1.6299   1.6464   1.6545   1.6781   1.6819   1.6911   1.7077   1.7138
  1.7427   1.7653   1.7853   1.7983   1.8196   1.8355   1.8504   1.8729
  1.8899   1.9196   1.9356   1.9504   1.9737   1.9916   2.0007   2.0267
  2.0472   2.0613   2.0849   2.1087   2.1699   2.1719   2.2123   2.2340
  2.2462   2.2626   2.2845   2.2929   2.3191   2.3375   2.3580   2.3708
  2.3919   2.4003   2.4297   2.4521   2.4654   2.4803   2.4929   2.5054
  2.5291   2.5684   2.6067   2.6759   2.6779   2.7146   2.7522   2.7832
  2.7990   2.8399   2.8562   2.8796   2.8862   2.9271   2.9586   2.9789
  3.0091   3.0548   3.0799   3.0931   3.1389   3.1787   3.1988   3.2213
  3.2699   3.2837   3.2857   3.3225   3.3384   3.3702   3.4135   3.4169
  3.4433   3.4625   3.4781   3.5106   3.5360   3.5626   3.5726   3.6155
  3.6262   3.6442   3.6578   3.6694   3.6864   3.7191   3.7265   3.7358
  3.7527   3.7690   3.8153   3.8214   3.8297   3.8436   3.8484   3.8587
  3.8657   3.8853   3.8962   3.9082   3.9329   3.9366   3.9705   3.9780
  4.0007   4.0294   4.0634   4.0806   4.1152   4.1279   4.1518   4.1797
  4.1904   4.2099   4.2298   4.2511   4.2564   4.2878   4.3100   4.3372
  4.3565   4.3871   4.3930   4.4018   4.4096   4.4440   4.4551   4.4806
  4.5607   4.5655   4.5805   4.6191   4.6210   4.6454   4.6807   4.7059
  4.7416   4.7641   4.8106   4.8537   4.8725   4.8986   4.9366   5.0324
  5.0389   5.0618   5.0746   5.0850   5.0928   5.1388   5.1581   5.2088
  5.2173   5.2297   5.2448   5.2529   5.2661   5.2671   5.2831   5.2951
  5.3011   5.3143   5.3245   5.3258   5.3341   5.3568   5.3697   5.3801
  5.3898   5.3982   5.4051   5.4273   5.4343   5.4724   5.4906   5.4933
  5.5056   5.5461   5.5623   5.5678   5.6045   5.6089   5.6112   5.6342
  5.6405   5.6434   5.6582   5.6756   5.6788   5.7203   5.7338   5.7581
  5.7802   5.7982   5.8164   5.8527   5.9180   5.9726   6.0272   6.0355
  6.0464   6.0840   6.1036   6.1505   6.1578   6.2384   6.3832   6.4625
  6.4970   6.5783   6.5917   6.6969   6.7527   6.8143   6.8388   6.8529
  6.8681   6.9806   7.0142   7.0448   7.0685   7.0886   7.0968   7.1153
  7.1328   7.1648   7.1798   7.2216   7.2548   7.2683   7.2831   7.3065
  7.3092   7.3198   7.3271   7.3338   7.3726   7.3932   7.4021   7.4201
  7.4341   7.4611   7.4993   7.5133   7.5226   7.5910   7.6037   7.6712
  7.6900   7.7016   7.7534   7.7828   7.8294   7.8595   7.8668   7.8949
  7.9188   8.0134   8.0531   8.1035   8.2102  24.6410  24.7430  24.8092
 24.8605  50.4187  50.5013  50.5278  50.5952  50.6157  50.6291  50.6537
 50.6986
 
 Beta MOs
 -- Occupied --
-19.4541 -19.4068 -19.4056 -19.3996 -19.3633 -19.3614 -19.3486 -19.3476
-10.4708 -10.4660 -10.4495 -10.3554  -1.3222  -1.2786  -1.2125  -1.1912
 -1.1833  -1.1377  -1.0426  -0.9853  -0.9019  -0.8362  -0.7732  -0.7409
 -0.6913  -0.6674  -0.6564  -0.6523  -0.6223  -0.6168  -0.6021  -0.5805
 -0.5749  -0.5669  -0.5440  -0.5319  -0.5155  -0.4953  -0.4837  -0.4705
 -0.4651  -0.4560  -0.4355  -0.4329  -0.4177  -0.4038  -0.3894  -0.3859
 -- Virtual --
 -0.0376   0.0271   0.0369   0.0413   0.0428   0.0620   0.0646   0.0703
  0.0732   0.0918   0.0941   0.1126   0.1205   0.1255   0.1270   0.1361
  0.1469   0.1476   0.1529   0.1566   0.1627   0.1679   0.1743   0.1791
  0.1864   0.1870   0.1978   0.2106   0.2158   0.2304   0.2439   0.2474
  0.2540   0.2583   0.2622   0.2645   0.2713   0.2755   0.2837   0.2881
  0.2898   0.2928   0.3014   0.3039   0.3072   0.3201   0.3244   0.3315
  0.3367   0.3405   0.3473   0.3501   0.3601   0.3630   0.3647   0.3742
  0.3854   0.3868   0.3951   0.3961   0.4029   0.4056   0.4099   0.4166
  0.4238   0.4260   0.4316   0.4384   0.4483   0.4497   0.4639   0.4688
  0.4800   0.4824   0.4959   0.5073   0.5310   0.5462   0.5708   0.5873
  0.5934   0.6078   0.6173   0.6239   0.6388   0.6570   0.6621   0.6831
  0.6906   0.7021   0.7137   0.7143   0.7314   0.7344   0.7497   0.7568
  0.7637   0.7871   0.7982   0.8048   0.8259   0.8365   0.8580   0.8710
  0.8750   0.8896   0.9119   0.9373   0.9466   0.9763   0.9831   1.0073
  1.0331   1.0522   1.0641   1.0719   1.0742   1.0873   1.1006   1.1097
  1.1208   1.1326   1.1440   1.1554   1.1609   1.1657   1.1804   1.1866
  1.1906   1.2017   1.2069   1.2153   1.2178   1.2250   1.2289   1.2430
  1.2464   1.2595   1.2632   1.2841   1.2941   1.2955   1.3038   1.3112
  1.3267   1.3339   1.3533   1.3598   1.3791   1.3911   1.4005   1.4178
  1.4295   1.4417   1.4641   1.4766   1.4941   1.4960   1.5057   1.5217
  1.5300   1.5364   1.5475   1.5539   1.5715   1.5855   1.5965   1.6145
  1.6223   1.6417   1.6472   1.6582   1.6812   1.6866   1.6926   1.7172
  1.7184   1.7455   1.7698   1.7898   1.8027   1.8205   1.8411   1.8557
  1.8753   1.8934   1.9247   1.9379   1.9513   1.9745   1.9926   2.0024
  2.0286   2.0513   2.0623   2.0883   2.1094   2.1715   2.1763   2.2170
  2.2387   2.2478   2.2716   2.2874   2.2971   2.3244   2.3415   2.3602
  2.3771   2.3924   2.4005   2.4331   2.4532   2.4661   2.4821   2.4931
  2.5065   2.5297   2.5687   2.6076   2.6771   2.6808   2.7198   2.7531
  2.7836   2.7993   2.8401   2.8565   2.8798   2.8864   2.9274   2.9590
  2.9794   3.0095   3.0549   3.0801   3.0935   3.1392   3.1789   3.1990
  3.2215   3.2705   3.2837   3.2864   3.3233   3.3386   3.3703   3.4135
  3.4172   3.4435   3.4627   3.4784   3.5107   3.5362   3.5628   3.5727
  3.6155   3.6264   3.6442   3.6578   3.6694   3.6863   3.7192   3.7266
  3.7356   3.7529   3.7700   3.8156   3.8216   3.8298   3.8438   3.8489
  3.8589   3.8660   3.8854   3.8964   3.9083   3.9331   3.9367   3.9706
  3.9782   4.0008   4.0296   4.0635   4.0807   4.1158   4.1281   4.1523
  4.1797   4.1905   4.2104   4.2300   4.2514   4.2565   4.2881   4.3102
  4.3377   4.3567   4.3879   4.3932   4.4021   4.4098   4.4466   4.4555
  4.4810   4.5646   4.5662   4.5874   4.6203   4.6321   4.6552   4.6846
  4.7089   4.7513   4.7685   4.8174   4.8692   4.8763   4.9097   4.9401
  5.0342   5.0492   5.0668   5.1289   5.1359   5.1438   5.1725   5.1950
  5.2127   5.2204   5.2499   5.2530   5.2558   5.2682   5.2850   5.2867
  5.3016   5.3036   5.3230   5.3270   5.3327   5.3423   5.3580   5.3712
  5.3828   5.3989   5.4058   5.4163   5.4320   5.4379   5.4757   5.4935
  5.4958   5.5106   5.5467   5.5644   5.5732   5.6058   5.6113   5.6235
  5.6343   5.6429   5.6475   5.6590   5.6773   5.6804   5.7208   5.7415
  5.7596   5.7806   5.8101   5.8168   5.8531   5.9186   5.9739   6.0289
  6.0399   6.0467   6.0843   6.1052   6.1507   6.1578   6.2385   6.3957
  6.4955   6.5108   6.5831   6.5994   6.7076   6.7528   6.8154   6.8528
  6.9195   6.9502   7.0144   7.0279   7.0556   7.0749   7.0896   7.1007
  7.1336   7.1405   7.1699   7.2013   7.2461   7.2627   7.2685   7.2841
  7.3100   7.3145   7.3212   7.3317   7.3419   7.3764   7.4069   7.4153
  7.4219   7.4373   7.4704   7.5068   7.5167   7.5387   7.5927   7.6041
  7.6712   7.6912   7.7031   7.7601   7.7830   7.8303   7.8614   7.8730
  7.8957   7.9188   8.0137   8.0657   8.1225   8.2102  24.6409  24.7429
 24.8092  24.8605  50.4320  50.5013  50.5353  50.5961  50.6161  50.6291
 50.6540  50.6987
 --------------------------------------------------------------
 
          Ground-State Mulliken Net Atomic Charges

     Atom                 Charge (a.u.)    Spin (a.u.)
  --------------------------------------------------------
      1 C                    -0.127772      -0.002833
      2 O                    -0.421448      -0.000093
      3 C                     0.186211       0.002813
      4 O                    -0.399187       0.001221
      5 C                    -0.643652      -0.004792
      6 C                    -0.128331       0.007199
      7 O                     0.074672       0.288112
      8 H                     0.308805      -0.000043
      9 H                     0.338014      -0.000044
     10 H                     0.321858      -0.000899
     11 H                     0.294439       0.000368
     12 H                     0.330855       0.002502
     13 O                    -0.462140       0.000026
     14 H                     0.353972       0.000071
     15 O                    -0.140150       0.000326
     16 O                    -0.277054       0.000577
     17 H                     0.325057       0.001654
     18 H                     0.332014      -0.000414
     19 O                    -0.417690       0.006597
     20 H                     0.351329      -0.000133
     21 O                    -0.199801       0.697786
  --------------------------------------------------------
  Sum of atomic charges =     0.000000
  Sum of spin   charges =     1.000000

 -----------------------------------------------------------------
                    Cartesian Multipole Moments
 -----------------------------------------------------------------
    Charge (ESU x 10^10)
                 0.0000
    Dipole Moment (Debye)
         X      -0.0268      Y       3.8562      Z      -3.2904
       Tot       5.0692
    Quadrupole Moments (Debye-Ang)
        XX     -69.5119     XY       9.8422     YY     -78.0586
        XZ     -15.7704     YZ      -7.9012     ZZ     -76.9876
    Octopole Moments (Debye-Ang^2)
       XXX    -806.2587    XXY       3.3629    XYY    -321.3547
       YYY      63.9887    XXZ    -124.3466    XYZ     -38.3133
       YYZ     -18.3579    XZZ    -333.7711    YZZ      -6.4503
       ZZZ    -137.1939
    Hexadecapole Moments (Debye-Ang^3)
      XXXX   -6989.7795   XXXY    -410.7052   XXYY   -1646.9568
      XYYY      25.6019   YYYY    -892.9850   XXXZ   -1118.4397
      XXYZ    -284.2827   XYYZ    -178.7159   YYYZ    -265.2262
      XXZZ   -1718.7914   XYZZ    -119.6407   YYZZ    -354.6432
      XZZZ    -767.7717   YZZZ    -292.6869   ZZZZ   -1055.7041
 -----------------------------------------------------------------
 Calculating analytic gradient of the SCF energy
 Gradient of CDS energy
            1           2           3           4           5           6
    1  -0.0025330   0.0017195  -0.0018633   0.0019828  -0.0000514   0.0020163
    2  -0.0013254  -0.0014826  -0.0008109   0.0008451   0.0000199   0.0052510
    3  -0.0002514   0.0003484   0.0027326  -0.0029948  -0.0000518  -0.0006641
            7           8           9          10          11          12
    1   0.0001244   0.0002481  -0.0003880  -0.0001733   0.0000706  -0.0000631
    2   0.0001035  -0.0000256   0.0002149  -0.0000132  -0.0000501  -0.0001199
    3  -0.0000197   0.0000084  -0.0002668   0.0000723  -0.0001249   0.0001325
           13          14          15          16          17          18
    1   0.0010454  -0.0002780  -0.0000607  -0.0002976  -0.0001466   0.0004795
    2   0.0027916  -0.0003690  -0.0000135  -0.0000263  -0.0000824  -0.0000893
    3  -0.0001310   0.0001805  -0.0000882   0.0001009   0.0004190  -0.0001346
           19          20          21
    1  -0.0017066  -0.0000789  -0.0000461
    2  -0.0052780   0.0004748  -0.0000149
    3   0.0007174  -0.0000240   0.0000393
 Gradient of SCF Energy
            1           2           3           4           5           6
    1  -0.0022057   0.0031095   0.0030703  -0.0068790   0.0039585  -0.0176848
    2   0.0015466   0.0017919   0.0020864  -0.0056535  -0.0126980   0.0088921
    3   0.0053570   0.0144979  -0.0009196  -0.0066108   0.0129032   0.0006702
            7           8           9          10          11          12
    1   0.0016308   0.0017020  -0.0050090  -0.0067951   0.0060361   0.0122395
    2   0.0012432   0.0048324  -0.0007418   0.0095543   0.0027108  -0.0102541
    3  -0.0008205  -0.0064793  -0.0140613   0.0022899  -0.0119705  -0.0039232
           13          14          15          16          17          18
    1   0.0032741  -0.0033801  -0.0037566  -0.0137670   0.0039423   0.0166327
    2  -0.0060683   0.0002218  -0.0041566  -0.0110257   0.0039943   0.0113610
    3  -0.0030837   0.0023682   0.0027081  -0.0096982   0.0079547   0.0059218
           19          20          21
    1   0.0194097  -0.0168642   0.0013359
    2  -0.0095256   0.0110850   0.0008039
    3   0.0060718  -0.0049646   0.0017890
 Max gradient component =       1.941E-02
 RMS gradient           =       7.992E-03
 Computing fast CPCM-SWIG gradient
 Updating gradient with PCM contributions...
 -- total gradient after adding PCM contribution --
---------------------------------------------------
  Atom         X              Y              Z     
---------------------------------------------------
   1       0.000967       0.000656       0.000150
   2       0.000279       0.000065      -0.000100
   3       0.000615       0.000238      -0.000985
   4      -0.001716      -0.000904       0.000292
   5      -0.000166       0.000420      -0.000221
   6       0.000755       0.001167      -0.000318
   7      -0.001153       0.000044      -0.000886
   8      -0.000244       0.000349      -0.000227
   9      -0.000646      -0.000184      -0.000468
  10      -0.000017       0.000099      -0.000167
  11       0.000039      -0.000169       0.000287
  12      -0.000076      -0.000107       0.000050
  13      -0.000446      -0.000850      -0.000804
  14      -0.000579      -0.000420       0.001007
  15      -0.001036      -0.000121       0.001453
  16       0.001054       0.000208      -0.001216
  17       0.000164      -0.000044       0.000949
  18       0.000957      -0.000499      -0.000811
  19       0.000278      -0.000862      -0.000036
  20      -0.000597       0.000666       0.000027
  21       0.001569       0.000246       0.002021
---------------------------------------------------
 Number of fixed atoms: 0
 Gradient time:  CPU 624.87 s  wall 52.95 s
 Geometry Optimization Parameters
   NAtoms,    NIC,     NZ,  NCons,   NDum,   NFix, NCnnct, MaxDiis
       21     139       0       0       0       0       0       0

 Cartesian Hessian Update
 Hessian updated using BFGS update


** GEOMETRY OPTIMIZATION IN DELOCALIZED INTERNAL COORDINATES **
   Searching for a Minimum

   Optimization Cycle:   2

                       Coordinates (Angstroms)
     ATOM                X               Y               Z
      1  C         2.6754642744   -1.0090428503   -1.0836045953
      2  O         1.6011483506   -0.1025884575   -1.1464881265
      3  C         3.5154179731   -0.6226272816    0.1446516006
      4  O         2.7445137993   -0.9450575391    1.2634841179
      5  C         3.9652231328    0.8334017995    0.0783657119
      6  C         5.0346742434    1.2350797571    1.0703671287
      7  O         4.4289910679    1.0756442024    2.4109387731
      8  H         3.2840034340   -0.9477995353   -1.9829240069
      9  H         1.1571828939   -0.2279339864   -1.9938963129
     10  H         3.0949071857    1.4762987194    0.2095363656
     11  H         4.3736628471    1.0282333381   -0.9119068111
     12  H         5.9124312920    0.5953594503    1.0722643907
     13  O         2.2304066240   -2.3397243288   -0.9958426290
     14  H         1.7954983013   -2.4565725682   -0.1390297654
     15  O         4.6376408758   -1.5227047319    0.2469953269
     16  O         5.4481907341   -1.3937520466   -0.9265809307
     17  H         3.1302105103   -0.5508055218    2.0576948143
     18  H         6.2572743203   -0.9889644921   -0.5796270541
     19  O         5.4604025166    2.5429046431    0.9196495955
     20  H         4.6968425664    3.1146918868    0.7582566003
     21  O         5.3308971572    1.1365921429    3.3527687065
   Point Group: c1    Number of degrees of freedom:    57


   Energy is   -759.490091967

 Hessian updated using BFGS update

 54 Hessian modes will be used to form the next step
  Hessian Eigenvalues:
     0.004161    0.004353    0.004951    0.005581    0.007114    0.010334
     0.014485    0.014899    0.015967    0.017708    0.036109    0.049400
     0.050286    0.052419    0.058411    0.061214    0.063067    0.063379
     0.087993    0.092123    0.096752    0.097221    0.125113    0.153842
     0.168961    0.171022    0.183372    0.185972    0.189421    0.205876
     0.207768    0.231885    0.249490    0.263581    0.289611    0.294304
     0.303990    0.336832    0.342980    0.344534    0.346208    0.347930
     0.386438    0.392326    0.442259    0.447322    0.456627    0.483610
     0.501616    0.523502    0.525111    0.525399    0.529676    0.628642

 Minimum search - taking simple RFO step
 Searching for Lamda that Minimizes Along All modes
 Value Taken    Lamda =  -0.00054620
 Step Taken.  Stepsize is  0.258475

                             Maximum     Tolerance    Cnvgd?
         Gradient           0.002900      0.000300      NO
         Displacement       0.140809      0.001200      NO
         Energy change     -0.000781      0.000001      NO


 New Cartesian Coordinates Obtained by Inverse Iteration

 Displacement from previous Coordinates is:  0.503438
 ----------------------------------------------------------------
             Standard Nuclear Orientation (Angstroms)
    I     Atom           X                Y                Z
 ----------------------------------------------------------------
    1      C       2.6770913461    -1.0170675980    -1.0791814979
    2      O       1.6037979266    -0.1112175843    -1.1536490782
    3      C       3.5084349296    -0.6262466073     0.1520914354
    4      O       2.7361455497    -0.9328408396     1.2712993988
    5      C       3.9651188112     0.8235481884     0.0730898294
    6      C       5.0435625762     1.2139396578     1.0547925616
    7      O       4.4417407922     1.0629747016     2.3959624051
    8      H       3.2931355175    -0.9575251883    -1.9713947739
    9      H       1.1732292516    -0.2270962036    -2.0060711378
   10      H       3.1024344014     1.4726529523     0.2102740006
   11      H       4.3662847918     1.0114119253    -0.9201331839
   12      H       5.9129631713     0.5650738060     1.0532042634
   13      O       2.2326687345    -2.3464095506    -0.9936184978
   14      H       1.7890976466    -2.4690461291    -0.1457632188
   15      O       4.6274934050    -1.5257942828     0.2703986284
   16      O       5.4680563212    -1.3713339544    -0.8722925540
   17      H       3.1142549528    -0.5270662260     2.0595949913
   18      H       6.1616009431    -0.7873502573    -0.5375275747
   19      O       5.4812080297     2.5174242370     0.8995025259
   20      H       4.7282354223     3.0972646036     0.7347875643
   21      O       5.3484295796     1.0653369492     3.3297068129
 ----------------------------------------------------------------
 Nuclear Repulsion Energy =         840.67225573 hartrees
 There are       49 alpha and       48 beta electrons
 Discretize the solute cavity surface with Lebedev spheres
	Using 110 Lebedev grid points for each H atom
	Using 194 Lebedev grid points for other atoms
	Atomic van der Waals radii will be scaled by 1.20
 Remove points where switching function is < 1.0e-08
 Keep 1634 surface tesserae and discard 1684 interior tesserae
 Molecular Surface Area = 179.209 Angst**2
 Applying Cartesian multipole field
    Component          Value
    ---------          -----
     (2,0,0)        1.00000E-12
     (0,2,0)        2.00000E-11
     (0,0,2)       -3.00000E-11
 Nucleus-field energy     =    -0.0000000023 hartrees
 Requested basis set is 6-311++G(2df,2p)
 There are 150 shells and 498 basis functions
 A cutoff of  1.0D-12 yielded   9694 shell pairs
 There are    104753 function pairs (    130061 Cartesian)
 Smallest overlap matrix eigenvalue = 3.91E-06
 Guess MOs from SCF MO coefficient file

 -----------------------------------------------------------------------
  General SCF calculation program by
  Eric Jon Sundstrom, Paul Horn, Yuezhi Mao, Dmitri Zuev, Alec White,
  David Stuck, Shaama M.S., Shane Yost, Joonho Lee, David Small,
  Daniel Levine, Susi Lehtola, Hugh Burton, Evgeny Epifanovsky,
  Bang C. Huynh
 -----------------------------------------------------------------------
 Exchange:     0.1500 Hartree-Fock + 1.0000 wB97M-V + LR-HF
 Correlation:  1.0000 wB97M-V
 Using SG-2 standard quadrature grid
 Nonlocal Correlation:  VV10 with C = 0.0100 and b = 6.00 and scale = 1.00000
 Grid used for NLC:  SG-1 standard quadrature
 
 Citation of the SMD model:
 Marenich, A.V.; Cramer, C.J.; Truhlar, D.G.
 J. Phys. Chem. B 2009, 113, 6378-6396.
 iSolventCode=           1
 Solvent: water                                                           
 
 vradii
            1           2           3           4           5           6
    1   1.8500000   1.5200000   1.8500000   1.5200000   1.8500000   1.8500000
            7           8           9          10          11          12
    1   1.5200000   1.2000000   1.2000000   1.2000000   1.2000000   1.2000000
           13          14          15          16          17          18
    1   1.5200000   1.2000000   1.5200000   1.5200000   1.2000000   1.2000000
           19          20          21
    1   1.5200000   1.2000000   1.5200000
 -------------------------------------------------------
 OpenMP BLAS3 based DFT computing Module                
 Release: version 1.0, May 2013, Q-Chem Inc. Pittsburgh 
 -------------------------------------------------------
 A unrestricted SCF calculation will be
 performed using Roothaan-Hall, DIIS, GDM
 SCF converges when RMS gradient is below 1.0e-07
 ---------------------------------------
  Cycle       Energy         DIIS error
 ---------------------------------------
    1    -759.4247920182      3.43e-04  Roothaan Step
 ---------------------------------------
  Cycle       Energy         DIIS error
 ---------------------------------------
    1    -759.4819910884      2.70e-04  
    2    -759.4901478511      2.27e-04  Done DIIS. Switching to GDM
 ---------------------------------------
  Cycle       Energy        RMS Gradient
 ---------------------------------------
    1    -759.4901478511      1.98e-02   Normal BFGS step
    2    -759.4887773699      3.31e-02  Line search: overstep
    3    -759.4943662633      5.39e-03   Normal BFGS step
    4    -759.4946206240      1.46e-03   Normal BFGS step
    5    -759.4947182586      1.21e-03   Normal BFGS step
    6    -759.4947283253      1.03e-03   Normal BFGS step
    7    -759.4947318768      9.31e-04   Normal BFGS step
    8    -759.4947344837      7.39e-04   Normal BFGS step
    9    -759.4947361820      4.80e-04   Normal BFGS step
   10    -759.4947371418      2.67e-04   Normal BFGS step
   11    -759.4947378292      2.17e-04   Normal BFGS step
   12    -759.4947381215      6.80e-05   Normal BFGS step
   13    -759.4947381870      2.63e-05   Normal BFGS step
   14    -759.4947382010      1.21e-05   Normal BFGS step
   15    -759.4947382034      5.79e-06   Normal BFGS step
   16    -759.4947382044      2.96e-06   Normal BFGS step
   17    -759.4947382045      9.92e-07   Normal BFGS step
   18    -759.4947382046      2.49e-07   Normal BFGS step
   19    -759.4947382046      1.44e-07   Normal BFGS step
   20    -759.4947382045      6.40e-08  Convergence criterion met
 ---------------------------------------
 SCF time:   CPU 4949.48s  wall 347.00s 
<S^2> =          0.753829035
(3)  G-ENP(liq) elect-nuc-pol free energy of system     -759.494738204 a.u.
(4)  G-CDS(liq) cavity-dispersion-solvent structure 
     free energy                                                3.3026 kcal/mol
(6)  G-S(liq) free energy of system                     -759.489475099 a.u.
 SCF   energy in the final basis set =     -759.4894750989
 Total energy in the final basis set =     -759.4894750989
 
 --------------------------------------------------------------
 
                    Orbital Energies (a.u.)
 --------------------------------------------------------------
 
 Alpha MOs
 -- Occupied --
-19.4647 -19.4251 -19.4082 -19.4013 -19.3639 -19.3610 -19.3484 -19.3474
-10.4704 -10.4671 -10.4493 -10.3554  -1.3512  -1.2836  -1.2136  -1.1948
 -1.1849  -1.1386  -1.0434  -1.0168  -0.9097  -0.8416  -0.7786  -0.7432
 -0.6963  -0.6794  -0.6645  -0.6552  -0.6424  -0.6249  -0.6136  -0.5892
 -0.5822  -0.5762  -0.5536  -0.5458  -0.5322  -0.5002  -0.4874  -0.4744
 -0.4661  -0.4577  -0.4405  -0.4326  -0.4155  -0.4095  -0.4046  -0.4014
 -0.3934
 -- Virtual --
  0.0270   0.0370   0.0412   0.0429   0.0619   0.0642   0.0709   0.0736
  0.0909   0.0954   0.1122   0.1199   0.1261   0.1265   0.1354   0.1463
  0.1474   0.1525   0.1553   0.1603   0.1667   0.1732   0.1783   0.1843
  0.1863   0.1967   0.2101   0.2156   0.2267   0.2409   0.2452   0.2527
  0.2573   0.2585   0.2680   0.2725   0.2755   0.2831   0.2874   0.2901
  0.2922   0.2993   0.3041   0.3081   0.3201   0.3236   0.3312   0.3353
  0.3408   0.3459   0.3496   0.3583   0.3613   0.3640   0.3745   0.3850
  0.3866   0.3944   0.3957   0.3995   0.4058   0.4087   0.4189   0.4227
  0.4283   0.4306   0.4385   0.4451   0.4503   0.4656   0.4660   0.4823
  0.4871   0.4909   0.5059   0.5279   0.5441   0.5709   0.5850   0.5895
  0.6080   0.6218   0.6289   0.6427   0.6516   0.6591   0.6820   0.6903
  0.7076   0.7100   0.7147   0.7240   0.7368   0.7474   0.7578   0.7636
  0.7791   0.7956   0.8017   0.8166   0.8367   0.8605   0.8684   0.8752
  0.9023   0.9137   0.9355   0.9657   0.9746   0.9958   1.0098   1.0281
  1.0435   1.0622   1.0684   1.0702   1.0848   1.1000   1.1046   1.1169
  1.1300   1.1402   1.1497   1.1575   1.1642   1.1745   1.1844   1.1900
  1.1956   1.2051   1.2119   1.2164   1.2237   1.2249   1.2355   1.2432
  1.2549   1.2668   1.2794   1.2867   1.2953   1.3002   1.3084   1.3246
  1.3326   1.3539   1.3584   1.3879   1.3930   1.4032   1.4198   1.4244
  1.4467   1.4584   1.4735   1.4919   1.4985   1.5115   1.5173   1.5268
  1.5358   1.5405   1.5631   1.5684   1.5856   1.5946   1.6106   1.6244
  1.6335   1.6420   1.6609   1.6800   1.6880   1.6924   1.7097   1.7157
  1.7393   1.7641   1.7873   1.8018   1.8236   1.8470   1.8588   1.8730
  1.8891   1.9253   1.9412   1.9638   1.9733   1.9950   2.0089   2.0293
  2.0449   2.0654   2.0868   2.1174   2.1712   2.1811   2.2118   2.2352
  2.2474   2.2638   2.2828   2.3047   2.3223   2.3416   2.3586   2.3736
  2.3938   2.3984   2.4375   2.4514   2.4583   2.4811   2.4932   2.5145
  2.5333   2.5636   2.6064   2.6746   2.6796   2.7182   2.7540   2.7989
  2.8149   2.8425   2.8524   2.8777   2.8883   2.9333   2.9588   2.9871
  3.0076   3.0573   3.0847   3.1088   3.1390   3.1803   3.2048   3.2299
  3.2714   3.2858   3.2933   3.3250   3.3415   3.3880   3.4127   3.4207
  3.4459   3.4623   3.4806   3.5138   3.5420   3.5659   3.5748   3.6175
  3.6250   3.6434   3.6595   3.6719   3.6880   3.7163   3.7288   3.7385
  3.7507   3.7701   3.8168   3.8228   3.8306   3.8449   3.8516   3.8610
  3.8699   3.8910   3.9056   3.9206   3.9353   3.9422   3.9624   3.9762
  4.0135   4.0606   4.0712   4.0890   4.1269   4.1323   4.1566   4.1857
  4.1912   4.2128   4.2331   4.2591   4.2642   4.2907   4.3158   4.3457
  4.3613   4.3915   4.3983   4.4099   4.4128   4.4534   4.4596   4.4912
  4.5630   4.5697   4.5865   4.6241   4.6334   4.6520   4.6848   4.7180
  4.7458   4.7724   4.8051   4.8545   4.8829   4.8990   4.9296   5.0247
  5.0448   5.0566   5.0764   5.0845   5.0958   5.1436   5.1589   5.2101
  5.2205   5.2307   5.2418   5.2522   5.2678   5.2695   5.2801   5.2986
  5.3014   5.3139   5.3239   5.3300   5.3424   5.3549   5.3742   5.3821
  5.3911   5.4010   5.4088   5.4326   5.4419   5.4794   5.4898   5.4920
  5.5095   5.5450   5.5665   5.5709   5.5960   5.6139   5.6178   5.6291
  5.6443   5.6485   5.6647   5.6821   5.6891   5.7246   5.7410   5.7631
  5.7965   5.8018   5.8219   5.8575   5.9183   5.9784   6.0328   6.0442
  6.0579   6.0946   6.1101   6.1560   6.1631   6.2537   6.3902   6.4776
  6.5081   6.5863   6.6035   6.6985   6.7571   6.8249   6.8385   6.8657
  6.8728   6.9843   7.0227   7.0500   7.0719   7.0906   7.0974   7.1181
  7.1371   7.1648   7.1869   7.2255   7.2660   7.2782   7.2926   7.3153
  7.3186   7.3287   7.3311   7.3429   7.3774   7.4000   7.4067   7.4252
  7.4433   7.4675   7.5030   7.5057   7.5227   7.5904   7.6123   7.6728
  7.6917   7.7027   7.7581   7.7853   7.8302   7.8633   7.8718   7.8964
  7.9185   8.0226   8.0569   8.1164   8.2107  24.6463  24.7532  24.8203
 24.8716  50.4232  50.5037  50.5331  50.5980  50.6176  50.6304  50.6554
 50.7017
 
 Beta MOs
 -- Occupied --
-19.4552 -19.4082 -19.4057 -19.4013 -19.3636 -19.3610 -19.3484 -19.3474
-10.4704 -10.4675 -10.4493 -10.3554  -1.3256  -1.2835  -1.2135  -1.1925
 -1.1847  -1.1386  -1.0434  -0.9869  -0.9043  -0.8376  -0.7752  -0.7429
 -0.6954  -0.6688  -0.6589  -0.6527  -0.6252  -0.6178  -0.6034  -0.5804
 -0.5779  -0.5688  -0.5440  -0.5324  -0.5182  -0.4965  -0.4843  -0.4721
 -0.4635  -0.4560  -0.4390  -0.4324  -0.4153  -0.4052  -0.3937  -0.3858
 -- Virtual --
 -0.0373   0.0271   0.0373   0.0414   0.0433   0.0620   0.0645   0.0711
  0.0737   0.0912   0.0956   0.1132   0.1204   0.1262   0.1275   0.1362
  0.1476   0.1482   0.1528   0.1565   0.1623   0.1672   0.1736   0.1794
  0.1856   0.1866   0.1973   0.2108   0.2163   0.2286   0.2425   0.2466
  0.2545   0.2595   0.2623   0.2702   0.2748   0.2763   0.2840   0.2882
  0.2909   0.2932   0.3018   0.3048   0.3096   0.3210   0.3243   0.3321
  0.3374   0.3421   0.3466   0.3499   0.3585   0.3617   0.3646   0.3750
  0.3858   0.3869   0.3949   0.3964   0.4000   0.4062   0.4092   0.4199
  0.4238   0.4297   0.4325   0.4392   0.4452   0.4510   0.4659   0.4670
  0.4827   0.4876   0.4913   0.5063   0.5293   0.5455   0.5712   0.5858
  0.5900   0.6088   0.6219   0.6290   0.6427   0.6520   0.6600   0.6825
  0.6906   0.7078   0.7103   0.7151   0.7245   0.7369   0.7485   0.7582
  0.7636   0.7794   0.7961   0.8022   0.8170   0.8375   0.8608   0.8691
  0.8755   0.9027   0.9141   0.9360   0.9660   0.9753   0.9967   1.0104
  1.0290   1.0440   1.0632   1.0693   1.0721   1.0873   1.1018   1.1058
  1.1185   1.1327   1.1427   1.1588   1.1607   1.1672   1.1820   1.1856
  1.1916   1.2006   1.2083   1.2170   1.2186   1.2255   1.2287   1.2380
  1.2453   1.2611   1.2691   1.2809   1.2906   1.2977   1.3013   1.3124
  1.3284   1.3359   1.3578   1.3592   1.3894   1.3934   1.4045   1.4220
  1.4271   1.4488   1.4602   1.4748   1.4926   1.5000   1.5128   1.5200
  1.5282   1.5404   1.5434   1.5666   1.5716   1.5886   1.6001   1.6153
  1.6271   1.6424   1.6457   1.6638   1.6860   1.6885   1.6960   1.7160
  1.7212   1.7437   1.7686   1.7918   1.8051   1.8248   1.8516   1.8644
  1.8756   1.8923   1.9300   1.9439   1.9657   1.9738   1.9959   2.0107
  2.0315   2.0488   2.0662   2.0899   2.1184   2.1742   2.1843   2.2151
  2.2401   2.2509   2.2716   2.2858   2.3085   2.3280   2.3450   2.3607
  2.3797   2.3948   2.3996   2.4408   2.4524   2.4588   2.4831   2.4935
  2.5156   2.5341   2.5637   2.6073   2.6754   2.6833   2.7228   2.7550
  2.7990   2.8154   2.8427   2.8526   2.8779   2.8887   2.9336   2.9591
  2.9875   3.0080   3.0574   3.0852   3.1090   3.1394   3.1804   3.2050
  3.2301   3.2718   3.2860   3.2944   3.3257   3.3416   3.3881   3.4127
  3.4210   3.4461   3.4626   3.4808   3.5138   3.5421   3.5660   3.5749
  3.6177   3.6250   3.6435   3.6596   3.6718   3.6880   3.7165   3.7289
  3.7382   3.7509   3.7712   3.8172   3.8230   3.8307   3.8450   3.8520
  3.8612   3.8702   3.8911   3.9058   3.9205   3.9356   3.9423   3.9624
  3.9765   4.0137   4.0607   4.0714   4.0892   4.1271   4.1328   4.1571
  4.1858   4.1914   4.2133   4.2332   4.2592   4.2644   4.2910   4.3160
  4.3461   4.3615   4.3923   4.3985   4.4100   4.4130   4.4560   4.4601
  4.4915   4.5672   4.5705   4.5944   4.6259   4.6470   4.6593   4.6881
  4.7208   4.7554   4.7752   4.8124   4.8729   4.8849   4.9069   4.9353
  5.0276   5.0507   5.0657   5.1292   5.1357   5.1481   5.1752   5.1975
  5.2134   5.2242   5.2436   5.2533   5.2555   5.2706   5.2810   5.2897
  5.3014   5.3069   5.3252   5.3287   5.3336   5.3510   5.3574   5.3762
  5.3866   5.4018   5.4081   5.4169   5.4376   5.4468   5.4815   5.4904
  5.4972   5.5134   5.5456   5.5672   5.5768   5.5974   5.6150   5.6285
  5.6327   5.6477   5.6520   5.6655   5.6826   5.6912   5.7250   5.7487
  5.7645   5.7980   5.8129   5.8222   5.8580   5.9190   5.9799   6.0366
  6.0465   6.0583   6.0948   6.1117   6.1563   6.1631   6.2538   6.4027
  6.5071   6.5257   6.5888   6.6139   6.7094   6.7572   6.8261   6.8690
  6.9185   6.9521   7.0230   7.0303   7.0624   7.0770   7.0912   7.1021
  7.1397   7.1403   7.1709   7.2093   7.2539   7.2695   7.2785   7.2938
  7.3194   7.3236   7.3304   7.3389   7.3478   7.3834   7.4142   7.4178
  7.4293   7.4444   7.4744   7.5049   7.5120   7.5419   7.5920   7.6128
  7.6729   7.6927   7.7045   7.7646   7.7855   7.8315   7.8639   7.8790
  7.8970   7.9185   8.0229   8.0700   8.1351   8.2107  24.6463  24.7531
 24.8202  24.8715  50.4365  50.5037  50.5406  50.5989  50.6180  50.6305
 50.6556  50.7017
 --------------------------------------------------------------
 
          Ground-State Mulliken Net Atomic Charges

     Atom                 Charge (a.u.)    Spin (a.u.)
  --------------------------------------------------------
      1 C                    -0.123812      -0.003141
      2 O                    -0.420178      -0.000096
      3 C                     0.201630       0.003246
      4 O                    -0.397276       0.001401
      5 C                    -0.711514      -0.005423
      6 C                    -0.089399       0.008160
      7 O                     0.082327       0.287954
      8 H                     0.309385      -0.000053
      9 H                     0.338001      -0.000045
     10 H                     0.326452      -0.000857
     11 H                     0.314482       0.000271
     12 H                     0.322608       0.002119
     13 O                    -0.461512       0.000028
     14 H                     0.353191       0.000063
     15 O                    -0.147251       0.000341
     16 O                    -0.277082       0.000610
     17 H                     0.323399       0.001727
     18 H                     0.328328      -0.000628
     19 O                    -0.419427       0.007174
     20 H                     0.351480      -0.000251
     21 O                    -0.203832       0.697399
  --------------------------------------------------------
  Sum of atomic charges =     0.000000
  Sum of spin   charges =     1.000000

 -----------------------------------------------------------------
                    Cartesian Multipole Moments
 -----------------------------------------------------------------
    Charge (ESU x 10^10)
                 0.0000
    Dipole Moment (Debye)
         X      -0.3548      Y       4.3340      Z      -3.3357
       Tot       5.4806
    Quadrupole Moments (Debye-Ang)
        XX     -73.5439     XY      13.1672     YY     -77.9847
        XZ     -15.8649     YZ      -7.5107     ZZ     -76.5107
    Octopole Moments (Debye-Ang^2)
       XXX    -844.0399    XXY      26.3875    XYY    -322.3909
       YYY      66.6878    XXZ    -123.5726    XYZ     -36.6872
       YYZ     -18.0303    XZZ    -332.2151    YZZ      -4.3851
       ZZZ    -136.6051
    Hexadecapole Moments (Debye-Ang^3)
      XXXX   -7311.6181   XXXY    -254.6998   XXYY   -1657.4461
      XYYY      41.6504   YYYY    -873.5784   XXXZ   -1107.6525
      XXYZ    -275.4267   XYYZ    -175.5780   YYYZ    -253.9130
      XXZZ   -1713.2485   XYZZ    -110.1309   YYZZ    -347.0533
      XZZZ    -766.4406   YZZZ    -277.5012   ZZZZ   -1036.4004
 -----------------------------------------------------------------
 Calculating analytic gradient of the SCF energy
 Gradient of CDS energy
            1           2           3           4           5           6
    1  -0.0027419   0.0018160  -0.0020028   0.0021184  -0.0000441   0.0020529
    2  -0.0016166  -0.0015635  -0.0008259   0.0008544   0.0000205   0.0052601
    3  -0.0002595   0.0003722   0.0029312  -0.0031842  -0.0000523  -0.0006594
            7           8           9          10          11          12
    1   0.0001278   0.0002459  -0.0003835  -0.0001725   0.0000651  -0.0000726
    2   0.0000935  -0.0000191   0.0002179  -0.0000112  -0.0000532  -0.0001206
    3  -0.0000243   0.0000125  -0.0002717   0.0000747  -0.0001156   0.0000975
           13          14          15          16          17          18
    1   0.0011563  -0.0002784  -0.0000402  -0.0002855  -0.0001491   0.0004724
    2   0.0031525  -0.0003694  -0.0000145  -0.0000489  -0.0000734  -0.0000643
    3  -0.0001477   0.0001770  -0.0000779   0.0000835   0.0004175  -0.0001251
           19          20          21
    1  -0.0017641  -0.0000732  -0.0000468
    2  -0.0052798   0.0004765  -0.0000150
    3   0.0007383  -0.0000263   0.0000398
 Gradient of SCF Energy
            1           2           3           4           5           6
    1  -0.0036820   0.0022258   0.0066229  -0.0032299   0.0036397  -0.0165591
    2   0.0015481   0.0005276   0.0027776  -0.0036258  -0.0140763   0.0052581
    3   0.0045595   0.0120864  -0.0009133  -0.0048345   0.0151690  -0.0003341
[...]
    3  -0.0001923  -0.0065622  -0.0141345   0.0024591  -0.0129374  -0.0037260
           13          14          15          16          17          18
    1   0.0036212  -0.0027415  -0.0027065  -0.0142517   0.0036292   0.0151690
    2  -0.0052179   0.0006866  -0.0040697  -0.0125364   0.0043161   0.0128243
    3  -0.0022122   0.0012935   0.0012436  -0.0080441   0.0066449   0.0061235
           19          20          21
    1   0.0191137  -0.0162526  -0.0002094
    2  -0.0086731   0.0106029   0.0005018
    3   0.0070253  -0.0058068  -0.0001118
 Max gradient component =       1.911E-02
 RMS gradient           =       8.023E-03
 Computing fast CPCM-SWIG gradient
 Updating gradient with PCM contributions...
 -- total gradient after adding PCM contribution --
---------------------------------------------------
  Atom         X              Y              Z     
---------------------------------------------------
   1      -0.000006      -0.000005       0.000015
   2      -0.000001       0.000012       0.000026
   3      -0.000024       0.000012       0.000025
   4       0.000005      -0.000006      -0.000013
   5      -0.000008       0.000023      -0.000007
   6      -0.000018      -0.000037       0.000013
   7       0.000027       0.000010      -0.000024
   8      -0.000006       0.000003      -0.000001
   9      -0.000023      -0.000005       0.000010
  10      -0.000002      -0.000004       0.000002
  11      -0.000001      -0.000005      -0.000008
  12       0.000004      -0.000007      -0.000020
  13      -0.000012      -0.000004       0.000003
  14      -0.000006      -0.000002       0.000028
  15       0.000029      -0.000004      -0.000041
  16      -0.000037      -0.000015       0.000007
  17       0.000013      -0.000002       0.000012
  18       0.000007       0.000001      -0.000015
  19       0.000022       0.000026       0.000003
  20      -0.000001       0.000003      -0.000021
  21       0.000036       0.000004       0.000007
---------------------------------------------------
 Number of fixed atoms: 0
 Gradient time:  CPU 573.43 s  wall 48.02 s
 Geometry Optimization Parameters
   NAtoms,    NIC,     NZ,  NCons,   NDum,   NFix, NCnnct, MaxDiis
       21     139       0       0       0       0       0       0

 Cartesian Hessian Update
 Hessian updated using BFGS update


** GEOMETRY OPTIMIZATION IN DELOCALIZED INTERNAL COORDINATES **
   Searching for a Minimum

   Optimization Cycle:  10

                       Coordinates (Angstroms)
     ATOM                X               Y               Z
      1  C         2.6734104870   -1.0133856500   -1.0766569455
      2  O         1.5952869242   -0.1112565256   -1.1267776265
      3  C         3.5203067944   -0.6271265149    0.1453714037
      4  O         2.7624164900   -0.9461054092    1.2708409184
      5  C         3.9689066851    0.8280209597    0.0743522565
      6  C         5.0310537016    1.2266255546    1.0734320097
      7  O         4.4072660002    1.0787743093    2.4056014887
      8  H         3.2768019537   -0.9475885302   -1.9788978699
      9  H         1.1746574978   -0.1997028163   -1.9896658454
     10  H         3.0976799036    1.4695721825    0.2056325120
     11  H         4.3780789325    1.0238573820   -0.9157464423
     12  H         5.9043191156    0.5811961322    1.0913972435
     13  O         2.2378731862   -2.3458737295   -0.9889839985
     14  H         1.8024608400   -2.4635069195   -0.1338814168
     15  O         4.6443130406   -1.5265058954    0.2403613145
     16  O         5.4489935152   -1.3958181788   -0.9319290447
     17  H         3.1354363428   -0.5189244255    2.0528136427
     18  H         6.2314219733   -0.9317708259   -0.5992041394
     19  O         5.4699525297    2.5308557342    0.9223722115
     20  H         4.7160056750    3.1039201626    0.7289699261
     21  O         5.2983425115    1.1153756037    3.3556713018
   Point Group: c1    Number of degrees of freedom:    57


   Energy is   -759.490227428

 Hessian updated using BFGS update

 57 Hessian modes will be used to form the next step
  Hessian Eigenvalues:
     0.003044    0.004388    0.004999    0.006817    0.007693    0.010090
     0.014857    0.015487    0.017321    0.020238    0.042604    0.050615
     0.052473    0.057990    0.058412    0.063123    0.063782    0.067504
     0.087927    0.092217    0.096764    0.112804    0.126676    0.159575
     0.159942    0.160058    0.166736    0.175413    0.184220    0.186423
     0.191850    0.201265    0.206392    0.241367    0.244384    0.264233
     0.292513    0.301669    0.318857    0.336786    0.342773    0.344820
     0.345558    0.349106    0.365102    0.390693    0.441687    0.442565
     0.456265    0.460982    0.482446    0.508371    0.524983    0.525531
     0.525717    0.529889    0.630691

 Minimum search - taking simple RFO step
 Searching for Lamda that Minimizes Along All modes
 Value Taken    Lamda =  -0.00000007
 Step Taken.  Stepsize is  0.002254

                             Maximum     Tolerance    Cnvgd?
         Gradient           0.000030      0.000300     YES
         Displacement       0.000787      0.001200     YES
         Energy change     -0.000000      0.000001     YES

 Final energy is   -759.490227427804     


 ******************************
 **  OPTIMIZATION CONVERGED  **
 ******************************

                       Coordinates (Angstroms)
     ATOM                X               Y               Z
      1  C         2.6734104870   -1.0133856500   -1.0766569455
      2  O         1.5952869242   -0.1112565256   -1.1267776265
      3  C         3.5203067944   -0.6271265149    0.1453714037
      4  O         2.7624164900   -0.9461054092    1.2708409184
      5  C         3.9689066851    0.8280209597    0.0743522565
      6  C         5.0310537016    1.2266255546    1.0734320097
      7  O         4.4072660002    1.0787743093    2.4056014887
      8  H         3.2768019537   -0.9475885302   -1.9788978699
      9  H         1.1746574978   -0.1997028163   -1.9896658454
     10  H         3.0976799036    1.4695721825    0.2056325120
     11  H         4.3780789325    1.0238573820   -0.9157464423
     12  H         5.9043191156    0.5811961322    1.0913972435
     13  O         2.2378731862   -2.3458737295   -0.9889839985
     14  H         1.8024608400   -2.4635069195   -0.1338814168
     15  O         4.6443130406   -1.5265058954    0.2403613145
     16  O         5.4489935152   -1.3958181788   -0.9319290447
     17  H         3.1354363428   -0.5189244255    2.0528136427
     18  H         6.2314219733   -0.9317708259   -0.5992041394
     19  O         5.4699525297    2.5308557342    0.9223722115
     20  H         4.7160056750    3.1039201626    0.7289699261
     21  O         5.2983425115    1.1153756037    3.3556713018

Z-matrix Print:
$molecule
0 2
O 
O  1 1.427885
H  2 0.968628 1 102.535846
C  1 1.442670 2 109.144583 3 107.813961 0
O  4 1.393853 1 103.167757 2 174.470312 0
H  5 0.965976 4 110.027675 1 80.150578 0
C  4 1.524382 1 111.646932 2 -61.984544 0
H  7 1.089068 4 108.939701 1 74.124621 0
H  7 1.089889 4 108.726479 1 -168.766703 0
C  7 1.511689 4 115.320747 1 -45.934732 0
H  10 1.086045 7 114.783594 4 51.513691 0
O  10 1.384365 7 113.519483 4 176.225870 0
H  12 0.966563 10 109.457214 7 40.552367 0
O  10 1.478393 7 105.825157 4 -64.219017 0
O  14 1.303069 10 111.447394 7 166.309043 0
C  4 1.536158 1 108.975103 2 61.516641 0
H  16 1.087405 4 109.811031 1 -59.603040 0
O  16 1.404601 4 111.089766 1 57.741305 0
H  18 0.966758 16 108.077004 4 52.789293 0
O  16 1.406663 4 106.835897 1 -179.959165 0
H  20 0.964017 16 107.907076 4 166.777413 0
$end

 
 --------------------------------------------------------------
 
                    Orbital Energies (a.u.)
 --------------------------------------------------------------
 
 Alpha MOs
 -- Occupied --
-19.4643 -19.4251 -19.4064 -19.3995 -19.3636 -19.3611 -19.3487 -19.3474
-10.4700 -10.4657 -10.4491 -10.3554  -1.3499  -1.2803  -1.2131  -1.1937
 -1.1842  -1.1383  -1.0419  -1.0164  -0.9075  -0.8402  -0.7771  -0.7419
 -0.6933  -0.6781  -0.6630  -0.6554  -0.6408  -0.6237  -0.6124  -0.5893
 -0.5800  -0.5756  -0.5520  -0.5461  -0.5316  -0.4987  -0.4863  -0.4725
 -0.4655  -0.4590  -0.4384  -0.4337  -0.4160  -0.4093  -0.4045  -0.4002
 -0.3907
 -- Virtual --
  0.0270   0.0368   0.0412   0.0426   0.0619   0.0644   0.0703   0.0733
  0.0914   0.0945   0.1119   0.1203   0.1261   0.1264   0.1354   0.1460
  0.1476   0.1524   0.1551   0.1610   0.1671   0.1736   0.1781   0.1846
  0.1871   0.1971   0.2109   0.2155   0.2286   0.2420   0.2463   0.2526
  0.2560   0.2581   0.2662   0.2694   0.2745   0.2829   0.2879   0.2893
  0.2924   0.2994   0.3046   0.3060   0.3201   0.3236   0.3302   0.3357
  0.3395   0.3462   0.3498   0.3598   0.3630   0.3657   0.3740   0.3847
  0.3867   0.3945   0.3961   0.4026   0.4047   0.4087   0.4166   0.4227
  0.4250   0.4297   0.4377   0.4471   0.4497   0.4645   0.4674   0.4805
  0.4874   0.4938   0.5066   0.5294   0.5435   0.5701   0.5863   0.5933
  0.6073   0.6192   0.6251   0.6394   0.6559   0.6604   0.6842   0.6897
  0.7032   0.7109   0.7169   0.7298   0.7352   0.7494   0.7572   0.7620
  0.7861   0.7969   0.8042   0.8237   0.8392   0.8590   0.8679   0.8769
  0.9009   0.9086   0.9353   0.9508   0.9783   0.9858   1.0064   1.0293
  1.0485   1.0634   1.0691   1.0716   1.0852   1.1020   1.1078   1.1177
  1.1321   1.1420   1.1493   1.1575   1.1641   1.1737   1.1863   1.1899
  1.1973   1.2036   1.2111   1.2158   1.2237   1.2262   1.2356   1.2432
  1.2532   1.2651   1.2821   1.2896   1.2954   1.3040   1.3081   1.3215
  1.3317   1.3523   1.3553   1.3794   1.3911   1.4004   1.4198   1.4244
  1.4402   1.4608   1.4751   1.4937   1.4986   1.5035   1.5192   1.5303
  1.5353   1.5418   1.5555   1.5692   1.5823   1.5915   1.6112   1.6244
  1.6303   1.6487   1.6553   1.6789   1.6853   1.6913   1.7060   1.7162
  1.7414   1.7646   1.7851   1.8042   1.8203   1.8392   1.8558   1.8742
  1.8913   1.9214   1.9378   1.9510   1.9773   1.9938   2.0102   2.0287
  2.0467   2.0645   2.0861   2.1127   2.1722   2.1782   2.2147   2.2370
  2.2483   2.2631   2.2851   2.2967   2.3221   2.3430   2.3572   2.3759
  2.3934   2.4023   2.4309   2.4509   2.4653   2.4809   2.4938   2.5087
  2.5320   2.5626   2.6030   2.6761   2.6821   2.7148   2.7559   2.7906
  2.8031   2.8416   2.8592   2.8785   2.8913   2.9283   2.9549   2.9799
  3.0074   3.0573   3.0815   3.0992   3.1395   3.1778   3.2019   3.2227
  3.2732   3.2860   3.2876   3.3244   3.3415   3.3748   3.4145   3.4192
  3.4457   3.4644   3.4828   3.5126   3.5378   3.5624   3.5730   3.6153
  3.6271   3.6471   3.6564   3.6710   3.6871   3.7182   3.7280   3.7388
  3.7525   3.7698   3.8161   3.8218   3.8318   3.8438   3.8491   3.8596
  3.8711   3.8847   3.9039   3.9101   3.9335   3.9378   3.9693   3.9785
  4.0070   4.0357   4.0668   4.0812   4.1161   4.1311   4.1535   4.1804
  4.1908   4.2129   4.2295   4.2535   4.2580   4.2893   4.3104   4.3396
  4.3583   4.3896   4.3945   4.4037   4.4104   4.4436   4.4588   4.4837
  4.5617   4.5687   4.5826   4.6209   4.6271   4.6464   4.6833   4.7119
  4.7451   4.7684   4.8101   4.8550   4.8739   4.9014   4.9369   5.0293
  5.0421   5.0583   5.0754   5.0845   5.0950   5.1403   5.1586   5.2116
  5.2198   5.2299   5.2448   5.2554   5.2663   5.2708   5.2816   5.2990
  5.3021   5.3164   5.3240   5.3283   5.3344   5.3590   5.3725   5.3806
  5.3908   5.3986   5.4034   5.4300   5.4379   5.4734   5.4919   5.4941
  5.5099   5.5473   5.5602   5.5674   5.6006   5.6124   5.6131   5.6323
  5.6422   5.6443   5.6618   5.6772   5.6833   5.7241   5.7370   5.7603
  5.7860   5.7991   5.8158   5.8521   5.9200   5.9749   6.0295   6.0382
  6.0547   6.0915   6.1071   6.1554   6.1650   6.2504   6.3885   6.4717
  6.5016   6.5836   6.5982   6.6959   6.7561   6.8205   6.8383   6.8652
  6.8710   6.9867   7.0178   7.0469   7.0699   7.0867   7.0999   7.1180
  7.1332   7.1633   7.1833   7.2230   7.2546   7.2721   7.2866   7.3095
  7.3128   7.3236   7.3308   7.3397   7.3756   7.3973   7.4026   7.4237
  7.4388   7.4699   7.5022   7.5142   7.5226   7.5920   7.6096   7.6714
  7.6901   7.7021   7.7555   7.7850   7.8319   7.8609   7.8700   7.8961
  7.9193   8.0202   8.0561   8.1115   8.2074  24.6421  24.7471  24.8133
 24.8671  50.4212  50.5011  50.5300  50.5975  50.6163  50.6297  50.6551
 50.7025
 
 Beta MOs
 -- Occupied --
-19.4548 -19.4064 -19.4057 -19.3995 -19.3633 -19.3610 -19.3487 -19.3474
-10.4700 -10.4661 -10.4491 -10.3554  -1.3243  -1.2803  -1.2131  -1.1914
 -1.1841  -1.1383  -1.0418  -0.9862  -0.9022  -0.8363  -0.7737  -0.7416
 -0.6926  -0.6678  -0.6572  -0.6524  -0.6227  -0.6170  -0.6032  -0.5808
 -0.5757  -0.5678  -0.5442  -0.5319  -0.5165  -0.4957  -0.4830  -0.4702
 -0.4639  -0.4563  -0.4371  -0.4336  -0.4157  -0.4039  -0.3907  -0.3859
 -- Virtual --
 -0.0376   0.0271   0.0371   0.0414   0.0429   0.0620   0.0648   0.0705
  0.0735   0.0917   0.0947   0.1129   0.1208   0.1262   0.1275   0.1363
  0.1476   0.1480   0.1526   0.1566   0.1627   0.1677   0.1740   0.1793
  0.1859   0.1873   0.1977   0.2118   0.2161   0.2305   0.2437   0.2477
  0.2541   0.2590   0.2619   0.2668   0.2720   0.2763   0.2838   0.2884
  0.2901   0.2934   0.3021   0.3051   0.3073   0.3211   0.3244   0.3313
  0.3377   0.3407   0.3469   0.3501   0.3601   0.3631   0.3663   0.3745
  0.3854   0.3869   0.3954   0.3964   0.4031   0.4052   0.4091   0.4174
  0.4236   0.4267   0.4319   0.4382   0.4471   0.4503   0.4652   0.4680
  0.4809   0.4880   0.4941   0.5072   0.5309   0.5448   0.5704   0.5870
  0.5938   0.6080   0.6192   0.6251   0.6394   0.6564   0.6613   0.6846
  0.6899   0.7036   0.7110   0.7174   0.7300   0.7355   0.7503   0.7577
  0.7620   0.7863   0.7973   0.8048   0.8241   0.8400   0.8592   0.8686
  0.8771   0.9012   0.9091   0.9358   0.9511   0.9792   0.9868   1.0069
  1.0298   1.0495   1.0643   1.0695   1.0740   1.0879   1.1037   1.1092
  1.1196   1.1343   1.1440   1.1585   1.1600   1.1671   1.1820   1.1882
  1.1912   1.2018   1.2068   1.2166   1.2174   1.2268   1.2286   1.2399
  1.2455   1.2600   1.2658   1.2844   1.2932   1.2975   1.3053   1.3109
  1.3273   1.3339   1.3539   1.3570   1.3817   1.3914   1.4017   1.4207
  1.4286   1.4420   1.4627   1.4760   1.4946   1.4992   1.5060   1.5211
  1.5311   1.5395   1.5462   1.5571   1.5720   1.5871   1.5973   1.6169
  1.6257   1.6413   1.6498   1.6586   1.6830   1.6882   1.6932   1.7158
  1.7215   1.7446   1.7694   1.7888   1.8078   1.8211   1.8439   1.8614
  1.8767   1.8944   1.9264   1.9408   1.9519   1.9780   1.9944   2.0121
  2.0313   2.0509   2.0655   2.0891   2.1137   2.1754   2.1814   2.2184
  2.2425   2.2504   2.2715   2.2881   2.3011   2.3276   2.3464   2.3595
  2.3814   2.3948   2.4027   2.4346   2.4520   2.4658   2.4826   2.4941
  2.5098   2.5327   2.5629   2.6039   2.6773   2.6851   2.7200   2.7568
  2.7909   2.8033   2.8419   2.8595   2.8788   2.8916   2.9285   2.9553
  2.9803   3.0078   3.0575   3.0819   3.0994   3.1399   3.1780   3.2021
  3.2229   3.2738   3.2861   3.2884   3.3253   3.3417   3.3748   3.4146
  3.4195   3.4459   3.4646   3.4831   3.5127   3.5379   3.5626   3.5730
  3.6153   3.6272   3.6471   3.6564   3.6710   3.6871   3.7184   3.7280
  3.7387   3.7528   3.7709   3.8163   3.8219   3.8318   3.8440   3.8497
  3.8599   3.8712   3.8848   3.9041   3.9101   3.9337   3.9379   3.9694
  3.9787   4.0071   4.0360   4.0670   4.0813   4.1166   4.1314   4.1540
  4.1804   4.1910   4.2133   4.2297   4.2537   4.2582   4.2897   4.3106
  4.3400   4.3586   4.3905   4.3947   4.4039   4.4105   4.4463   4.4591
  4.4841   4.5655   4.5698   4.5894   4.6225   4.6376   4.6566   4.6873
  4.7146   4.7545   4.7724   4.8172   4.8715   4.8770   4.9118   4.9406
  5.0313   5.0509   5.0650   5.1296   5.1356   5.1450   5.1738   5.1967
  5.2159   5.2226   5.2487   5.2534   5.2575   5.2694   5.2830   5.2901
  5.3032   5.3071   5.3248   5.3261   5.3332   5.3454   5.3607   5.3742
  5.3843   5.3997   5.4062   5.4144   5.4369   5.4392   5.4765   5.4924
  5.5002   5.5133   5.5481   5.5608   5.5740   5.6016   5.6132   5.6273
  5.6325   5.6432   5.6499   5.6624   5.6787   5.6847   5.7247   5.7450
  5.7617   5.7864   5.8111   5.8161   5.8525   5.9206   5.9763   6.0331
  6.0406   6.0550   6.0919   6.1087   6.1557   6.1651   6.2505   6.4009
  6.5007   6.5196   6.5868   6.6076   6.7064   6.7561   6.8218   6.8672
  6.9186   6.9514   7.0181   7.0321   7.0580   7.0767   7.0877   7.1040
  7.1356   7.1415   7.1687   7.2052   7.2475   7.2620   7.2724   7.2877
  7.3140   7.3182   7.3243   7.3376   7.3459   7.3803   7.4110   7.4163
  7.4261   7.4407   7.4769   7.5106   7.5162   7.5402   7.5939   7.6102
  7.6714   7.6916   7.7035   7.7621   7.7851   7.8331   7.8617   7.8767
  7.8972   7.9193   8.0205   8.0690   8.1303   8.2074  24.6420  24.7469
 24.8133  24.8671  50.4345  50.5011  50.5374  50.5985  50.6167  50.6297
 50.6553  50.7025
 --------------------------------------------------------------
 
          Ground-State Mulliken Net Atomic Charges

     Atom                 Charge (a.u.)    Spin (a.u.)
  --------------------------------------------------------
      1 C                    -0.131436      -0.002937
      2 O                    -0.420939      -0.000101
      3 C                     0.195662       0.003227
      4 O                    -0.399840       0.001485
      5 C                    -0.657769      -0.005448
      6 C                    -0.119038       0.008083
      7 O                     0.080174       0.286795
      8 H                     0.307942      -0.000043
      9 H                     0.337045      -0.000045
     10 H                     0.325788      -0.000894
     11 H                     0.296235       0.000350
     12 H                     0.327771       0.002292
     13 O                    -0.460632       0.000033
     14 H                     0.353861       0.000072
     15 O                    -0.141532       0.000246
     16 O                    -0.280495       0.000555
     17 H                     0.323713       0.001764
     18 H                     0.332923      -0.000434
     19 O                    -0.419679       0.006880
     20 H                     0.350738      -0.000207
     21 O                    -0.200492       0.698326
  --------------------------------------------------------
  Sum of atomic charges =     0.000000
  Sum of spin   charges =     1.000000

 -----------------------------------------------------------------
                    Cartesian Multipole Moments
 -----------------------------------------------------------------
    Charge (ESU x 10^10)
                 0.0000
    Dipole Moment (Debye)
         X      -0.0531      Y       4.1571      Z      -3.4438
       Tot       5.3985
    Quadrupole Moments (Debye-Ang)
        XX     -70.1751     XY      11.3583     YY     -78.2917
        XZ     -16.2545     YZ      -8.0721     ZZ     -76.9137
    Octopole Moments (Debye-Ang^2)
       XXX    -812.8496    XXY      12.9542    XYY    -322.3216
       YYY      65.5395    XXZ    -125.4004    XYZ     -38.5881
       YYZ     -19.0634    XZZ    -332.9455    YZZ      -5.3256
       ZZZ    -138.0042
    Hexadecapole Moments (Debye-Ang^3)
      XXXX   -7041.8746   XXXY    -346.7465   XXYY   -1650.8747
      XYYY      36.1704   YYYY    -890.4525   XXXZ   -1115.1344
      XXYZ    -284.4663   XYYZ    -179.7833   YYYZ    -265.7836
      XXZZ   -1711.4091   XYZZ    -114.8081   YYZZ    -354.5628
      XZZZ    -765.2760   YZZZ    -290.1784   ZZZZ   -1053.6634
 -----------------------------------------------------------------
 Total job time:  3890.38s(wall), 54317.59s(cpu) 
 Tue Jun 25 07:02:53 2024

        *************************************************************
        *                                                           *
        *  Thank you very much for using Q-Chem.  Have a nice day.  *
        *                                                           *
        *************************************************************


