
Running Job 1 of 1 Q_in.in
qchem Q_in.in_368357.0 /scratch/ari.fischer/qChem1499917.hpc-mn1/qchem368357/ 0
/usr/local/qchem-5.4.1/exe/qcprog.exe_s Q_in.in_368357.0 /scratch/ari.fischer/qChem1499917.hpc-mn1/qchem368357/
                  Welcome to Q-Chem
     A Quantum Leap Into The Future Of Chemistry


 Q-Chem 5.4, Q-Chem, Inc., Pleasanton, CA (2021)

 License issued to: Nanyang Technological University (site)

 E. Epifanovsky,  A. T. B. Gilbert,  Xintian Feng,  Joonho Lee,  Yuezhi Mao,  
 N. Mardirossian,  P. Pokhilko,  A. White,  M. Wormit,  M. P. Coons,  
 A. L. Dempwolff,  Zhengting Gan,  D. Hait,  P. R. Horn,  L. D. Jacobson,  
 I. Kaliman,  J. Kussmann,  A. W. Lange,  Ka Un Lao,  D. S. Levine,  Jie Liu,  
 S. C. McKenzie,  A. F. Morrison,  K. Nanda,  F. Plasser,  D. R. Rehn,  
 M. L. Vidal,  Zhi-Qiang You,  Ying Zhu,  B. Alam,  B. Albrecht,  
 A. Aldossary,  E. Alguire,  J. H. Andersen,  D. Barton,  K. Begam,  A. Behn,  
 Y. A. Bernard,  E. J. Berquist,  H. Burton,  A. Carreras,  K. Carter-Fenk,  
 R. Chakraborty,  A. D. Chien,  K. D. Closser,  V. Cofer-Shabica,  
 S. Dasgupta,  Jia Deng,  M. de Wergifosse,  M. Diedenhofen,  Hainam Do,  
 S. Ehlert,  Po-Tung Fang,  S. Fatehi,  Qingguo Feng,  T. Friedhoff,  
 J. Gayvert,  Qinghui Ge,  G. Gidofalvi,  M. Goldey,  J. Gomes,  
 C. Gonzalez-Espinoza,  S. Gulania,  A. Gunina,  M. W. D. Hanson-Heine,  
 P. H. P. Harbach,  A. W. Hauser,  M. F. Herbst,  M. Hernandez Vera,  
 M. Hodecker,  Z. C. Holden,  S. Houck,  Xunkun Huang,  Kerwin Hui,  
 B. C. Huynh,  M. Ivanov,  Hyunjun Ji,  Hanjie Jiang,  B. Kaduk,  S. Kaehler,  
 K. Khistyaev,  Jaehoon Kim,  P. Klunzinger,  Z. Koczor-Benda,  
 Joong Hoon Koh,  D. Kosenkov,  L. Koulias,  T. Kowalczyk,  C. M. Krauter,  
 K. Kue,  A. Kunitsa,  T. Kus,  A. Landau,  K. V. Lawler,  D. Lefrancois,  
 S. Lehtola,  Rain Li,  Yi-Pei Li,  Jiashu Liang,  M. Liebenthal,  
 Hung-Hsuan Lin,  You-Sheng Lin,  Fenglai Liu,  Kuan-Yu Liu,  
 M. Loipersberger,  A. Luenser,  A. Manjanath,  P. Manohar,  E. Mansoor,  
 S. F. Manzer,  Shan-Ping Mao,  A. V. Marenich,  T. Markovich,  S. Mason,  
 S. A. Maurer,  P. F. McLaughlin,  M. F. S. J. Menger,  J.-M. Mewes,  
 S. A. Mewes,  P. Morgante,  J. W. Mullinax,  K. J. Oosterbaan,  G. Paran,  
 Alexander C. Paul,  Suranjan K. Paul,  F. Pavosevic,  Zheng Pei,  S. Prager,  
 E. I. Proynov,  E. Ramos,  B. Rana,  A. E. Rask,  A. Rettig,  R. M. Richard,  
 F. Rob,  E. Rossomme,  T. Scheele,  M. Scheurer,  M. Schneider,  
 N. Sergueev,  S. M. Sharada,  W. Skomorowski,  D. W. Small,  C. J. Stein,  
 Yu-Chuan Su,  E. J. Sundstrom,  Zhen Tao,  J. Thirman,  T. Tsuchimochi,  
 N. M. Tubman,  S. P. Veccham,  O. Vydrov,  J. Wenzel,  J. Witte,  A. Yamada,  
 Kun Yao,  S. Yeganeh,  S. R. Yost,  A. Zech,  Igor Ying Zhang,  Xing Zhang,  
 Yu Zhang,  D. Zuev,  A. Aspuru-Guzik,  A. T. Bell,  N. A. Besley,  
 K. B. Bravaya,  B. R. Brooks,  D. Casanova,  Jeng-Da Chai,  S. Coriani,  
 C. J. Cramer,  A. E. DePrince, III,  R. A. DiStasio Jr.,  A. Dreuw,  
 B. D. Dunietz,  T. R. Furlani,  W. A. Goddard III,  S. Grimme,  
 S. Hammes-Schiffer,  T. Head-Gordon,  W. J. Hehre,  Chao-Ping Hsu,  
 T.-C. Jagau,  Yousung Jung,  A. Klamt,  Jing Kong,  D. S. Lambrecht,  
 WanZhen Liang,  N. J. Mayhall,  C. W. McCurdy,  J. B. Neaton,  
 C. Ochsenfeld,  J. A. Parkhill,  R. Peverati,  V. A. Rassolov,  Yihan Shao,  
 L. V. Slipchenko,  T. Stauch,  R. P. Steele,  J. E. Subotnik,  
 A. J. W. Thom,  A. Tkatchenko,  D. G. Truhlar,  T. Van Voorhis,  
 T. A. Wesolowski,  K. B. Whaley,  H. L. Woodcock III,  P. M. Zimmerman,  
 S. Faraji,  P. M. W. Gill,  M. Head-Gordon,  J. M. Herbert,  A. I. Krylov

 Additional authors for Version 5.4.1: 
 S. Kotaru,  Shaozhi Li,  Xiangyuan Li,  F. Matz,  A. Molle,  Haisheng Ren,  
 Yingli Su,  Hung-Yi Tsai,  C. Utku,  Fang Wang

 Contributors to earlier versions of Q-Chem not listed above: 
 R. D. Adamson,  B. Austin,  R. Baer,  J. Baker,  G. J. O. Beran,  
 K. Brandhorst,  S. T. Brown,  E. F. C. Byrd,  A. K. Chakraborty,  
 G. K. L. Chan,  Chun-Min Chang,  Yunqing Chen,  C.-L. Cheng,  
 Siu Hung Chien,  D. M. Chipman,  D. L. Crittenden,  H. Dachsel,  
 R. J. Doerksen,  A. D. Dutoi,  R. G. Edgar,  J. Fosso-Tande,  
 L. Fusti-Molnar,  D. Ghosh,  A. Ghysels,  A. Golubeva-Zadorozhnaya,  
 J. Gonthier,  M. S. Gordon,  S. R. Gwaltney,  G. Hawkins,  J. E. Herr,  
 A. Heyden,  S. Hirata,  E. G. Hohenstein,  G. Kedziora,  F. J. Keil,  
 C. Kelley,  Jihan Kim,  R. A. King,  R. Z. Khaliullin,  P. P. Korambath,  
 W. Kurlancheek,  A. Laurent,  A. M. Lee,  M. S. Lee,  S. V. Levchenko,  
 Ching Yeh Lin,  D. Liotard,  E. Livshits,  R. C. Lochan,  I. Lotan,  
 L. A. Martinez-Martinez,  P. E. Maslen,  N. Nair,  D. P. O'Neill,  
 D. Neuhauser,  E. Neuscamman,  C. M. Oana,  R. Olivares-Amaya,  R. Olson,  
 T. M. Perrine,  B. Peters,  P. A. Pieniazek,  A. Prociuk,  Y. M. Rhee,  
 J. Ritchie,  M. A. Rohrdanz,  E. Rosta,  N. J. Russ,  H. F. Schaefer III,  
 M. W. Schmidt,  N. E. Schultz,  S. Sharma,  N. Shenvi,  C. D. Sherrill,  
 A. C. Simmonett,  A. Sodt,  T. Stein,  D. Stuck,  K. S. Thanthiriwatte,  
 V. Vanovschi,  L. Vogt,  Tao Wang,  A. Warshel,  M. A. Watson,  
 C. F. Williams,  Q. Wu,  X. Xu,  Jun Yang,  W. Zhang,  Yan Zhao

 Please cite Q-Chem as follows:
 Y. Shao et al., Mol. Phys. 113, 184-215 (2015)
 DOI: 10.1080/00268976.2014.952696

 Q-Chem 5.4.1 for Intel X86 EM64T Linux

 Parts of Q-Chem use Armadillo 9.800.1 (Horizon Scraper).
 http://arma.sourceforge.net/

 Q-Chem begins on Wed Mar 22 22:34:56 2023  

 Host: 
0

     Scratch files written to /scratch/ari.fischer/qChem1499917.hpc-mn1/qchem368357//
 Aug1521 |scratch|qcdevops|jenkins|workspace|build_RNUM 8249   
 Processing $rem in /usr/local/qchem-5.4.1/config/preferences:
 Processing $rem in /home/ari.fischer/.qchemrc:
 Symmetry turned off for PCM/SM12/SMD calculation


!!********************************************.
!!******************Warning*******************.
!!Desired Analytical derivatives not available.
!!Finite difference job might take a long time.
!!********************************************.
!!********************************************.


 2-order derivative to be evaluated numerically with 1-order analytical derivatives

 Checking the input file for inconsistencies... 	...done.

--------------------------------------------------------------
User input:
--------------------------------------------------------------
$molecule
0 2
C        -0.0568356492   -0.1801173299    0.7839561656
C        -0.9336704908   -0.9288542812    1.7786576951
C        -1.6592052976   -2.0810597334    1.1557228011
C        -2.1053357374   -1.9179068089   -0.1807021767
C        -1.8627520303   -0.7573216707   -0.8328734045
C        -1.1860001578    0.3675646524   -0.0926538726
C        -0.7506077486    1.5244436730   -0.9765877714
H         0.4366724422    0.6503542526    1.2931750506
H        -0.4356447956   -1.1836102491    2.7105129536
H        -2.1272375654   -2.8030467055    1.8063544442
H        -2.6582729886   -2.7158575081   -0.6579934610
H        -2.1993408579   -0.5902815838   -1.8483187585
H        -1.5928206027    1.9105668195   -1.5516844845
O         0.3031476718    1.0981623067   -1.8359580131
H        -0.3532527975    2.3189143809   -0.3487471884
H        -0.0771529609    0.6097360498   -2.5745451856
O         0.8697055113   -0.9990204351    0.1147548499
H         1.1839282639   -0.4887909012   -0.6449141874
O        -1.8920052880    0.0955374897    2.1149862072
O        -2.0818973491    0.8980881610    0.9022111722
O        -0.0324700635   -3.5309342104    1.0688758163
O         0.3020323573   -3.8931640246    2.1882178170
$end

$rem
BASIS = 6-311++G(2df,2p)
GUI = 2
JOB_TYPE = Frequency
METHOD = wB97M-V
SOLVENT_METHOD = SMD
SCF_ALGORITHM = DIIS_GDM
MAX_SCF_CYCLES = 400
SCF_CONVERGENCE = 7
THRESH = 12
UNRESTRICTED = 1
SYMMETRY_IGNORE = 1
$end
--------------------------------------------------------------
 ----------------------------------------------------------------
             Standard Nuclear Orientation (Angstroms)
    I     Atom           X                Y                Z
 ----------------------------------------------------------------
    1      C      -0.0568356492    -0.1801173299     0.7839561656
    2      C      -0.9336704908    -0.9288542812     1.7786576951
    3      C      -1.6592052976    -2.0810597334     1.1557228011
    4      C      -2.1053357374    -1.9179068089    -0.1807021767
    5      C      -1.8627520303    -0.7573216707    -0.8328734045
    6      C      -1.1860001578     0.3675646524    -0.0926538726
    7      C      -0.7506077486     1.5244436730    -0.9765877714
    8      H       0.4366724422     0.6503542526     1.2931750506
    9      H      -0.4356447956    -1.1836102491     2.7105129536
   10      H      -2.1272375654    -2.8030467055     1.8063544442
   11      H      -2.6582729886    -2.7158575081    -0.6579934610
   12      H      -2.1993408579    -0.5902815838    -1.8483187585
   13      H      -1.5928206027     1.9105668195    -1.5516844845
   14      O       0.3031476718     1.0981623067    -1.8359580131
   15      H      -0.3532527975     2.3189143809    -0.3487471884
   16      H      -0.0771529609     0.6097360498    -2.5745451856
   17      O       0.8697055113    -0.9990204351     0.1147548499
   18      H       1.1839282639    -0.4887909012    -0.6449141874
   19      O      -1.8920052880     0.0955374897     2.1149862072
   20      O      -2.0818973491     0.8980881610     0.9022111722
   21      O      -0.0324700635    -3.5309342104     1.0688758163
   22      O       0.3020323573    -3.8931640246     2.1882178170
 ----------------------------------------------------------------
 Nuclear Repulsion Energy =         886.76612869 hartrees
 There are       50 alpha and       49 beta electrons
 Requested basis set is 6-311++G(2df,2p)
 There are 158 shells and 532 basis functions

 Total QAlloc Memory Limit 288000 MB
 Mega-Array Size       188 MB
 MEM_STATIC part       192 MB
 
 Citation of the SMD model:
 Marenich, A.V.; Cramer, C.J.; Truhlar, D.G.
 J. Phys. Chem. B 2009, 113, 6378-6396.
 iSolventCode=           1
 Solvent: water                                                           
 
 vradii
            1           2           3           4           5           6
    1   1.8500000   1.8500000   1.8500000   1.8500000   1.8500000   1.8500000
            7           8           9          10          11          12
    1   1.8500000   1.2000000   1.2000000   1.2000000   1.2000000   1.2000000
           13          14          15          16          17          18
    1   1.2000000   1.5200000   1.2000000   1.2000000   1.5200000   1.2000000
           19          20          21          22
    1   1.5200000   1.5200000   1.5200000   1.5200000
 Changing PCM_VDW_RADII to SMD_RADIUS
 Discretize the solute cavity surface with Lebedev spheres
	Using 110 Lebedev grid points for each H atom
	Using 194 Lebedev grid points for other atoms
	Atomic van der Waals radii will be scaled by 1.20
 Remove points where switching function is < 1.0e-08
 Keep 1656 surface tesserae and discard 1856 interior tesserae
 Molecular Surface Area = 186.464 Angst**2
 A cutoff of  1.0D-12 yielded  10927 shell pairs
 There are    123756 function pairs (    154860 Cartesian)
 Smallest overlap matrix eigenvalue = 1.39E-06
 Guess from superposition of atomic densities
 Warning:  Energy on first SCF cycle will be non-variational
 SAD guess density has 99.000000 electrons

 -----------------------------------------------------------------------
  General SCF calculation program by
  Eric Jon Sundstrom, Paul Horn, Yuezhi Mao, Dmitri Zuev, Alec White,
  David Stuck, Shaama M.S., Shane Yost, Joonho Lee, David Small,
  Daniel Levine, Susi Lehtola, Hugh Burton, Evgeny Epifanovsky,
  Bang C. Huynh
 -----------------------------------------------------------------------
 Exchange:     0.1500 Hartree-Fock + 1.0000 wB97M-V + LR-HF
 Correlation:  1.0000 wB97M-V
 Using SG-2 standard quadrature grid
 Nonlocal Correlation:  VV10 with C = 0.0100 and b = 6.00 and scale = 1.00000
 Grid used for NLC:  SG-1 standard quadrature
 using 8 threads for integral computing
 -------------------------------------------------------
 OpenMP Integral computing Module                
 Release: version 1.0, May 2013, Q-Chem Inc. Pittsburgh 
 -------------------------------------------------------
 
 Citation of the SMD model:
 Marenich, A.V.; Cramer, C.J.; Truhlar, D.G.
 J. Phys. Chem. B 2009, 113, 6378-6396.
 iSolventCode=           1
 Solvent: water                                                           
 
 vradii
            1           2           3           4           5           6
    1   1.8500000   1.8500000   1.8500000   1.8500000   1.8500000   1.8500000
            7           8           9          10          11          12
    1   1.8500000   1.2000000   1.2000000   1.2000000   1.2000000   1.2000000
           13          14          15          16          17          18
    1   1.2000000   1.5200000   1.2000000   1.2000000   1.5200000   1.2000000
           19          20          21          22
    1   1.5200000   1.5200000   1.5200000   1.5200000
 -------------------------------------------------------
 OpenMP BLAS3 based DFT computing Module                
 Release: version 1.0, May 2013, Q-Chem Inc. Pittsburgh 
 -------------------------------------------------------
 A unrestricted SCF calculation will be
 performed using DIIS, GDM
 SCF converges when RMS gradient is below 1.0e-07
 ---------------------------------------
  Cycle       Energy         DIIS error
 ---------------------------------------
    1    -726.4067286692      1.08e-02  
    2    -723.0994849393      1.05e-03  Done DIIS. Switching to GDM
 ---------------------------------------
  Cycle       Energy        RMS Gradient
 ---------------------------------------
    1    -723.0994849393      6.13e-02   Descent step
    2    -723.2100409303      1.85e-02   Normal BFGS step
    3    -723.2285040468      3.06e-02   Normal BFGS step
    4    -723.2309282649      1.59e-02   Normal BFGS step
    5    -723.2323152272      1.54e-02   Normal BFGS step
    6    -723.2329141321      1.35e-02   Normal BFGS step
    7    -723.2341624358      1.81e-02   Normal BFGS step
    8    -723.2349248729      2.31e-02   Normal BFGS step
    9    -723.2366264716      2.66e-02   Normal BFGS step
   10    -723.2392135572      1.78e-02   Normal BFGS step
   11    -723.2397395646      1.02e-02   Normal BFGS step
   12    -723.2407224915      5.48e-03   Normal BFGS step
   13    -723.2408886648      2.89e-03   Normal BFGS step
   14    -723.2409455631      1.16e-03   Normal BFGS step
   15    -723.2409555997      5.61e-04   Normal BFGS step
   16    -723.2409573006      3.12e-04   Normal BFGS step
   17    -723.2409579538      2.29e-04   Normal BFGS step
   18    -723.2409581329      1.59e-04   Normal BFGS step
   19    -723.2409582244      6.83e-05   Normal BFGS step
   20    -723.2409582561      2.55e-05   Normal BFGS step
   21    -723.2409582653      9.88e-06   Normal BFGS step
   22    -723.2409582666      4.99e-06   Normal BFGS step
   23    -723.2409582669      2.65e-06   Normal BFGS step
   24    -723.2409582670      2.44e-06   Normal BFGS step
   25    -723.2409582671      1.30e-06   Normal BFGS step
   26    -723.2409582671      7.29e-07   Normal BFGS step
   27    -723.2409582670      2.43e-07   Normal BFGS step
   28    -723.2409582670      1.28e-07   Normal BFGS step
   29    -723.2409582673      3.16e-08  Convergence criterion met
 ---------------------------------------
 SCF time:   CPU 5923.34s  wall 752.00s 
<S^2> =          1.394001507
(3)  G-ENP(liq) elect-nuc-pol free energy of system     -723.240958267 a.u.
(4)  G-CDS(liq) cavity-dispersion-solvent structure 
     free energy                                                2.6913 kcal/mol
(6)  G-S(liq) free energy of system                     -723.236669437 a.u.
 SCF   energy in the final basis set =     -723.2366694365
 Total energy in the final basis set =     -723.2366694365
 
 --------------------------------------------------------------
 
                    Orbital Energies (a.u.)
 --------------------------------------------------------------
 
 Alpha MOs
 -- Occupied --
-19.4751 -19.4466 -19.4072 -19.4054 -19.3490 -19.3454 -10.4164 -10.4125
-10.4075 -10.3951 -10.3720 -10.3573 -10.3562  -1.3956  -1.2733  -1.1755
 -1.1624  -1.0713  -0.9773  -0.9431  -0.8912  -0.8526  -0.8080  -0.7519
 -0.7126  -0.6861  -0.6651  -0.6472  -0.6441  -0.6375  -0.6250  -0.6090
 -0.5875  -0.5775  -0.5645  -0.5514  -0.5323  -0.5240  -0.5182  -0.4952
 -0.4840  -0.4620  -0.4507  -0.4342  -0.4105  -0.3996  -0.3922  -0.3877
 -0.3715  -0.3618
 -- Virtual --
 -0.0120   0.0253   0.0352   0.0363   0.0456   0.0547   0.0553   0.0703
  0.0772   0.0789   0.0865   0.0896   0.0998   0.1120   0.1246   0.1276
  0.1307   0.1344   0.1428   0.1456   0.1485   0.1513   0.1564   0.1611
  0.1684   0.1732   0.1748   0.1827   0.1862   0.1880   0.1984   0.2002
  0.2073   0.2114   0.2136   0.2179   0.2258   0.2292   0.2479   0.2530
  0.2600   0.2618   0.2716   0.2755   0.2901   0.2927   0.2974   0.3029
  0.3055   0.3124   0.3153   0.3238   0.3273   0.3298   0.3358   0.3447
  0.3476   0.3527   0.3612   0.3640   0.3673   0.3734   0.3780   0.3804
  0.3820   0.3855   0.3941   0.4044   0.4049   0.4128   0.4208   0.4265
  0.4348   0.4387   0.4515   0.4546   0.4691   0.4759   0.4824   0.4901
  0.5029   0.5044   0.5136   0.5293   0.5391   0.5603   0.5716   0.5995
  0.6116   0.6181   0.6217   0.6351   0.6375   0.6590   0.6603   0.6643
  0.6764   0.6772   0.6877   0.7017   0.7038   0.7133   0.7257   0.7308
  0.7411   0.7447   0.7474   0.7508   0.7813   0.7853   0.7940   0.8070
  0.8117   0.8296   0.8410   0.8606   0.8746   0.8842   0.8935   0.9004
  0.9209   0.9384   0.9501   0.9527   0.9731   0.9926   1.0156   1.0366
  1.0444   1.0580   1.0643   1.0738   1.0877   1.1019   1.1052   1.1206
  1.1231   1.1309   1.1464   1.1505   1.1563   1.1654   1.1769   1.1856
  1.1903   1.1970   1.2155   1.2315   1.2363   1.2402   1.2567   1.2596
  1.2716   1.2823   1.2862   1.2994   1.3028   1.3084   1.3163   1.3266
  1.3367   1.3537   1.3539   1.3605   1.3765   1.3826   1.3877   1.3997
  1.4118   1.4193   1.4241   1.4465   1.4518   1.4538   1.4706   1.4818
  1.4867   1.5018   1.5144   1.5220   1.5374   1.5436   1.5471   1.5721
  1.5774   1.5859   1.5945   1.6103   1.6161   1.6222   1.6308   1.6346
  1.6637   1.6688   1.6793   1.7066   1.7115   1.7186   1.7388   1.7522
  1.7641   1.7892   1.8069   1.8168   1.8377   1.8691   1.8898   1.8964
  1.9153   1.9472   1.9727   1.9874   2.0093   2.0400   2.0499   2.0535
  2.0849   2.1181   2.1430   2.1501   2.1774   2.1975   2.2212   2.2762
  2.2996   2.3205   2.3273   2.3409   2.3546   2.3700   2.4076   2.4207
  2.4578   2.4863   2.5125   2.5520   2.6398   2.6678   2.7031   2.7284
  2.7373   2.7416   2.7768   2.7872   2.8157   2.8201   2.8421   2.8487
  2.8823   2.8867   2.8927   2.9004   2.9254   2.9459   2.9588   2.9816
  2.9912   3.0064   3.0278   3.0324   3.0657   3.0769   3.0901   3.1024
  3.1294   3.1435   3.1516   3.1892   3.1961   3.2262   3.2434   3.2621
  3.2760   3.2888   3.2919   3.3165   3.3426   3.3515   3.3898   3.3969
  3.4079   3.4411   3.4439   3.4579   3.4765   3.4855   3.4957   3.5192
  3.5257   3.5552   3.5700   3.5998   3.6077   3.6200   3.6308   3.6516
  3.6650   3.6657   3.6807   3.7003   3.7194   3.7415   3.7462   3.7681
  3.7726   3.7861   3.8067   3.8170   3.8205   3.8514   3.8711   3.8719
  3.8927   3.9016   3.9159   3.9185   3.9453   3.9551   3.9695   3.9832
  3.9992   4.0148   4.0339   4.0402   4.0578   4.1100   4.1139   4.1308
  4.1462   4.1619   4.1976   4.2164   4.2471   4.2684   4.2919   4.3041
  4.3261   4.3313   4.3574   4.3664   4.3886   4.4063   4.4093   4.4254
  4.4295   4.4535   4.4858   4.4969   4.5082   4.5165   4.5417   4.5753
  4.5872   4.5883   4.6001   4.6078   4.6197   4.6323   4.6489   4.6545
  4.6830   4.6970   4.7119   4.7379   4.7534   4.7651   4.7755   4.7907
  4.8311   4.8839   4.9601   4.9758   4.9885   4.9964   5.0015   5.0452
  5.0650   5.0884   5.1428   5.1567   5.1604   5.1759   5.1948   5.2127
  5.2197   5.2533   5.2710   5.2848   5.2946   5.3053   5.3138   5.3245
  5.3382   5.3416   5.3525   5.3667   5.4000   5.4137   5.4383   5.4583
  5.4875   5.5094   5.5285   5.5395   5.5808   5.6071   5.6173   5.6306
  5.6567   5.6778   5.6828   5.7019   5.7294   5.7397   5.7460   5.7668
  5.7759   5.7843   5.8055   5.8744   5.9162   5.9512   5.9902   6.0348
  6.0407   6.0551   6.0930   6.1294   6.2593   6.6034   6.6109   6.6704
  6.7518   6.7536   6.7661   6.7816   6.7936   6.8024   6.9183   6.9567
  7.0083   7.0130   7.0450   7.1161   7.1407   7.1463   7.2928   7.3081
  7.3336   7.3493   7.3688   7.3837   7.4154   7.4342   7.4378   7.4623
  7.4718   7.4961   7.5545   7.6497   7.6637   7.7172   7.7942   7.8681
  7.9166   7.9764   8.1020   8.1423   8.2666  24.3808  24.7011  24.7528
 24.7916  24.8490  24.9368  25.2391  50.4898  50.5254  50.6017  50.6240
 50.6853  50.6941
 
 Beta MOs
 -- Occupied --
-19.4478 -19.4218 -19.4087 -19.4062 -19.3491 -19.3453 -10.4160 -10.4121
-10.4078 -10.3952 -10.3798 -10.3615 -10.3545  -1.3465  -1.2754  -1.1756
 -1.1625  -1.0738  -0.9814  -0.8954  -0.8751  -0.8548  -0.8126  -0.7535
 -0.7157  -0.6863  -0.6627  -0.6376  -0.6114  -0.6051  -0.5934  -0.5790
 -0.5717  -0.5642  -0.5508  -0.5468  -0.5312  -0.5246  -0.5188  -0.4963
 -0.4871  -0.4635  -0.4531  -0.4359  -0.4156  -0.3972  -0.3917  -0.3698
 -0.2815
 -- Virtual --
 -0.0216  -0.0051   0.0254   0.0356   0.0366   0.0453   0.0547   0.0559
  0.0691   0.0771   0.0783   0.0860   0.0894   0.0954   0.1104   0.1252
  0.1280   0.1312   0.1346   0.1425   0.1459   0.1491   0.1519   0.1573
  0.1608   0.1683   0.1734   0.1754   0.1812   0.1845   0.1886   0.1995
  0.2011   0.2079   0.2121   0.2148   0.2176   0.2265   0.2301   0.2485
  0.2523   0.2572   0.2642   0.2722   0.2751   0.2898   0.2926   0.2986
  0.3043   0.3057   0.3123   0.3156   0.3227   0.3289   0.3337   0.3400
  0.3465   0.3479   0.3525   0.3606   0.3631   0.3700   0.3738   0.3797
  0.3799   0.3824   0.3846   0.3941   0.4036   0.4056   0.4146   0.4256
  0.4322   0.4340   0.4381   0.4517   0.4549   0.4704   0.4773   0.4816
  0.4886   0.5008   0.5037   0.5136   0.5296   0.5374   0.5586   0.5715
  0.5982   0.6088   0.6167   0.6193   0.6344   0.6356   0.6578   0.6590
  0.6647   0.6762   0.6773   0.6870   0.6989   0.7022   0.7111   0.7230
  0.7301   0.7392   0.7428   0.7461   0.7491   0.7748   0.7820   0.7915
  0.8056   0.8082   0.8274   0.8391   0.8602   0.8725   0.8825   0.8926
  0.8987   0.9210   0.9377   0.9442   0.9515   0.9720   0.9943   1.0169
  1.0377   1.0448   1.0574   1.0661   1.0743   1.0901   1.1033   1.1092
  1.1223   1.1294   1.1394   1.1517   1.1523   1.1573   1.1785   1.1835
  1.1903   1.1939   1.2007   1.2228   1.2328   1.2361   1.2429   1.2576
  1.2684   1.2721   1.2866   1.2879   1.3012   1.3052   1.3116   1.3227
  1.3304   1.3387   1.3541   1.3561   1.3631   1.3774   1.3826   1.3879
  1.4009   1.4114   1.4192   1.4259   1.4455   1.4514   1.4559   1.4697
  1.4832   1.4867   1.5030   1.5186   1.5251   1.5382   1.5433   1.5506
  1.5720   1.5791   1.5903   1.5940   1.6175   1.6191   1.6265   1.6389
  1.6452   1.6689   1.6727   1.6820   1.7105   1.7172   1.7217   1.7465
  1.7618   1.7698   1.7910   1.8060   1.8232   1.8470   1.8695   1.8899
  1.8967   1.9209   1.9482   1.9723   1.9847   2.0092   2.0387   2.0495
  2.0561   2.0842   2.1225   2.1419   2.1487   2.1763   2.1967   2.2193
  2.2750   2.3022   2.3219   2.3427   2.3534   2.3769   2.3796   2.4130
  2.4200   2.4608   2.4876   2.5111   2.5513   2.6410   2.6713   2.7055
  2.7238   2.7342   2.7383   2.7726   2.7825   2.8056   2.8148   2.8306
  2.8443   2.8770   2.8818   2.8864   2.8961   2.9214   2.9341   2.9504
  2.9718   2.9835   2.9959   3.0168   3.0275   3.0515   3.0649   3.0801
  3.0970   3.1214   3.1362   3.1384   3.1819   3.1880   3.2173   3.2392
  3.2549   3.2714   3.2770   3.2840   3.3103   3.3362   3.3446   3.3824
  3.3913   3.4017   3.4350   3.4414   3.4481   3.4686   3.4755   3.4923
  3.5133   3.5210   3.5431   3.5679   3.5935   3.5983   3.6133   3.6198
  3.6471   3.6581   3.6611   3.6719   3.6876   3.7054   3.7346   3.7410
  3.7607   3.7701   3.7770   3.7997   3.8109   3.8158   3.8421   3.8634
  3.8678   3.8901   3.8969   3.9090   3.9162   3.9426   3.9489   3.9641
  3.9798   3.9943   4.0104   4.0286   4.0357   4.0504   4.1037   4.1099
  4.1278   4.1398   4.1572   4.1923   4.2112   4.2447   4.2656   4.2885
  4.3022   4.3183   4.3246   4.3544   4.3620   4.3813   4.3997   4.4054
  4.4177   4.4237   4.4485   4.4802   4.4934   4.5006   4.5147   4.5408
  4.5720   4.5870   4.5946   4.6007   4.6146   4.6348   4.6367   4.6760
  4.6808   4.6871   4.6945   4.7127   4.7458   4.7517   4.7640   4.7729
  4.7858   4.8265   4.8779   4.9593   4.9845   5.0272   5.0386   5.0476
  5.0654   5.1237   5.1346   5.1503   5.1598   5.1704   5.2332   5.2388
  5.2576   5.2638   5.2768   5.2818   5.2990   5.3050   5.3133   5.3228
  5.3415   5.3460   5.3506   5.3637   5.3917   5.4010   5.4128   5.4355
  5.4566   5.4851   5.5080   5.5251   5.5386   5.5738   5.5968   5.6137
  5.6295   5.6526   5.6688   5.6811   5.7016   5.7396   5.7604   5.7730
  5.7780   5.7863   5.7965   5.8047   5.8720   5.9113   5.9488   5.9864
  6.0262   6.0372   6.0501   6.0904   6.1233   6.2582   6.6035   6.6104
  6.6694   6.7533   6.7618   6.8323   6.8445   6.8867   6.9074   7.0269
  7.0405   7.0538   7.0670   7.0881   7.1178   7.1463   7.2191   7.2926
  7.3063   7.3327   7.3484   7.3818   7.4081   7.4289   7.4341   7.4604
  7.4690   7.4833   7.4952   7.5532   7.6478   7.6625   7.7175   7.7939
  7.8677   7.9151   7.9743   8.1300   8.1829   8.2657  24.3787  24.6996
 24.7504  24.7909  24.8489  24.9349  25.2372  50.5094  50.5464  50.6010
 50.6238  50.6854  50.6935
 --------------------------------------------------------------
 
          Ground-State Mulliken Net Atomic Charges

     Atom                 Charge (a.u.)    Spin (a.u.)
  --------------------------------------------------------
      1 C                    -0.204299      -0.015181
      2 C                    -0.125383      -0.004849
      3 C                    -0.345640      -0.490612
      4 C                    -0.390815       0.133149
      5 C                    -0.278903      -0.358212
      6 C                     0.063027       0.045754
      7 C                    -0.412535      -0.005003
      8 H                     0.326943       0.001048
      9 H                     0.288128      -0.006497
     10 H                     0.377916       0.021620
     11 H                     0.301142      -0.007022
     12 H                     0.326275       0.008634
     13 H                     0.251825       0.000103
     14 O                    -0.382986      -0.001815
     15 H                     0.239873       0.000210
     16 H                     0.330081       0.000132
     17 O                    -0.409277       0.001049
     18 H                     0.339932      -0.001154
     19 O                    -0.122806      -0.030771
     20 O                    -0.117046      -0.017203
     21 O                     0.033451       0.889261
     22 O                    -0.088905       0.837359
  --------------------------------------------------------
  Sum of atomic charges =     0.000000
  Sum of spin   charges =     1.000000

 -----------------------------------------------------------------
                    Cartesian Multipole Moments
 -----------------------------------------------------------------
    Charge (ESU x 10^10)
                 0.0000
    Dipole Moment (Debye)
         X      -1.3064      Y       1.1533      Z      -4.3449
       Tot       4.6814
    Quadrupole Moments (Debye-Ang)
        XX     -80.1479     XY       9.3071     YY     -82.9170
        XZ       8.6397     YZ       1.4087     ZZ     -70.3831
    Octopole Moments (Debye-Ang^2)
       XXX     207.1249    XXY      38.5411    XYY      37.0169
       YYY     201.4825    XXZ     -53.5404    XYZ      17.5051
       YYZ     -46.8064    XZZ      60.3094    YZZ      53.4727
       ZZZ    -122.7734
    Hexadecapole Moments (Debye-Ang^3)
      XXXX    -936.2702   XXXY     -47.0757   XXYY    -368.8689
      XYYY     -15.3264   YYYY   -1673.8231   XXXZ     144.6015
      XXYZ      92.8399   XYYZ      21.8454   YYYZ     385.5986
      XXZZ    -300.4590   XYZZ     -12.6033   YYZZ    -444.6186
      XZZZ     140.0223   YZZZ     313.6035   ZZZZ    -809.5804
 -----------------------------------------------------------------
 Calculating analytic gradient of the SCF energy
 Gradient of CDS energy
            1           2           3           4           5           6
    1   0.0016171  -0.0000441  -0.0000899  -0.0001553  -0.0001898   0.0000502
    2  -0.0012958   0.0001289  -0.0000882  -0.0002630   0.0000961   0.0000761
    3  -0.0009814   0.0001680   0.0002126  -0.0001199  -0.0002206   0.0001559
            7           8           9          10          11          12
    1   0.0001110  -0.0000473   0.0000725   0.0000122  -0.0001063  -0.0000390
    2   0.0009850   0.0002070  -0.0000774  -0.0001823  -0.0001534   0.0000702
    3  -0.0003662   0.0000992   0.0001618   0.0001125  -0.0000918  -0.0001147
           13          14          15          16          17          18
    1  -0.0002459  -0.0001748   0.0001319   0.0002004  -0.0016364   0.0004010
    2  -0.0002522  -0.0000875  -0.0001147  -0.0000809   0.0011572  -0.0001037
    3  -0.0000452   0.0002898   0.0002801  -0.0004637   0.0011114  -0.0002273
           19          20          21          22
    1   0.0000084   0.0000497   0.0000579   0.0000167
    2   0.0000871  -0.0000799  -0.0000003  -0.0000286
    3  -0.0000879   0.0000816   0.0000620  -0.0000164
 Gradient of SCF Energy
            1           2           3           4           5           6
    1   0.0032181  -0.0095690   0.0087715   0.0051767   0.0022607  -0.0036198
    2  -0.0088783   0.0094341  -0.0037078   0.0063612   0.0011553   0.0018236
    3  -0.0053864  -0.0009516  -0.0036937   0.0066314   0.0072958   0.0029484
            7           8           9          10          11          12
    1   0.0092604   0.0035075   0.0021442  -0.0029259  -0.0048973  -0.0039415
    2  -0.0152797   0.0052168  -0.0011209  -0.0052345  -0.0063793   0.0027512
    3   0.0028888   0.0021226   0.0047285   0.0036387  -0.0042630  -0.0153997
           13          14          15          16          17          18
    1  -0.0086773   0.0082239   0.0020911  -0.0091944   0.0001931   0.0012876
    2   0.0032002   0.0158990   0.0058746  -0.0112040  -0.0080677   0.0052879
    3  -0.0076344   0.0141209   0.0046528  -0.0137282   0.0059092  -0.0065938
           19          20          21          22
    1  -0.0012463  -0.0017380  -0.0000087  -0.0003167
    2   0.0018820   0.0009758   0.0003353  -0.0003245
    3   0.0016657   0.0009215   0.0015412  -0.0014147
 Max gradient component =       1.590E-02
 RMS gradient           =       6.402E-03
 Computing fast CPCM-SWIG gradient
 Updating gradient with PCM contributions...
 -- total gradient after adding PCM contribution --
---------------------------------------------------
  Atom         X              Y              Z     
---------------------------------------------------
   1      -0.000026       0.000013       0.000027
   2      -0.000045       0.000042      -0.000022
   3      -0.000000       0.000036       0.000020
   4       0.000031      -0.000042      -0.000003
   5       0.000005      -0.000004      -0.000006
   6      -0.000002      -0.000009      -0.000015
   7       0.000003      -0.000011      -0.000006
   8      -0.000001       0.000012      -0.000002
   9      -0.000003       0.000013       0.000002
  10       0.000028      -0.000004      -0.000006
  11       0.000012      -0.000004       0.000002
  12       0.000001      -0.000010      -0.000001
  13      -0.000003      -0.000006      -0.000005
  14      -0.000004      -0.000001      -0.000000
  15      -0.000005      -0.000005      -0.000003
  16       0.000008      -0.000013       0.000010
  17       0.000021       0.000012      -0.000029
  18       0.000027      -0.000006       0.000001
  19      -0.000024      -0.000001       0.000001
  20      -0.000002       0.000014       0.000004
  21      -0.000023      -0.000016       0.000144
  22       0.000003      -0.000009      -0.000114
---------------------------------------------------
 Number of fixed atoms: 0
 Gradient time:  CPU 638.65 s  wall 90.65 s
 ######################################################
 ######################################################
 # Starting finite difference calculation for IDERIV  #
 Finite diff step size:  1.88973e-03 a.u.
 ----------------------------------------------------------------
             Standard Nuclear Orientation (Angstroms)
    I     Atom           X                Y                Z
 ----------------------------------------------------------------
    1      C      -0.0558356492    -0.1801173299     0.7839561656
    2      C      -0.9336704908    -0.9288542812     1.7786576951
    3      C      -1.6592052976    -2.0810597334     1.1557228011
    4      C      -2.1053357374    -1.9179068089    -0.1807021767
    5      C      -1.8627520303    -0.7573216707    -0.8328734045
    6      C      -1.1860001578     0.3675646524    -0.0926538726
    7      C      -0.7506077486     1.5244436730    -0.9765877714
    8      H       0.4366724422     0.6503542526     1.2931750506
    9      H      -0.4356447956    -1.1836102491     2.7105129536
   10      H      -2.1272375654    -2.8030467055     1.8063544442
   11      H      -2.6582729886    -2.7158575081    -0.6579934610
   12      H      -2.1993408579    -0.5902815838    -1.8483187585
   13      H      -1.5928206027     1.9105668195    -1.5516844845
   14      O       0.3031476718     1.0981623067    -1.8359580131
   15      H      -0.3532527975     2.3189143809    -0.3487471884
   16      H      -0.0771529609     0.6097360498    -2.5745451856
   17      O       0.8697055113    -0.9990204351     0.1147548499
   18      H       1.1839282639    -0.4887909012    -0.6449141874
   19      O      -1.8920052880     0.0955374897     2.1149862072
   20      O      -2.0818973491     0.8980881610     0.9022111722
   21      O      -0.0324700635    -3.5309342104     1.0688758163
   22      O       0.3020323573    -3.8931640246     2.1882178170
 ----------------------------------------------------------------
 Nuclear Repulsion Energy =         886.75063998 hartrees
 There are       50 alpha and       49 beta electrons
 Discretize the solute cavity surface with Lebedev spheres
	Using 110 Lebedev grid points for each H atom
	Using 194 Lebedev grid points for other atoms
	Atomic van der Waals radii will be scaled by 1.20
 Remove points where switching function is < 1.0e-08
 Keep 1656 surface tesserae and discard 1856 interior tesserae
 Molecular Surface Area = 186.466 Angst**2
 Requested basis set is 6-311++G(2df,2p)
 There are 158 shells and 532 basis functions
 A cutoff of  1.0D-12 yielded  10927 shell pairs
 There are    123756 function pairs (    154860 Cartesian)
 Smallest overlap matrix eigenvalue = 1.39E-06
 Guess MOs from SCF MO coefficient file

 -----------------------------------------------------------------------
  General SCF calculation program by
  Eric Jon Sundstrom, Paul Horn, Yuezhi Mao, Dmitri Zuev, Alec White,
  David Stuck, Shaama M.S., Shane Yost, Joonho Lee, David Small,
  Daniel Levine, Susi Lehtola, Hugh Burton, Evgeny Epifanovsky,
  Bang C. Huynh
 -----------------------------------------------------------------------
 Exchange:     0.1500 Hartree-Fock + 1.0000 wB97M-V + LR-HF
 Correlation:  1.0000 wB97M-V
 Using SG-2 standard quadrature grid
 Nonlocal Correlation:  VV10 with C = 0.0100 and b = 6.00 and scale = 1.00000
 Grid used for NLC:  SG-1 standard quadrature
 
 Citation of the SMD model:
 Marenich, A.V.; Cramer, C.J.; Truhlar, D.G.
 J. Phys. Chem. B 2009, 113, 6378-6396.
 iSolventCode=           1
 Solvent: water                                                           
 
 vradii
            1           2           3           4           5           6
    1   1.8500000   1.8500000   1.8500000   1.8500000   1.8500000   1.8500000
            7           8           9          10          11          12
    1   1.8500000   1.2000000   1.2000000   1.2000000   1.2000000   1.2000000
           13          14          15          16          17          18
    1   1.2000000   1.5200000   1.2000000   1.2000000   1.5200000   1.2000000
           19          20          21          22
    1   1.5200000   1.5200000   1.5200000   1.5200000
 -------------------------------------------------------
 OpenMP BLAS3 based DFT computing Module                
 Release: version 1.0, May 2013, Q-Chem Inc. Pittsburgh 
 -------------------------------------------------------
 A unrestricted SCF calculation will be
 performed using Roothaan-Hall, DIIS, GDM
 SCF converges when RMS gradient is below 1.0e-07
 ---------------------------------------
  Cycle       Energy         DIIS error
 ---------------------------------------
    1    -723.2036864266      1.58e-04  Roothaan Step
 ---------------------------------------
  Cycle       Energy         DIIS error
 ---------------------------------------
    1    -723.2345124639      1.73e-04  
    2    -723.2391331830      1.29e-04  Done DIIS. Switching to GDM
 ---------------------------------------
  Cycle       Energy        RMS Gradient
 ---------------------------------------
    1    -723.2391331830      3.85e-03   Normal BFGS step
    2    -723.2393409781      8.47e-03   Normal BFGS step
    3    -723.2409168553      2.34e-03   Normal BFGS step
    4    -723.2409355891      2.02e-03   Normal BFGS step
    5    -723.2409500551      1.32e-03   Normal BFGS step
    6    -723.2409542524      1.01e-03   Normal BFGS step
    7    -723.2409576810      6.61e-04   Normal BFGS step
    8    -723.2409598096      3.34e-04   Normal BFGS step
    9    -723.2409601308      1.72e-04   Normal BFGS step
   10    -723.2409603214      1.14e-04   Normal BFGS step
   11    -723.2409603678      4.54e-05   Normal BFGS step
   12    -723.2409603859      2.41e-05   Normal BFGS step
   13    -723.2409603900      1.15e-05   Normal BFGS step
   14    -723.2409603914      5.22e-06   Normal BFGS step
   15    -723.2409603918      1.63e-06   Normal BFGS step
   16    -723.2409603918      1.40e-06   Normal BFGS step
   17    -723.2409603918      7.56e-07   Normal BFGS step
   18    -723.2409603918      4.28e-07   Normal BFGS step
   19    -723.2409603919      2.62e-07   Normal BFGS step
   20    -723.2409603919      1.33e-07   Normal BFGS step
   21    -723.2409603918      7.47e-08  Convergence criterion met
 ---------------------------------------
 SCF time:   CPU 4557.87s  wall 578.00s 
<S^2> =          1.393923611
(3)  G-ENP(liq) elect-nuc-pol free energy of system     -723.240960392 a.u.
(4)  G-CDS(liq) cavity-dispersion-solvent structure 
     free energy                                                2.6932 kcal/mol
(6)  G-S(liq) free energy of system                     -723.236668429 a.u.
 SCF   energy in the final basis set =     -723.2366684295
 Total energy in the final basis set =     -723.2366684295
 
 --------------------------------------------------------------
 
                    Orbital Energies (a.u.)
 --------------------------------------------------------------
 
 Alpha MOs
 -- Occupied --
-19.4751 -19.4466 -19.4072 -19.4054 -19.3490 -19.3454 -10.4163 -10.4125
-10.4075 -10.3951 -10.3720 -10.3573 -10.3562  -1.3955  -1.2732  -1.1757
 -1.1625  -1.0712  -0.9772  -0.9431  -0.8911  -0.8526  -0.8080  -0.7519
 -0.7125  -0.6861  -0.6651  -0.6472  -0.6442  -0.6375  -0.6250  -0.6090
 -0.5875  -0.5775  -0.5645  -0.5514  -0.5323  -0.5240  -0.5182  -0.4953
 -0.4840  -0.4619  -0.4506  -0.4342  -0.4105  -0.3996  -0.3922  -0.3876
 -0.3715  -0.3618
 -- Virtual --
 -0.0120   0.0253   0.0352   0.0363   0.0456   0.0547   0.0553   0.0703
  0.0772   0.0789   0.0865   0.0896   0.0999   0.1120   0.1246   0.1276
  0.1307   0.1344   0.1428   0.1456   0.1485   0.1513   0.1564   0.1611
  0.1684   0.1732   0.1748   0.1827   0.1862   0.1880   0.1984   0.2002
  0.2073   0.2114   0.2136   0.2179   0.2258   0.2292   0.2479   0.2530
  0.2600   0.2618   0.2716   0.2755   0.2901   0.2927   0.2973   0.3029
  0.3056   0.3124   0.3153   0.3238   0.3273   0.3298   0.3358   0.3447
  0.3476   0.3527   0.3612   0.3640   0.3673   0.3734   0.3780   0.3804
  0.3820   0.3855   0.3941   0.4043   0.4049   0.4128   0.4208   0.4265
  0.4348   0.4387   0.4515   0.4546   0.4691   0.4759   0.4824   0.4901
  0.5029   0.5045   0.5136   0.5293   0.5391   0.5602   0.5716   0.5995
  0.6116   0.6182   0.6217   0.6351   0.6374   0.6589   0.6602   0.6642
  0.6764   0.6772   0.6877   0.7017   0.7037   0.7133   0.7257   0.7308
  0.7411   0.7447   0.7474   0.7508   0.7813   0.7852   0.7939   0.8070
  0.8116   0.8296   0.8410   0.8606   0.8747   0.8842   0.8935   0.9005
  0.9209   0.9383   0.9501   0.9527   0.9731   0.9926   1.0157   1.0366
  1.0444   1.0580   1.0643   1.0737   1.0877   1.1019   1.1052   1.1206
  1.1231   1.1310   1.1464   1.1505   1.1563   1.1654   1.1769   1.1855
  1.1903   1.1970   1.2155   1.2315   1.2362   1.2402   1.2567   1.2595
  1.2716   1.2823   1.2862   1.2995   1.3028   1.3084   1.3163   1.3265
  1.3367   1.3536   1.3539   1.3605   1.3765   1.3826   1.3876   1.3997
  1.4117   1.4193   1.4240   1.4465   1.4518   1.4538   1.4705   1.4818
  1.4867   1.5017   1.5143   1.5220   1.5374   1.5435   1.5470   1.5721
  1.5774   1.5859   1.5945   1.6103   1.6161   1.6222   1.6309   1.6346
  1.6637   1.6688   1.6793   1.7066   1.7115   1.7184   1.7387   1.7522
  1.7640   1.7892   1.8069   1.8169   1.8377   1.8689   1.8897   1.8964
  1.9153   1.9473   1.9725   1.9874   2.0093   2.0400   2.0499   2.0536
  2.0849   2.1181   2.1430   2.1500   2.1775   2.1974   2.2212   2.2761
  2.2997   2.3206   2.3273   2.3409   2.3547   2.3700   2.4076   2.4207
  2.4578   2.4863   2.5126   2.5520   2.6397   2.6678   2.7031   2.7284
  2.7372   2.7415   2.7768   2.7871   2.8157   2.8200   2.8421   2.8486
  2.8823   2.8867   2.8926   2.9004   2.9254   2.9459   2.9587   2.9814
  2.9910   3.0063   3.0278   3.0321   3.0657   3.0770   3.0900   3.1024
  3.1293   3.1433   3.1516   3.1891   3.1961   3.2262   3.2434   3.2621
  3.2761   3.2888   3.2919   3.3164   3.3427   3.3515   3.3898   3.3968
  3.4079   3.4410   3.4439   3.4579   3.4764   3.4855   3.4956   3.5191
  3.5256   3.5552   3.5700   3.5997   3.6079   3.6199   3.6307   3.6516
  3.6650   3.6657   3.6807   3.7002   3.7194   3.7415   3.7461   3.7683
  3.7726   3.7860   3.8068   3.8170   3.8204   3.8513   3.8711   3.8717
  3.8926   3.9016   3.9159   3.9184   3.9452   3.9550   3.9694   3.9832
  3.9990   4.0147   4.0338   4.0401   4.0576   4.1100   4.1138   4.1305
  4.1460   4.1619   4.1975   4.2162   4.2470   4.2683   4.2918   4.3040
  4.3259   4.3312   4.3572   4.3664   4.3886   4.4061   4.4094   4.4255
  4.4296   4.4535   4.4858   4.4970   4.5083   4.5165   4.5417   4.5754
  4.5871   4.5883   4.6000   4.6077   4.6197   4.6321   4.6489   4.6545
  4.6830   4.6969   4.7119   4.7378   4.7532   4.7649   4.7754   4.7902
  4.8311   4.8836   4.9601   4.9758   4.9885   4.9964   5.0015   5.0452
  5.0649   5.0884   5.1426   5.1566   5.1603   5.1759   5.1948   5.2127
  5.2197   5.2532   5.2707   5.2848   5.2945   5.3052   5.3137   5.3245
  5.3381   5.3415   5.3526   5.3667   5.3998   5.4137   5.4381   5.4584
  5.4875   5.5094   5.5284   5.5395   5.5807   5.6070   5.6175   5.6307
  5.6569   5.6779   5.6827   5.7019   5.7294   5.7400   5.7460   5.7669
  5.7759   5.7848   5.8055   5.8744   5.9164   5.9514   5.9904   6.0348
  6.0407   6.0556   6.0934   6.1297   6.2592   6.6034   6.6108   6.6704
  6.7525   6.7538   6.7662   6.7820   6.7937   6.8024   6.9183   6.9567
  7.0083   7.0130   7.0450   7.1161   7.1408   7.1463   7.2928   7.3081
  7.3336   7.3493   7.3688   7.3837   7.4156   7.4343   7.4378   7.4624
  7.4720   7.4961   7.5545   7.6497   7.6637   7.7173   7.7942   7.8681
  7.9167   7.9763   8.1020   8.1423   8.2665  24.3808  24.7009  24.7531
 24.7917  24.8484  24.9364  25.2391  50.4898  50.5255  50.6016  50.6240
 50.6855  50.6941
 
 Beta MOs
 -- Occupied --
-19.4478 -19.4218 -19.4086 -19.4062 -19.3491 -19.3453 -10.4160 -10.4121
-10.4078 -10.3951 -10.3798 -10.3615 -10.3545  -1.3465  -1.2753  -1.1758
 -1.1626  -1.0737  -0.9813  -0.8953  -0.8751  -0.8547  -0.8125  -0.7535
 -0.7157  -0.6863  -0.6626  -0.6377  -0.6114  -0.6051  -0.5934  -0.5790
 -0.5717  -0.5643  -0.5508  -0.5468  -0.5312  -0.5246  -0.5188  -0.4964
 -0.4872  -0.4635  -0.4530  -0.4359  -0.4156  -0.3972  -0.3916  -0.3697
 -0.2815
 -- Virtual --
 -0.0216  -0.0051   0.0254   0.0356   0.0366   0.0453   0.0547   0.0559
  0.0691   0.0771   0.0783   0.0860   0.0894   0.0954   0.1104   0.1252
  0.1280   0.1312   0.1346   0.1425   0.1459   0.1491   0.1519   0.1574
  0.1608   0.1683   0.1734   0.1754   0.1812   0.1845   0.1886   0.1995
  0.2011   0.2079   0.2121   0.2148   0.2175   0.2265   0.2301   0.2485
  0.2523   0.2572   0.2642   0.2722   0.2750   0.2898   0.2926   0.2986
  0.3043   0.3058   0.3123   0.3156   0.3227   0.3289   0.3337   0.3400
  0.3465   0.3479   0.3525   0.3606   0.3631   0.3700   0.3737   0.3797
  0.3800   0.3824   0.3846   0.3941   0.4036   0.4056   0.4146   0.4256
  0.4322   0.4340   0.4381   0.4517   0.4549   0.4704   0.4773   0.4816
  0.4886   0.5008   0.5037   0.5136   0.5296   0.5373   0.5586   0.5715
  0.5982   0.6088   0.6167   0.6193   0.6343   0.6356   0.6578   0.6589
  0.6646   0.6762   0.6773   0.6870   0.6989   0.7022   0.7111   0.7230
  0.7301   0.7392   0.7428   0.7461   0.7492   0.7748   0.7820   0.7915
  0.8056   0.8081   0.8274   0.8391   0.8602   0.8725   0.8825   0.8926
  0.8987   0.9210   0.9376   0.9443   0.9515   0.9720   0.9943   1.0169
  1.0377   1.0448   1.0573   1.0661   1.0743   1.0902   1.1033   1.1092
  1.1223   1.1294   1.1394   1.1518   1.1523   1.1573   1.1785   1.1835
  1.1903   1.1939   1.2007   1.2228   1.2329   1.2360   1.2429   1.2576
  1.2684   1.2721   1.2866   1.2880   1.3012   1.3052   1.3116   1.3226
  1.3303   1.3387   1.3541   1.3561   1.3631   1.3774   1.3826   1.3878
  1.4009   1.4113   1.4192   1.4259   1.4455   1.4514   1.4559   1.4697
  1.4832   1.4867   1.5029   1.5185   1.5251   1.5382   1.5432   1.5505
  1.5719   1.5791   1.5903   1.5939   1.6175   1.6191   1.6265   1.6390
  1.6452   1.6688   1.6727   1.6821   1.7105   1.7171   1.7215   1.7465
  1.7617   1.7698   1.7910   1.8061   1.8232   1.8470   1.8693   1.8899
  1.8967   1.9209   1.9483   1.9722   1.9847   2.0092   2.0387   2.0495
  2.0562   2.0841   2.1225   2.1419   2.1487   2.1765   2.1967   2.2193
  2.2750   2.3023   2.3220   2.3429   2.3534   2.3769   2.3796   2.4129
  2.4200   2.4608   2.4877   2.5111   2.5512   2.6410   2.6712   2.7055
  2.7238   2.7341   2.7383   2.7725   2.7824   2.8056   2.8147   2.8306
  2.8443   2.8769   2.8817   2.8864   2.8961   2.9214   2.9341   2.9503
  2.9716   2.9833   2.9959   3.0166   3.0272   3.0515   3.0650   3.0800
  3.0969   3.1214   3.1360   3.1383   3.1819   3.1879   3.2173   3.2392
  3.2549   3.2714   3.2770   3.2840   3.3102   3.3363   3.3446   3.3824
  3.3912   3.4018   3.4349   3.4415   3.4481   3.4685   3.4755   3.4922
  3.5132   3.5209   3.5430   3.5678   3.5934   3.5983   3.6132   3.6198
  3.6471   3.6581   3.6611   3.6720   3.6875   3.7053   3.7346   3.7410
  3.7607   3.7701   3.7771   3.7998   3.8108   3.8158   3.8421   3.8634
  3.8677   3.8899   3.8969   3.9090   3.9161   3.9425   3.9487   3.9640
  3.9797   3.9941   4.0103   4.0285   4.0356   4.0502   4.1037   4.1099
  4.1275   4.1397   4.1572   4.1922   4.2110   4.2446   4.2654   4.2884
  4.3022   4.3181   4.3244   4.3542   4.3619   4.3812   4.3996   4.4054
  4.4177   4.4239   4.4485   4.4803   4.4935   4.5006   4.5147   4.5408
  4.5721   4.5870   4.5945   4.6005   4.6146   4.6347   4.6366   4.6760
  4.6808   4.6871   4.6945   4.7127   4.7456   4.7517   4.7639   4.7728
  4.7853   4.8265   4.8775   4.9593   4.9846   5.0272   5.0387   5.0475
  5.0654   5.1236   5.1346   5.1502   5.1596   5.1703   5.2331   5.2387
  5.2576   5.2636   5.2768   5.2818   5.2989   5.3050   5.3132   5.3228
  5.3414   5.3460   5.3506   5.3636   5.3916   5.4009   5.4128   5.4353
  5.4567   5.4851   5.5079   5.5251   5.5385   5.5736   5.5968   5.6138
  5.6296   5.6528   5.6689   5.6811   5.7016   5.7399   5.7605   5.7731
  5.7782   5.7864   5.7966   5.8047   5.8720   5.9115   5.9490   5.9867
  6.0262   6.0372   6.0506   6.0908   6.1237   6.2582   6.6035   6.6103
  6.6693   6.7535   6.7630   6.8324   6.8445   6.8867   6.9074   7.0269
  7.0406   7.0538   7.0670   7.0881   7.1178   7.1463   7.2191   7.2926
  7.3063   7.3327   7.3484   7.3818   7.4081   7.4289   7.4341   7.4605
  7.4692   7.4834   7.4952   7.5532   7.6479   7.6625   7.7175   7.7939
  7.8677   7.9151   7.9743   8.1300   8.1829   8.2656  24.3786  24.6995
 24.7507  24.7910  24.8483  24.9346  25.2372  50.5094  50.5464  50.6010
 50.6238  50.6856  50.6935
 --------------------------------------------------------------
 
          Ground-State Mulliken Net Atomic Charges

     Atom                 Charge (a.u.)    Spin (a.u.)
  --------------------------------------------------------
      1 C                    -0.204725      -0.015224
      2 C                    -0.124961      -0.004831
      3 C                    -0.345764      -0.490557
      4 C                    -0.390881       0.133125
      5 C                    -0.278539      -0.358157
      6 C                     0.062481       0.045746
      7 C                    -0.412563      -0.005008
      8 H                     0.327110       0.001045
      9 H                     0.288112      -0.006495
     10 H                     0.377910       0.021619
     11 H                     0.301129      -0.007022
     12 H                     0.326297       0.008635
     13 H                     0.251795       0.000103
     14 O                    -0.382984      -0.001814
     15 H                     0.239874       0.000209
     16 H                     0.330079       0.000132
     17 O                    -0.408873       0.001053
     18 H                     0.339937      -0.001156
     19 O                    -0.122847      -0.030764
     20 O                    -0.117069      -0.017196
     21 O                     0.033418       0.889233
     22 O                    -0.088938       0.837325
  --------------------------------------------------------
  Sum of atomic charges =     0.000000
  Sum of spin   charges =     1.000000

 -----------------------------------------------------------------
                    Cartesian Multipole Moments
 -----------------------------------------------------------------
    Charge (ESU x 10^10)
                 0.0000
    Dipole Moment (Debye)
         X      -1.3027      Y       1.1529      Z      -4.3461
       Tot       4.6813
    Quadrupole Moments (Debye-Ang)
        XX     -80.1485     XY       9.3059     YY     -82.9218
        XZ       8.6411     YZ       1.4132     ZZ     -70.3888
    Octopole Moments (Debye-Ang^2)
       XXX     207.1202    XXY      38.5397    XYY      37.0178
       YYY     201.4941    XXZ     -53.5403    XYZ      17.5034
       YYZ     -46.8134    XZZ      60.3119    YZZ      53.4799
       ZZZ    -122.7882
    Hexadecapole Moments (Debye-Ang^3)
      XXXX    -936.2775   XXXY     -47.0760   XXYY    -368.8783
      XYYY     -15.3224   YYYY   -1673.9051   XXXZ     144.5915
      XXYZ      92.8424   XYYZ      21.8373   YYYZ     385.6391
      XXZZ    -300.4673   XYZZ     -12.6050   YYZZ    -444.6458
      XZZZ     140.0220   YZZZ     313.6360   ZZZZ    -809.6414
 -----------------------------------------------------------------
 Calculating analytic gradient of the SCF energy
 Gradient of CDS energy
            1           2           3           4           5           6
    1   0.0016969  -0.0000447  -0.0000899  -0.0001554  -0.0001899   0.0000498
    2  -0.0013661   0.0001287  -0.0000882  -0.0002630   0.0000962   0.0000762
    3  -0.0010387   0.0001684   0.0002125  -0.0001198  -0.0002206   0.0001557
            7           8           9          10          11          12
    1   0.0001110  -0.0000481   0.0000725   0.0000122  -0.0001063  -0.0000390
    2   0.0009851   0.0002068  -0.0000774  -0.0001823  -0.0001534   0.0000702
    3  -0.0003662   0.0000989   0.0001618   0.0001125  -0.0000918  -0.0001147
           13          14          15          16          17          18
    1  -0.0002459  -0.0001748   0.0001319   0.0002004  -0.0017135   0.0004004
    2  -0.0002522  -0.0000875  -0.0001147  -0.0000809   0.0012278  -0.0001035
    3  -0.0000452   0.0002899   0.0002801  -0.0004637   0.0011688  -0.0002272
           19          20          21          22
    1   0.0000084   0.0000497   0.0000577   0.0000167
    2   0.0000871  -0.0000799  -0.0000005  -0.0000286
    3  -0.0000879   0.0000816   0.0000622  -0.0000164
 Gradient of SCF Energy
            1           2           3           4           5           6
    1   0.0043122  -0.0097402   0.0087390   0.0051823   0.0022306  -0.0038177
    2  -0.0088559   0.0093397  -0.0037308   0.0063610   0.0011482   0.0018403
    3  -0.0054670  -0.0008951  -0.0036749   0.0066337   0.0072591   0.0028527
            7           8           9          10          11          12
    1   0.0092822   0.0032967   0.0021692  -0.0029257  -0.0048950  -0.0039422
    2  -0.0152787   0.0050394  -0.0011110  -0.0052330  -0.0063778   0.0027506
    3   0.0028859   0.0020148   0.0047049   0.0036345  -0.0042624  -0.0153967
           13          14          15          16          17          18
    1  -0.0086765   0.0082162   0.0020926  -0.0091931  -0.0001498   0.0012627
    2   0.0031912   0.0159097   0.0058723  -0.0112064  -0.0078938   0.0053167
    3  -0.0076245   0.0141184   0.0046534  -0.0137285   0.0061030  -0.0065807
           19          20          21          22
    1  -0.0013143  -0.0018071  -0.0000024  -0.0003198
    2   0.0019051   0.0010054   0.0003281  -0.0003204
    3   0.0016974   0.0009450   0.0015525  -0.0014254
 Max gradient component =       1.591E-02
 RMS gradient           =       6.410E-03
 Computing fast CPCM-SWIG gradient
 Updating gradient with PCM contributions...
 -- total gradient after adding PCM contribution --
---------------------------------------------------
  Atom         X              Y              Z     
---------------------------------------------------
   1       0.001091       0.000034      -0.000057
   2      -0.000232      -0.000046       0.000033
   3      -0.000026       0.000014       0.000037
   4       0.000034      -0.000040       0.000000
   5      -0.000025      -0.000008      -0.000037
   6      -0.000211       0.000010      -0.000111
   7       0.000030      -0.000013      -0.000009
   8      -0.000213      -0.000172      -0.000114
   9       0.000021       0.000022      -0.000017
  10       0.000027      -0.000005      -0.000007
  11       0.000014      -0.000003       0.000002
  12      -0.000000      -0.000010       0.000001
  13      -0.000006      -0.000013       0.000002
  14      -0.000008       0.000004      -0.000002
  15      -0.000005      -0.000006      -0.000002
  16       0.000008      -0.000013       0.000010
  17      -0.000312       0.000188       0.000156
  18      -0.000005       0.000021       0.000023
  19      -0.000092       0.000024       0.000032
  20      -0.000071       0.000042       0.000029
  21      -0.000017      -0.000022       0.000156
  22      -0.000001      -0.000005      -0.000125
---------------------------------------------------
 Number of fixed atoms: 0
 Gradient time:  CPU 665.37 s  wall 94.38 s
 ----------------------------------------------------------------
             Standard Nuclear Orientation (Angstroms)
    I     Atom           X                Y                Z
 ----------------------------------------------------------------
    1      C      -0.0578356492    -0.1801173299     0.7839561656
    2      C      -0.9336704908    -0.9288542812     1.7786576951
    3      C      -1.6592052976    -2.0810597334     1.1557228011
    4      C      -2.1053357374    -1.9179068089    -0.1807021767
    5      C      -1.8627520303    -0.7573216707    -0.8328734045
    6      C      -1.1860001578     0.3675646524    -0.0926538726
    7      C      -0.7506077486     1.5244436730    -0.9765877714
    8      H       0.4366724422     0.6503542526     1.2931750506
    9      H      -0.4356447956    -1.1836102491     2.7105129536
   10      H      -2.1272375654    -2.8030467055     1.8063544442
   11      H      -2.6582729886    -2.7158575081    -0.6579934610
   12      H      -2.1993408579    -0.5902815838    -1.8483187585
   13      H      -1.5928206027     1.9105668195    -1.5516844845
   14      O       0.3031476718     1.0981623067    -1.8359580131
   15      H      -0.3532527975     2.3189143809    -0.3487471884
   16      H      -0.0771529609     0.6097360498    -2.5745451856
   17      O       0.8697055113    -0.9990204351     0.1147548499
   18      H       1.1839282639    -0.4887909012    -0.6449141874
   19      O      -1.8920052880     0.0955374897     2.1149862072
   20      O      -2.0818973491     0.8980881610     0.9022111722
   21      O      -0.0324700635    -3.5309342104     1.0688758163
   22      O       0.3020323573    -3.8931640246     2.1882178170
 ----------------------------------------------------------------
 Nuclear Repulsion Energy =         886.78162547 hartrees
 There are       50 alpha and       49 beta electrons
 Discretize the solute cavity surface with Lebedev spheres
	Using 110 Lebedev grid points for each H atom
	Using 194 Lebedev grid points for other atoms
	Atomic van der Waals radii will be scaled by 1.20
 Remove points where switching function is < 1.0e-08
 Keep 1656 surface tesserae and discard 1856 interior tesserae
 Molecular Surface Area = 186.462 Angst**2
 Requested basis set is 6-311++G(2df,2p)
 There are 158 shells and 532 basis functions
 A cutoff of  1.0D-12 yielded  10927 shell pairs
 There are    123756 function pairs (    154860 Cartesian)
 Smallest overlap matrix eigenvalue = 1.39E-06
 Guess MOs from SCF MO coefficient file

 -----------------------------------------------------------------------
  General SCF calculation program by
  Eric Jon Sundstrom, Paul Horn, Yuezhi Mao, Dmitri Zuev, Alec White,
  David Stuck, Shaama M.S., Shane Yost, Joonho Lee, David Small,
  Daniel Levine, Susi Lehtola, Hugh Burton, Evgeny Epifanovsky,
  Bang C. Huynh
 -----------------------------------------------------------------------
 Exchange:     0.1500 Hartree-Fock + 1.0000 wB97M-V + LR-HF
 Correlation:  1.0000 wB97M-V
 Using SG-2 standard quadrature grid
 Nonlocal Correlation:  VV10 with C = 0.0100 and b = 6.00 and scale = 1.00000
 Grid used for NLC:  SG-1 standard quadrature
 
 Citation of the SMD model:
 Marenich, A.V.; Cramer, C.J.; Truhlar, D.G.
 J. Phys. Chem. B 2009, 113, 6378-6396.
 iSolventCode=           1
 Solvent: water                                                           
 
 vradii
            1           2           3           4           5           6
    1   1.8500000   1.8500000   1.8500000   1.8500000   1.8500000   1.8500000
            7           8           9          10          11          12
    1   1.8500000   1.2000000   1.2000000   1.2000000   1.2000000   1.2000000
           13          14          15          16          17          18
    1   1.2000000   1.5200000   1.2000000   1.2000000   1.5200000   1.2000000
           19          20          21          22
    1   1.5200000   1.5200000   1.5200000   1.5200000
 -------------------------------------------------------
 OpenMP BLAS3 based DFT computing Module                
 Release: version 1.0, May 2013, Q-Chem Inc. Pittsburgh 
 -------------------------------------------------------
 A unrestricted SCF calculation will be
 performed using Roothaan-Hall, DIIS, GDM
 SCF converges when RMS gradient is below 1.0e-07
 ---------------------------------------
  Cycle       Energy         DIIS error
 ---------------------------------------
    1    -723.2036709826      1.58e-04  Roothaan Step
 ---------------------------------------
  Cycle       Energy         DIIS error
 ---------------------------------------
    1    -723.2344814164      1.73e-04  
    2    -723.2391011927      1.30e-04  Done DIIS. Switching to GDM
 ---------------------------------------
  Cycle       Energy        RMS Gradient
 ---------------------------------------
    1    -723.2391011927      3.85e-03   Normal BFGS step
    2    -723.2393041814      8.53e-03   Normal BFGS step
    3    -723.2409108395      2.33e-03   Normal BFGS step
    4    -723.2409296242      2.01e-03   Normal BFGS step
    5    -723.2409439738      1.31e-03   Normal BFGS step
    6    -723.2409481081      1.01e-03   Normal BFGS step
    7    -723.2409514902      6.60e-04   Normal BFGS step
    8    -723.2409536027      3.30e-04   Normal BFGS step
    9    -723.2409539227      1.71e-04   Normal BFGS step
   10    -723.2409541117      1.13e-04   Normal BFGS step
   11    -723.2409541579      4.52e-05   Normal BFGS step
   12    -723.2409541759      2.40e-05   Normal BFGS step
   13    -723.2409541800      1.15e-05   Normal BFGS step
   14    -723.2409541814      5.25e-06   Normal BFGS step
   15    -723.2409541817      1.62e-06   Normal BFGS step
   16    -723.2409541818      1.40e-06   Normal BFGS step
   17    -723.2409541817      7.58e-07   Normal BFGS step
   18    -723.2409541818      4.25e-07   Normal BFGS step
   19    -723.2409541818      2.60e-07   Normal BFGS step
   20    -723.2409541818      1.32e-07   Normal BFGS step
   21    -723.2409541817      7.44e-08  Convergence criterion met
 ---------------------------------------
 SCF time:   CPU 4575.34s  wall 581.00s 
<S^2> =          1.394079385
(3)  G-ENP(liq) elect-nuc-pol free energy of system     -723.240954182 a.u.
(4)  G-CDS(liq) cavity-dispersion-solvent structure 
     free energy                                                2.6894 kcal/mol
(6)  G-S(liq) free energy of system                     -723.236668330 a.u.
 SCF   energy in the final basis set =     -723.2366683300
 Total energy in the final basis set =     -723.2366683300
 
 --------------------------------------------------------------
 
                    Orbital Energies (a.u.)
 --------------------------------------------------------------
 
 Alpha MOs
 -- Occupied --
-19.4751 -19.4466 -19.4072 -19.4054 -19.3491 -19.3453 -10.4164 -10.4125
-10.4075 -10.3952 -10.3720 -10.3573 -10.3562  -1.3956  -1.2733  -1.1754
 -1.1623  -1.0713  -0.9773  -0.9432  -0.8913  -0.8526  -0.8081  -0.7519
 -0.7127  -0.6861  -0.6651  -0.6472  -0.6441  -0.6375  -0.6250  -0.6090
 -0.5875  -0.5775  -0.5645  -0.5514  -0.5324  -0.5240  -0.5182  -0.4952
 -0.4840  -0.4620  -0.4507  -0.4342  -0.4105  -0.3996  -0.3922  -0.3877
 -0.3715  -0.3619
 -- Virtual --
 -0.0120   0.0253   0.0352   0.0363   0.0456   0.0547   0.0553   0.0702
  0.0772   0.0789   0.0865   0.0896   0.0998   0.1120   0.1246   0.1276
  0.1307   0.1345   0.1428   0.1456   0.1485   0.1512   0.1564   0.1611
  0.1684   0.1732   0.1748   0.1827   0.1862   0.1880   0.1984   0.2002
  0.2073   0.2113   0.2136   0.2180   0.2258   0.2292   0.2479   0.2530
  0.2600   0.2618   0.2716   0.2755   0.2900   0.2927   0.2974   0.3028
  0.3055   0.3124   0.3153   0.3238   0.3273   0.3298   0.3358   0.3447
  0.3476   0.3527   0.3612   0.3639   0.3673   0.3734   0.3780   0.3804
  0.3820   0.3855   0.3941   0.4044   0.4050   0.4128   0.4208   0.4266
  0.4348   0.4388   0.4515   0.4546   0.4691   0.4759   0.4824   0.4901
  0.5030   0.5044   0.5136   0.5292   0.5391   0.5603   0.5716   0.5995
  0.6116   0.6181   0.6217   0.6351   0.6375   0.6590   0.6603   0.6643
  0.6764   0.6772   0.6878   0.7017   0.7038   0.7133   0.7257   0.7308
  0.7411   0.7447   0.7474   0.7507   0.7813   0.7853   0.7940   0.8070
  0.8118   0.8296   0.8410   0.8606   0.8746   0.8841   0.8935   0.9004
  0.9209   0.9384   0.9501   0.9528   0.9731   0.9926   1.0156   1.0367
  1.0444   1.0580   1.0643   1.0738   1.0877   1.1019   1.1052   1.1206
  1.1231   1.1309   1.1464   1.1504   1.1563   1.1654   1.1769   1.1856
  1.1903   1.1970   1.2155   1.2315   1.2363   1.2402   1.2567   1.2596
  1.2715   1.2824   1.2861   1.2994   1.3028   1.3084   1.3163   1.3266
  1.3367   1.3537   1.3539   1.3605   1.3765   1.3826   1.3878   1.3997
  1.4119   1.4193   1.4241   1.4465   1.4518   1.4539   1.4706   1.4818
  1.4868   1.5018   1.5145   1.5220   1.5374   1.5436   1.5471   1.5722
  1.5774   1.5858   1.5945   1.6104   1.6161   1.6222   1.6308   1.6347
  1.6636   1.6689   1.6793   1.7066   1.7115   1.7188   1.7388   1.7522
  1.7641   1.7892   1.8069   1.8168   1.8377   1.8692   1.8898   1.8963
  1.9153   1.9472   1.9728   1.9873   2.0093   2.0399   2.0499   2.0534
  2.0849   2.1182   2.1430   2.1501   2.1773   2.1975   2.2212   2.2762
  2.2995   2.3204   2.3272   2.3408   2.3545   2.3699   2.4076   2.4207
  2.4578   2.4862   2.5125   2.5521   2.6398   2.6678   2.7031   2.7285
  2.7373   2.7416   2.7769   2.7873   2.8157   2.8202   2.8421   2.8488
  2.8823   2.8868   2.8927   2.9004   2.9254   2.9460   2.9588   2.9818
  2.9914   3.0064   3.0279   3.0326   3.0657   3.0769   3.0902   3.1025
  3.1295   3.1437   3.1517   3.1892   3.1962   3.2262   3.2434   3.2621
  3.2760   3.2888   3.2919   3.3166   3.3426   3.3514   3.3898   3.3971
  3.4078   3.4411   3.4439   3.4579   3.4765   3.4855   3.4957   3.5192
  3.5257   3.5553   3.5701   3.5998   3.6076   3.6201   3.6308   3.6516
  3.6650   3.6656   3.6807   3.7004   3.7194   3.7415   3.7462   3.7680
  3.7726   3.7861   3.8066   3.8170   3.8205   3.8515   3.8711   3.8721
  3.8929   3.9016   3.9159   3.9187   3.9454   3.9553   3.9696   3.9832
  3.9993   4.0148   4.0340   4.0403   4.0580   4.1100   4.1140   4.1310
  4.1463   4.1619   4.1976   4.2166   4.2472   4.2686   4.2919   4.3041
  4.3263   4.3314   4.3576   4.3665   4.3887   4.4065   4.4093   4.4253
  4.4295   4.4534   4.4857   4.4968   4.5081   4.5165   4.5418   4.5751
  4.5872   4.5883   4.6002   4.6079   4.6197   4.6325   4.6489   4.6546
  4.6831   4.6971   4.7119   4.7380   4.7536   4.7652   4.7756   4.7912
  4.8310   4.8842   4.9601   4.9758   4.9884   4.9963   5.0015   5.0452
  5.0650   5.0884   5.1429   5.1567   5.1605   5.1759   5.1948   5.2127
  5.2198   5.2534   5.2712   5.2848   5.2947   5.3053   5.3139   5.3245
  5.3383   5.3417   5.3524   5.3667   5.4003   5.4138   5.4385   5.4583
  5.4875   5.5095   5.5285   5.5395   5.5809   5.6071   5.6172   5.6305
  5.6565   5.6778   5.6828   5.7019   5.7294   5.7395   5.7459   5.7667
  5.7759   5.7839   5.8055   5.8744   5.9160   5.9510   5.9899   6.0347
  6.0408   6.0546   6.0926   6.1291   6.2593   6.6034   6.6109   6.6704
  6.7510   6.7535   6.7661   6.7813   6.7935   6.8024   6.9183   6.9566
  7.0083   7.0130   7.0450   7.1161   7.1407   7.1462   7.2927   7.3081
  7.3336   7.3492   7.3688   7.3838   7.4153   7.4341   7.4377   7.4622
  7.4716   7.4962   7.5545   7.6497   7.6638   7.7171   7.7942   7.8680
  7.9166   7.9764   8.1020   8.1423   8.2666  24.3809  24.7012  24.7524
 24.7915  24.8497  24.9371  25.2391  50.4898  50.5254  50.6017  50.6241
 50.6851  50.6941
 
 Beta MOs
 -- Occupied --
-19.4478 -19.4218 -19.4087 -19.4062 -19.3491 -19.3452 -10.4160 -10.4121
-10.4078 -10.3952 -10.3798 -10.3615 -10.3545  -1.3465  -1.2754  -1.1755
 -1.1624  -1.0738  -0.9815  -0.8955  -0.8751  -0.8548  -0.8126  -0.7535
 -0.7158  -0.6863  -0.6627  -0.6376  -0.6114  -0.6051  -0.5934  -0.5790
 -0.5717  -0.5642  -0.5508  -0.5468  -0.5313  -0.5246  -0.5187  -0.4963
 -0.4871  -0.4635  -0.4531  -0.4359  -0.4156  -0.3972  -0.3917  -0.3698
 -0.2815
 -- Virtual --
 -0.0216  -0.0052   0.0254   0.0356   0.0366   0.0453   0.0547   0.0559
  0.0691   0.0771   0.0783   0.0860   0.0894   0.0954   0.1104   0.1252
  0.1280   0.1312   0.1346   0.1424   0.1460   0.1491   0.1519   0.1573
  0.1608   0.1683   0.1734   0.1754   0.1812   0.1845   0.1886   0.1995
  0.2011   0.2079   0.2121   0.2148   0.2176   0.2265   0.2301   0.2485
  0.2523   0.2572   0.2642   0.2722   0.2751   0.2898   0.2926   0.2986
  0.3043   0.3056   0.3123   0.3156   0.3227   0.3289   0.3337   0.3400
  0.3465   0.3479   0.3525   0.3606   0.3631   0.3700   0.3738   0.3797
  0.3799   0.3825   0.3846   0.3941   0.4036   0.4057   0.4146   0.4256
  0.4322   0.4340   0.4381   0.4517   0.4549   0.4704   0.4774   0.4816
  0.4886   0.5008   0.5037   0.5135   0.5295   0.5374   0.5586   0.5715
  0.5983   0.6088   0.6167   0.6193   0.6344   0.6357   0.6578   0.6590
  0.6648   0.6761   0.6773   0.6870   0.6989   0.7023   0.7111   0.7230
  0.7301   0.7392   0.7428   0.7461   0.7491   0.7748   0.7820   0.7915
  0.8055   0.8082   0.8275   0.8391   0.8602   0.8725   0.8825   0.8926
  0.8987   0.9210   0.9377   0.9442   0.9516   0.9720   0.9943   1.0169
  1.0377   1.0448   1.0574   1.0661   1.0744   1.0901   1.1033   1.1092
  1.1224   1.1294   1.1394   1.1517   1.1523   1.1573   1.1786   1.1835
  1.1903   1.1939   1.2007   1.2228   1.2328   1.2361   1.2429   1.2577
  1.2684   1.2721   1.2867   1.2879   1.3012   1.3052   1.3116   1.3227
  1.3304   1.3387   1.3541   1.3561   1.3631   1.3774   1.3825   1.3880
  1.4009   1.4115   1.4192   1.4259   1.4455   1.4514   1.4559   1.4697
  1.4832   1.4867   1.5031   1.5186   1.5250   1.5383   1.5434   1.5507
  1.5720   1.5791   1.5902   1.5940   1.6175   1.6191   1.6265   1.6388
  1.6453   1.6689   1.6727   1.6820   1.7105   1.7172   1.7219   1.7466
  1.7618   1.7698   1.7910   1.8060   1.8232   1.8469   1.8696   1.8899
  1.8967   1.9209   1.9482   1.9724   1.9847   2.0092   2.0386   2.0494
  2.0560   2.0842   2.1226   2.1419   2.1487   2.1762   2.1967   2.2193
  2.2751   2.3021   2.3218   2.3426   2.3533   2.3768   2.3795   2.4130
  2.4200   2.4608   2.4876   2.5111   2.5513   2.6410   2.6713   2.7055
  2.7238   2.7343   2.7383   2.7726   2.7825   2.8056   2.8149   2.8306
  2.8444   2.8770   2.8819   2.8864   2.8961   2.9215   2.9341   2.9504
  2.9720   2.9837   2.9960   3.0169   3.0277   3.0515   3.0649   3.0801
  3.0970   3.1213   3.1364   3.1385   3.1820   3.1881   3.2173   3.2392
  3.2548   3.2713   3.2770   3.2841   3.3104   3.3362   3.3446   3.3823
  3.3915   3.4017   3.4351   3.4414   3.4481   3.4687   3.4755   3.4923
  3.5133   3.5211   3.5431   3.5679   3.5935   3.5982   3.6135   3.6198
  3.6471   3.6581   3.6611   3.6718   3.6877   3.7054   3.7345   3.7411
  3.7606   3.7701   3.7769   3.7996   3.8110   3.8159   3.8422   3.8635
  3.8680   3.8902   3.8969   3.9090   3.9163   3.9427   3.9490   3.9642
  3.9798   3.9944   4.0104   4.0287   4.0358   4.0506   4.1037   4.1100
  4.1280   4.1399   4.1572   4.1923   4.2113   4.2447   4.2657   4.2885
  4.3023   4.3184   4.3247   4.3545   4.3621   4.3813   4.3999   4.4054
  4.4177   4.4236   4.4485   4.4802   4.4932   4.5006   4.5147   4.5409
  4.5719   4.5870   4.5947   4.6008   4.6146   4.6349   4.6368   4.6761
  4.6808   4.6871   4.6945   4.7128   4.7460   4.7518   4.7641   4.7730
  4.7862   4.8265   4.8782   4.9592   4.9844   5.0272   5.0386   5.0476
  5.0655   5.1237   5.1346   5.1505   5.1599   5.1704   5.2332   5.2388
  5.2577   5.2639   5.2768   5.2819   5.2991   5.3051   5.3135   5.3228
  5.3415   5.3460   5.3506   5.3637   5.3917   5.4012   5.4128   5.4357
  5.4566   5.4851   5.5081   5.5251   5.5386   5.5740   5.5968   5.6135
  5.6294   5.6525   5.6687   5.6811   5.7016   5.7393   5.7602   5.7730
  5.7778   5.7863   5.7964   5.8047   5.8720   5.9111   5.9486   5.9862
  6.0262   6.0372   6.0497   6.0900   6.1229   6.2582   6.6035   6.6104
  6.6694   6.7531   6.7606   6.8323   6.8445   6.8867   6.9074   7.0270
  7.0405   7.0538   7.0670   7.0880   7.1178   7.1462   7.2191   7.2926
  7.3063   7.3327   7.3483   7.3818   7.4080   7.4288   7.4340   7.4602
  7.4689   7.4833   7.4953   7.5531   7.6478   7.6626   7.7174   7.7939
  7.8677   7.9151   7.9743   8.1299   8.1829   8.2657  24.3787  24.6998
 24.7501  24.7908  24.8496  24.9352  25.2372  50.5094  50.5464  50.6010
 50.6239  50.6853  50.6935
 --------------------------------------------------------------
 
          Ground-State Mulliken Net Atomic Charges

     Atom                 Charge (a.u.)    Spin (a.u.)
  --------------------------------------------------------
      1 C                    -0.203873      -0.015138
      2 C                    -0.125807      -0.004867
      3 C                    -0.345514      -0.490668
      4 C                    -0.390750       0.133174
      5 C                    -0.279264      -0.358266
      6 C                     0.063569       0.045762
      7 C                    -0.412506      -0.004999
      8 H                     0.326777       0.001050
      9 H                     0.288144      -0.006499
     10 H                     0.377921       0.021620
     11 H                     0.301155      -0.007022
     12 H                     0.326253       0.008634
     13 H                     0.251855       0.000104
     14 O                    -0.382988      -0.001816
     15 H                     0.239873       0.000210
     16 H                     0.330083       0.000132
     17 O                    -0.409679       0.001045
     18 H                     0.339927      -0.001152
     19 O                    -0.122765      -0.030777
     20 O                    -0.117023      -0.017210
     21 O                     0.033483       0.889289
     22 O                    -0.088873       0.837393
  --------------------------------------------------------
  Sum of atomic charges =     0.000000
  Sum of spin   charges =     1.000000

 -----------------------------------------------------------------
                    Cartesian Multipole Moments
 -----------------------------------------------------------------
    Charge (ESU x 10^10)
                 0.0000
    Dipole Moment (Debye)
         X      -1.3101      Y       1.1537      Z      -4.3437
       Tot       4.6814
    Quadrupole Moments (Debye-Ang)
        XX     -80.1472     XY       9.3082     YY     -82.9122
        XZ       8.6384     YZ       1.4042     ZZ     -70.3773
    Octopole Moments (Debye-Ang^2)
       XXX     207.1295    XXY      38.5424    XYY      37.0160
       YYY     201.4709    XXZ     -53.5406    XYZ      17.5069
       YYZ     -46.7994    XZZ      60.3069    YZZ      53.4656
       ZZZ    -122.7586
    Hexadecapole Moments (Debye-Ang^3)
      XXXX    -936.2630   XXXY     -47.0755   XXYY    -368.8596
      XYYY     -15.3303   YYYY   -1673.7413   XXXZ     144.6116
      XXYZ      92.8373   XYYZ      21.8535   YYYZ     385.5582
      XXZZ    -300.4506   XYZZ     -12.6017   YYZZ    -444.5915
      XZZZ     140.0225   YZZZ     313.5710   ZZZZ    -809.5194
 -----------------------------------------------------------------
 Calculating analytic gradient of the SCF energy
 Gradient of CDS energy
            1           2           3           4           5           6
    1   0.0015354  -0.0000436  -0.0000899  -0.0001553  -0.0001897   0.0000505
    2  -0.0012240   0.0001291  -0.0000882  -0.0002630   0.0000961   0.0000759
    3  -0.0009228   0.0001676   0.0002126  -0.0001199  -0.0002207   0.0001562
            7           8           9          10          11          12
    1   0.0001111  -0.0000466   0.0000724   0.0000122  -0.0001063  -0.0000390
    2   0.0009850   0.0002073  -0.0000774  -0.0001823  -0.0001534   0.0000702
    3  -0.0003661   0.0000996   0.0001619   0.0001125  -0.0000918  -0.0001147
           13          14          15          16          17          18
    1  -0.0002459  -0.0001748   0.0001319   0.0002004  -0.0015573   0.0004016
    2  -0.0002522  -0.0000875  -0.0001147  -0.0000809   0.0010852  -0.0001039
    3  -0.0000452   0.0002898   0.0002801  -0.0004637   0.0010527  -0.0002273
           19          20          21          22
    1   0.0000084   0.0000497   0.0000582   0.0000167
    2   0.0000870  -0.0000799  -0.0000001  -0.0000286
    3  -0.0000878   0.0000816   0.0000619  -0.0000164
 Gradient of SCF Energy
            1           2           3           4           5           6
    1   0.0021214  -0.0093973   0.0088040   0.0051711   0.0022910  -0.0034211
    2  -0.0088994   0.0095288  -0.0036848   0.0063614   0.0011623   0.0018064
    3  -0.0053053  -0.0010084  -0.0037125   0.0066290   0.0073326   0.0030447
            7           8           9          10          11          12
    1   0.0092386   0.0037184   0.0021193  -0.0029261  -0.0048996  -0.0039408
    2  -0.0152806   0.0053937  -0.0011309  -0.0052361  -0.0063809   0.0027519
    3   0.0028917   0.0022302   0.0047522   0.0036429  -0.0042637  -0.0154026
           13          14          15          16          17          18
    1  -0.0086780   0.0082315   0.0020897  -0.0091957   0.0005371   0.0013123
    2   0.0032091   0.0158882   0.0058769  -0.0112015  -0.0082425   0.0052593
    3  -0.0076443   0.0141235   0.0046521  -0.0137278   0.0057149  -0.0066068
           19          20          21          22
    1  -0.0011782  -0.0016687  -0.0000151  -0.0003136
    2   0.0018588   0.0009460   0.0003425  -0.0003286
    3   0.0016338   0.0008979   0.0015299  -0.0014039
 Max gradient component =       1.589E-02
 RMS gradient           =       6.398E-03
 Computing fast CPCM-SWIG gradient
 Updating gradient with PCM contributions...
 -- total gradient after adding PCM contribution --
---------------------------------------------------
  Atom         X              Y              Z     
---------------------------------------------------
   1      -0.001145      -0.000006       0.000112
   2       0.000142       0.000130      -0.000078
   3       0.000026       0.000058       0.000004
   4       0.000028      -0.000044      -0.000006
   5       0.000036      -0.000001       0.000025
   6       0.000208      -0.000029       0.000082
   7      -0.000024      -0.000009      -0.000002
   8       0.000210       0.000196       0.000109
   9      -0.000028       0.000004       0.000020
  10       0.000029      -0.000004      -0.000004
  11       0.000011      -0.000004       0.000002
  12       0.000003      -0.000009      -0.000003
  13      -0.000001       0.000001      -0.000012
  14       0.000000      -0.000007       0.000001
  15      -0.000006      -0.000004      -0.000004
  16       0.000008      -0.000013       0.000011
  17       0.000356      -0.000165      -0.000214
  18       0.000058      -0.000032      -0.000020
  19       0.000044      -0.000027      -0.000030
  20       0.000066      -0.000015      -0.000021
  21      -0.000029      -0.000009       0.000133
  22       0.000006      -0.000012      -0.000103
---------------------------------------------------
 Number of fixed atoms: 0
 Gradient time:  CPU 672.22 s  wall 95.23 s
 ----------------------------------------------------------------
             Standard Nuclear Orientation (Angstroms)
    I     Atom           X                Y                Z
 ----------------------------------------------------------------
    1      C      -0.0568356492    -0.1791173299     0.7839561656
    2      C      -0.9336704908    -0.9288542812     1.7786576951
    3      C      -1.6592052976    -2.0810597334     1.1557228011
    4      C      -2.1053357374    -1.9179068089    -0.1807021767
    5      C      -1.8627520303    -0.7573216707    -0.8328734045
    6      C      -1.1860001578     0.3675646524    -0.0926538726
    7      C      -0.7506077486     1.5244436730    -0.9765877714
    8      H       0.4366724422     0.6503542526     1.2931750506
    9      H      -0.4356447956    -1.1836102491     2.7105129536
   10      H      -2.1272375654    -2.8030467055     1.8063544442
[...]
 H         -0.038 -0.142  0.006   -0.013  0.014 -0.020    0.026  0.054  0.002
 H          0.104  0.007 -0.113    0.001 -0.084  0.028   -0.033 -0.052  0.044
 O          0.020 -0.001 -0.010    0.008  0.002 -0.012   -0.006 -0.000 -0.001
 H         -0.210 -0.174  0.279   -0.175 -0.189  0.250    0.051  0.069 -0.091
 H         -0.248  0.023  0.107   -0.092  0.006  0.032    0.091 -0.012 -0.042
 O          0.007  0.013 -0.020    0.011 -0.016  0.030    0.070 -0.090 -0.059
 H          0.273 -0.344 -0.133   -0.346  0.417  0.154   -0.069  0.129  0.017
 O          0.005 -0.001 -0.013   -0.012  0.006  0.007    0.014  0.011 -0.064
 O          0.003 -0.010  0.009    0.014 -0.029  0.001   -0.002 -0.001  0.012
 O          0.000  0.000 -0.021   -0.001  0.001  0.004    0.001 -0.000 -0.006
 O          0.006 -0.007  0.021   -0.001  0.001 -0.004    0.001 -0.001  0.006
 TransDip  -0.165  0.159 -0.024   -0.118  0.111  0.131   -0.196  0.206  0.074

 Mode:                40                     41                     42
 Frequency:      1276.33                1308.32                1316.42
 Force Cnst:      1.8979                 1.6412                 2.5578
 Red. Mass:       1.9774                 1.6273                 2.5051
 IR Active:          YES                    YES                    YES
 IR Intens:      451.259                 97.809               2637.448
 Raman Active:       YES                    YES                    YES
               X      Y      Z        X      Y      Z        X      Y      Z
 C         -0.062  0.079  0.084   -0.049  0.015  0.032   -0.022  0.008  0.033
 C          0.063 -0.012 -0.034   -0.015 -0.051 -0.013    0.076  0.070 -0.075
 C          0.002 -0.025 -0.046   -0.008 -0.011 -0.031   -0.054  0.020  0.068
 C         -0.015 -0.044  0.027    0.001  0.013 -0.018    0.002  0.033 -0.051
 C          0.022  0.036  0.022   -0.010  0.015 -0.029    0.006 -0.009  0.012
 C         -0.054  0.044 -0.127    0.107  0.024  0.141    0.018  0.034  0.003
 C          0.020 -0.006  0.045   -0.042 -0.019 -0.064    0.003  0.000 -0.013
 H         -0.407  0.102  0.385   -0.341  0.367 -0.248   -0.563  0.257  0.171
 H         -0.250  0.505  0.277    0.052  0.385  0.069   -0.339 -0.217  0.064
 H         -0.026  0.092  0.063    0.100  0.108  0.175   -0.028 -0.295 -0.263
 H          0.023 -0.044 -0.024    0.026 -0.072  0.091   -0.016 -0.153  0.290
 H          0.046  0.117  0.028   -0.143 -0.337 -0.046   -0.010 -0.048  0.010
 H         -0.173 -0.181  0.204    0.127  0.219 -0.142   -0.041 -0.020  0.040
 O         -0.009 -0.008 -0.003    0.024  0.007  0.007    0.005 -0.003 -0.003
 H          0.028  0.087 -0.084   -0.051 -0.193  0.169   -0.086 -0.066  0.127
 H          0.198 -0.032 -0.090   -0.315  0.059  0.141   -0.034 -0.006  0.017
 O          0.053 -0.078 -0.058    0.025 -0.037 -0.026    0.023 -0.055 -0.029
 H          0.016  0.008 -0.021    0.004  0.018 -0.003   -0.067  0.092  0.022
 O         -0.003 -0.003  0.035    0.010 -0.004  0.003   -0.008 -0.000  0.023
 O          0.025 -0.020  0.001   -0.007  0.004 -0.010    0.004 -0.003 -0.004
 O          0.006 -0.008  0.069    0.005 -0.006  0.036   -0.025  0.032 -0.178
 O         -0.021  0.022 -0.069   -0.011  0.012 -0.036    0.055 -0.059  0.179
 TransDip   0.332 -0.488  0.339    0.088 -0.177  0.248   -0.939  1.238 -0.540

 Mode:                43                     44                     45
 Frequency:      1354.24                1361.82                1385.18
 Force Cnst:      2.0634                 2.1063                 1.4397
 Red. Mass:       1.9096                 1.9277                 1.2736
 IR Active:          YES                    YES                    YES
 IR Intens:      138.300                214.573                 79.393
 Raman Active:       YES                    YES                    YES
               X      Y      Z        X      Y      Z        X      Y      Z
 C         -0.051  0.130 -0.060    0.096 -0.027  0.032   -0.005 -0.004 -0.026
 C         -0.035 -0.123 -0.044   -0.090 -0.136 -0.010    0.018  0.021  0.005
 C          0.053  0.085  0.092   -0.006  0.047  0.000    0.009 -0.002  0.007
 C         -0.005  0.026 -0.032   -0.015  0.024 -0.080   -0.002 -0.014  0.017
 C         -0.036 -0.087  0.008    0.039  0.034  0.055   -0.014 -0.009 -0.017
 C          0.026 -0.021  0.031   -0.051 -0.020 -0.076    0.056  0.020  0.029
 C          0.004  0.004 -0.006    0.025  0.018  0.056   -0.011 -0.001  0.095
 H          0.324 -0.133 -0.017    0.092  0.146 -0.246   -0.168  0.049  0.055
 H         -0.129  0.303  0.117    0.290  0.595 -0.020   -0.074 -0.111  0.021
 H         -0.110 -0.132 -0.274    0.151  0.072  0.131   -0.049 -0.022 -0.055
 H         -0.023  0.174 -0.249    0.002 -0.208  0.298   -0.002  0.050 -0.095
 H          0.076  0.147  0.013   -0.068 -0.182  0.061    0.000  0.002 -0.019
 H          0.013 -0.004 -0.020    0.075 -0.085 -0.082    0.473  0.103 -0.515
 O         -0.000  0.004  0.001   -0.032 -0.008 -0.014   -0.059 -0.007 -0.033
 H          0.031 -0.013 -0.002   -0.086  0.119  0.001   -0.204  0.078  0.135
 H         -0.039  0.008  0.016    0.320 -0.070 -0.148    0.515 -0.111 -0.248
 O          0.036 -0.068  0.015   -0.027  0.028  0.013   -0.001 -0.009  0.000
 H         -0.400  0.502  0.187    0.027 -0.047 -0.012   -0.031  0.045  0.018
 O          0.012 -0.001  0.009    0.001  0.011  0.010    0.000 -0.004 -0.001
 O         -0.001  0.004 -0.002   -0.000  0.002  0.011   -0.005  0.004 -0.005
 O         -0.000 -0.000 -0.013   -0.011  0.014 -0.067    0.004 -0.005  0.021
 O          0.003 -0.004  0.012    0.020 -0.022  0.067   -0.007  0.007 -0.022
 TransDip  -0.285  0.244 -0.036   -0.150  0.296 -0.332    0.244 -0.138  0.053

 Mode:                46                     47                     48
 Frequency:      1398.58                1404.45                1444.74
 Force Cnst:      2.2881                 1.5446                 2.7117
 Red. Mass:       1.9854                 1.3291                 2.2050
 IR Active:          YES                    YES                    YES
 IR Intens:       84.975                 84.200                351.515
 Raman Active:       YES                    YES                    YES
               X      Y      Z        X      Y      Z        X      Y      Z
 C          0.116 -0.101  0.035    0.007 -0.031  0.039   -0.119 -0.006  0.120
 C         -0.040 -0.031 -0.040   -0.013 -0.005 -0.027    0.017 -0.018 -0.021
 C          0.076  0.066  0.105    0.027  0.021  0.037   -0.046  0.010 -0.097
 C         -0.032 -0.052 -0.002   -0.003 -0.009  0.010    0.044 -0.020  0.138
 C         -0.008 -0.032 -0.006   -0.012 -0.028 -0.015   -0.050 -0.075 -0.044
 C          0.002  0.117 -0.062   -0.012  0.029  0.034    0.038  0.050 -0.018
 C         -0.045 -0.074  0.034    0.082  0.063 -0.074   -0.027 -0.031  0.025
 H         -0.392  0.370 -0.209   -0.013  0.115 -0.175    0.326 -0.009 -0.337
 H          0.070  0.018 -0.087    0.039  0.003 -0.056    0.037  0.262  0.037
 H         -0.224 -0.160 -0.362   -0.088 -0.063 -0.139    0.079  0.090  0.059
 H         -0.060  0.132 -0.291   -0.022  0.100 -0.154    0.032  0.276 -0.319
 H          0.078  0.203 -0.004    0.025  0.091 -0.012    0.149  0.395 -0.036
 H          0.057  0.089 -0.011   -0.267 -0.145  0.286    0.117  0.131 -0.076
 O          0.021  0.016  0.009   -0.018 -0.027 -0.009    0.002  0.002 -0.001
 H          0.213  0.047 -0.290   -0.493 -0.142  0.570   -0.005  0.048 -0.088
 H         -0.203  0.056  0.094    0.221 -0.069 -0.103   -0.008  0.002  0.005
 O         -0.037  0.027  0.006   -0.004  0.015 -0.005    0.028  0.017 -0.030
 H          0.059 -0.080 -0.022    0.090 -0.112 -0.041    0.263 -0.312 -0.133
 O         -0.010  0.003  0.009   -0.002  0.001 -0.002    0.000  0.002  0.010
 O          0.003 -0.011  0.003    0.002 -0.006  0.002    0.009 -0.005 -0.001
 O          0.008 -0.009  0.030    0.005 -0.006  0.022   -0.023  0.026 -0.091
 O         -0.011  0.011 -0.031   -0.007  0.008 -0.023    0.028 -0.030  0.091
 TransDip   0.211 -0.204  0.034    0.254 -0.121 -0.084   -0.327  0.446 -0.234

 Mode:                49                     50                     51
 Frequency:      1464.71                1485.69                1573.27
 Force Cnst:      2.7947                 1.4144                 6.9832
 Red. Mass:       2.2110                 1.0876                 4.7884
 IR Active:          YES                    YES                    YES
 IR Intens:      116.288                  3.126                  8.473
 Raman Active:       YES                    YES                    YES
               X      Y      Z        X      Y      Z        X      Y      Z
 C          0.157 -0.018 -0.140    0.001  0.007 -0.011   -0.018  0.041 -0.005
 C         -0.031 -0.035  0.083    0.001  0.002  0.003   -0.014 -0.036 -0.013
 C         -0.042 -0.008 -0.132   -0.002 -0.004  0.001    0.068  0.065  0.041
 C          0.038 -0.027  0.129    0.000  0.009 -0.011   -0.080 -0.312  0.167
 C         -0.027 -0.033 -0.044    0.001 -0.001  0.006    0.102  0.375 -0.126
 C         -0.011  0.027  0.027    0.000 -0.008 -0.001   -0.025 -0.115  0.043
 C          0.023  0.003 -0.026    0.032 -0.074 -0.007    0.002  0.007 -0.021
 H         -0.460  0.107  0.305   -0.002 -0.022  0.034    0.126 -0.078  0.029
 H          0.161  0.136  0.035   -0.008 -0.013  0.005   -0.006  0.053  0.001
 H          0.148  0.212  0.235    0.009  0.001  0.015   -0.243 -0.028 -0.283
 H          0.024  0.203 -0.223    0.004 -0.020  0.035   -0.112  0.013 -0.430
 H          0.085  0.258 -0.039   -0.003 -0.017  0.008   -0.230 -0.446 -0.190
 H         -0.098 -0.059  0.106    0.073  0.596  0.355    0.010  0.073  0.009
 O          0.001  0.000  0.001    0.006 -0.005 -0.002    0.001 -0.001  0.001
 H         -0.060 -0.051  0.098   -0.528  0.405 -0.238   -0.051  0.023 -0.008
 H         -0.026  0.003  0.011   -0.011 -0.006  0.004   -0.015  0.001  0.007
 O         -0.038 -0.013  0.036    0.000 -0.003  0.002    0.007 -0.007 -0.001
 H         -0.277  0.325  0.142   -0.031  0.033  0.012   -0.014  0.019  0.005
 O         -0.003  0.006 -0.006    0.000 -0.001  0.000    0.003  0.000 -0.002
 O         -0.010  0.005  0.003   -0.001  0.001  0.001    0.001  0.008 -0.006
 O         -0.014  0.015 -0.046    0.001 -0.001  0.003   -0.023  0.025 -0.069
 O          0.015 -0.016  0.048   -0.001  0.001 -0.003    0.019 -0.021  0.067
 TransDip  -0.036  0.285 -0.192   -0.006  0.053  0.019   -0.069  0.025 -0.058

 Mode:                52                     53                     54
 Frequency:      3070.15                3073.58                3138.96
 Force Cnst:      6.0267                 5.9082                 6.4225
 Red. Mass:       1.0852                 1.0615                 1.1063
 IR Active:          YES                    YES                    YES
 IR Intens:       43.072                 70.501                 25.209
 Raman Active:       YES                    YES                    YES
               X      Y      Z        X      Y      Z        X      Y      Z
 C         -0.041 -0.062 -0.037    0.006  0.007  0.005   -0.000 -0.001 -0.000
 C          0.002 -0.001  0.003   -0.000  0.000 -0.000    0.001 -0.000  0.002
 C          0.000  0.000  0.000   -0.000  0.000 -0.000    0.000  0.000 -0.000
 C         -0.000 -0.000 -0.000    0.000  0.000  0.000    0.000  0.000 -0.000
 C          0.000  0.000 -0.000    0.000 -0.000  0.000    0.000  0.000  0.000
 C         -0.000 -0.001  0.000   -0.001 -0.000  0.000   -0.001 -0.001 -0.001
 C         -0.005  0.008 -0.001   -0.039  0.054 -0.017   -0.058 -0.040 -0.063
 H          0.463  0.743  0.456   -0.060 -0.094 -0.059    0.005  0.006  0.006
 H         -0.025  0.013 -0.041    0.003 -0.001  0.005   -0.010  0.005 -0.017
 H          0.001  0.002 -0.002   -0.000 -0.001  0.001   -0.000 -0.000  0.001
 H          0.001  0.001  0.001   -0.000  0.000 -0.000   -0.000 -0.000 -0.000
 H          0.002 -0.001  0.007   -0.001  0.002 -0.003    0.000  0.001 -0.000
 H          0.083 -0.036  0.059    0.663 -0.298  0.469    0.358 -0.172  0.255
 O         -0.000  0.000  0.000   -0.001  0.000  0.001    0.001  0.001  0.001
 H         -0.027 -0.050 -0.044   -0.185 -0.344 -0.280    0.328  0.641  0.499
 H          0.000 -0.000  0.001    0.002  0.001  0.005   -0.013 -0.008 -0.005
 O          0.001 -0.000 -0.000   -0.000  0.000  0.000    0.000  0.000 -0.000
 H          0.004  0.001 -0.004    0.001 -0.001  0.000   -0.000 -0.001  0.000
 O         -0.000  0.000  0.000    0.000  0.000 -0.000    0.000  0.000  0.000
 O         -0.000  0.000 -0.000    0.000  0.000 -0.000    0.000  0.000  0.000
 O         -0.000  0.000 -0.000    0.000 -0.000  0.000   -0.000  0.000 -0.000
 O          0.000 -0.000  0.000   -0.000  0.000 -0.000    0.000 -0.000  0.000
 TransDip  -0.053 -0.169 -0.113   -0.145  0.226 -0.020   -0.088 -0.082 -0.107

 Mode:                55                     56                     57
 Frequency:      3144.21                3188.74                3205.57
 Force Cnst:      6.3389                 6.5141                 6.6364
 Red. Mass:       1.0883                 1.0873                 1.0962
 IR Active:          YES                    YES                    YES
 IR Intens:        4.172                  5.846                 12.237
 Raman Active:       YES                    YES                    YES
               X      Y      Z        X      Y      Z        X      Y      Z
 C         -0.003 -0.003 -0.001    0.001  0.000  0.000    0.000  0.000  0.000
 C         -0.038  0.019 -0.074    0.000 -0.000  0.001    0.000 -0.000 -0.000
 C         -0.001 -0.002  0.003   -0.001 -0.003  0.002    0.008  0.011 -0.008
 C         -0.000  0.000  0.000    0.023  0.033  0.021   -0.037 -0.056 -0.029
 C         -0.000  0.000 -0.001   -0.022  0.011 -0.067   -0.013  0.011 -0.046
 C          0.000 -0.001  0.001    0.000  0.001  0.001    0.000  0.001  0.001
 C         -0.001 -0.001 -0.001   -0.000 -0.000 -0.000   -0.000 -0.000 -0.000
 H          0.025  0.037  0.021   -0.003 -0.004 -0.003   -0.003 -0.003 -0.002
 H          0.458 -0.229  0.852   -0.005  0.002 -0.010    0.001 -0.000  0.002
 H          0.016  0.025 -0.026    0.020  0.035 -0.029   -0.085 -0.133  0.116
 H         -0.000 -0.000 -0.000   -0.277 -0.398 -0.241    0.417  0.602  0.358
 H          0.003 -0.002  0.011    0.260 -0.127  0.783    0.167 -0.085  0.504
 H          0.008 -0.003  0.005    0.001 -0.002  0.001    0.001 -0.001  0.001
 O          0.000  0.000  0.000   -0.000  0.000 -0.000   -0.000 -0.000 -0.000
 H          0.006  0.013  0.010   -0.000 -0.002  0.000   -0.000 -0.001  0.001
 H         -0.000 -0.000 -0.000   -0.001  0.000  0.003   -0.001  0.000  0.002
 O          0.000  0.000 -0.000   -0.000  0.000 -0.000   -0.000  0.000 -0.000
 H          0.001 -0.000 -0.000   -0.000 -0.000  0.001   -0.000 -0.000  0.001
 O         -0.001  0.001 -0.000   -0.000  0.000 -0.000   -0.000 -0.000 -0.000
 O          0.000 -0.001  0.001    0.000  0.000 -0.000    0.000  0.000 -0.000
 O         -0.000  0.000 -0.001   -0.000  0.000 -0.001   -0.000 -0.000  0.000
 O          0.000 -0.000  0.001    0.000 -0.000  0.001   -0.000  0.000 -0.000
 TransDip   0.002 -0.054 -0.037    0.061 -0.046  0.015   -0.065 -0.016 -0.090

 Mode:                58                     59                     60
 Frequency:      3232.17                3750.70                3823.82
 Force Cnst:      6.7240                 8.8377                 9.1900
 Red. Mass:       1.0924                 1.0663                 1.0668
 IR Active:          YES                    YES                    YES
 IR Intens:        3.805                281.222                131.923
 Raman Active:       YES                    YES                    YES
               X      Y      Z        X      Y      Z        X      Y      Z
 C          0.001  0.001 -0.000    0.000  0.001 -0.001   -0.000 -0.000 -0.000
 C          0.002  0.001  0.004   -0.000  0.000  0.000    0.000  0.000  0.000
 C         -0.035 -0.058  0.052    0.000 -0.000  0.000    0.000 -0.000  0.000
 C         -0.009 -0.013 -0.009   -0.000  0.000 -0.000   -0.000  0.000 -0.000
 C         -0.001  0.003 -0.006    0.000  0.000  0.000    0.000 -0.000  0.000
 C          0.000  0.000  0.000   -0.000 -0.000  0.000   -0.000  0.000 -0.000
 C          0.000  0.000 -0.000   -0.000  0.000  0.000   -0.002 -0.001 -0.001
 H         -0.002 -0.004 -0.002   -0.001  0.005  0.003    0.000  0.000  0.000
 H         -0.018  0.005 -0.033   -0.000 -0.000  0.000   -0.000 -0.000  0.000
 H          0.411  0.661 -0.588   -0.000 -0.000  0.000   -0.000 -0.000  0.000
 H          0.097  0.137  0.085   -0.000 -0.000 -0.000   -0.000 -0.000  0.000
 H          0.019 -0.011  0.059   -0.000 -0.000 -0.001   -0.001  0.001 -0.002
 H          0.000 -0.000  0.001    0.001  0.000 -0.001   -0.001  0.001  0.005
 O         -0.000 -0.000  0.000   -0.000 -0.001 -0.002   -0.023 -0.032 -0.049
 H         -0.000 -0.001 -0.000    0.000 -0.000 -0.001    0.004  0.009  0.009
 H          0.000  0.000  0.000    0.013  0.016  0.025    0.384  0.503  0.771
 O         -0.000  0.000  0.000    0.022  0.031 -0.049   -0.001 -0.001  0.002
 H         -0.000 -0.000  0.001   -0.346 -0.505  0.787    0.009  0.017 -0.026
 O          0.000 -0.000  0.000   -0.000 -0.000  0.000   -0.000 -0.000  0.000
 O         -0.000  0.000 -0.000   -0.000  0.000 -0.000   -0.000 -0.000  0.000
 O          0.001 -0.000  0.000   -0.000  0.000 -0.000   -0.000  0.000 -0.000
 O         -0.000  0.000 -0.001    0.000 -0.000  0.000    0.000 -0.000  0.000
 TransDip  -0.050 -0.024  0.029   -0.155 -0.252  0.448    0.074  0.148  0.329

 STANDARD THERMODYNAMIC QUANTITIES AT   298.15 K  AND     1.00 ATM

   This Molecule has  1 Imaginary Frequencies
   Zero point vibrational energy:      101.799 kcal/mol

   Atom    1 Element C  Has Mass   12.00000
   Atom    2 Element C  Has Mass   12.00000
   Atom    3 Element C  Has Mass   12.00000
   Atom    4 Element C  Has Mass   12.00000
   Atom    5 Element C  Has Mass   12.00000
   Atom    6 Element C  Has Mass   12.00000
   Atom    7 Element C  Has Mass   12.00000
   Atom    8 Element H  Has Mass    1.00783
   Atom    9 Element H  Has Mass    1.00783
   Atom   10 Element H  Has Mass    1.00783
   Atom   11 Element H  Has Mass    1.00783
   Atom   12 Element H  Has Mass    1.00783
   Atom   13 Element H  Has Mass    1.00783
   Atom   14 Element O  Has Mass   15.99491
   Atom   15 Element H  Has Mass    1.00783
   Atom   16 Element H  Has Mass    1.00783
   Atom   17 Element O  Has Mass   15.99491
   Atom   18 Element H  Has Mass    1.00783
   Atom   19 Element O  Has Mass   15.99491
   Atom   20 Element O  Has Mass   15.99491
   Atom   21 Element O  Has Mass   15.99491
   Atom   22 Element O  Has Mass   15.99491
   Molecular Mass:   189.039930 amu
   Principal axes and moments of inertia in amu*Bohr^2:
                             1           2           3
    Eigenvalues --     1344.44972  2839.54406  3252.96635
          X              -0.10460     0.76532     0.63510
          Y               0.86783    -0.24165     0.43414
          Z              -0.48573    -0.59657     0.63889
   Rotational Symmetry Number is   1
   The Molecule is an Asymmetric Top
   Translational Enthalpy:        0.889 kcal/mol
   Rotational Enthalpy:           0.889 kcal/mol
   Vibrational Enthalpy:        107.817 kcal/mol
   gas constant (RT):             0.592 kcal/mol
   Translational Entropy:        41.616  cal/mol.K
   Rotational Entropy:           30.896  cal/mol.K
   Vibrational Entropy:          39.290  cal/mol.K

   Total Enthalpy:              110.187 kcal/mol
   Total Entropy:               111.803  cal/mol.K
 Total job time:  95876.34s(wall), 740751.89s(cpu) 
 Fri Mar 24 01:12:52 2023

        *************************************************************
        *                                                           *
        *  Thank you very much for using Q-Chem.  Have a nice day.  *
        *                                                           *
        *************************************************************


