
Running Job 1 of 1 Q_in.in
qchem Q_in.in_74330.0 /scratch/ari.fischer/qChem1516505.hpc-mn1/qchem74330/ 0
/usr/local/qchem-5.4.1/exe/qcprog.exe_s Q_in.in_74330.0 /scratch/ari.fischer/qChem1516505.hpc-mn1/qchem74330/
                  Welcome to Q-Chem
     A Quantum Leap Into The Future Of Chemistry


 Q-Chem 5.4, Q-Chem, Inc., Pleasanton, CA (2021)

 License issued to: Nanyang Technological University (site)

 E. Epifanovsky,  A. T. B. Gilbert,  Xintian Feng,  Joonho Lee,  Yuezhi Mao,  
 N. Mardirossian,  P. Pokhilko,  A. White,  M. Wormit,  M. P. Coons,  
 A. L. Dempwolff,  Zhengting Gan,  D. Hait,  P. R. Horn,  L. D. Jacobson,  
 I. Kaliman,  J. Kussmann,  A. W. Lange,  Ka Un Lao,  D. S. Levine,  Jie Liu,  
 S. C. McKenzie,  A. F. Morrison,  K. Nanda,  F. Plasser,  D. R. Rehn,  
 M. L. Vidal,  Zhi-Qiang You,  Ying Zhu,  B. Alam,  B. Albrecht,  
 A. Aldossary,  E. Alguire,  J. H. Andersen,  D. Barton,  K. Begam,  A. Behn,  
 Y. A. Bernard,  E. J. Berquist,  H. Burton,  A. Carreras,  K. Carter-Fenk,  
 R. Chakraborty,  A. D. Chien,  K. D. Closser,  V. Cofer-Shabica,  
 S. Dasgupta,  Jia Deng,  M. de Wergifosse,  M. Diedenhofen,  Hainam Do,  
 S. Ehlert,  Po-Tung Fang,  S. Fatehi,  Qingguo Feng,  T. Friedhoff,  
 J. Gayvert,  Qinghui Ge,  G. Gidofalvi,  M. Goldey,  J. Gomes,  
 C. Gonzalez-Espinoza,  S. Gulania,  A. Gunina,  M. W. D. Hanson-Heine,  
 P. H. P. Harbach,  A. W. Hauser,  M. F. Herbst,  M. Hernandez Vera,  
 M. Hodecker,  Z. C. Holden,  S. Houck,  Xunkun Huang,  Kerwin Hui,  
 B. C. Huynh,  M. Ivanov,  Hyunjun Ji,  Hanjie Jiang,  B. Kaduk,  S. Kaehler,  
 K. Khistyaev,  Jaehoon Kim,  P. Klunzinger,  Z. Koczor-Benda,  
 Joong Hoon Koh,  D. Kosenkov,  L. Koulias,  T. Kowalczyk,  C. M. Krauter,  
 K. Kue,  A. Kunitsa,  T. Kus,  A. Landau,  K. V. Lawler,  D. Lefrancois,  
 S. Lehtola,  Rain Li,  Yi-Pei Li,  Jiashu Liang,  M. Liebenthal,  
 Hung-Hsuan Lin,  You-Sheng Lin,  Fenglai Liu,  Kuan-Yu Liu,  
 M. Loipersberger,  A. Luenser,  A. Manjanath,  P. Manohar,  E. Mansoor,  
 S. F. Manzer,  Shan-Ping Mao,  A. V. Marenich,  T. Markovich,  S. Mason,  
 S. A. Maurer,  P. F. McLaughlin,  M. F. S. J. Menger,  J.-M. Mewes,  
 S. A. Mewes,  P. Morgante,  J. W. Mullinax,  K. J. Oosterbaan,  G. Paran,  
 Alexander C. Paul,  Suranjan K. Paul,  F. Pavosevic,  Zheng Pei,  S. Prager,  
 E. I. Proynov,  E. Ramos,  B. Rana,  A. E. Rask,  A. Rettig,  R. M. Richard,  
 F. Rob,  E. Rossomme,  T. Scheele,  M. Scheurer,  M. Schneider,  
 N. Sergueev,  S. M. Sharada,  W. Skomorowski,  D. W. Small,  C. J. Stein,  
 Yu-Chuan Su,  E. J. Sundstrom,  Zhen Tao,  J. Thirman,  T. Tsuchimochi,  
 N. M. Tubman,  S. P. Veccham,  O. Vydrov,  J. Wenzel,  J. Witte,  A. Yamada,  
 Kun Yao,  S. Yeganeh,  S. R. Yost,  A. Zech,  Igor Ying Zhang,  Xing Zhang,  
 Yu Zhang,  D. Zuev,  A. Aspuru-Guzik,  A. T. Bell,  N. A. Besley,  
 K. B. Bravaya,  B. R. Brooks,  D. Casanova,  Jeng-Da Chai,  S. Coriani,  
 C. J. Cramer,  A. E. DePrince, III,  R. A. DiStasio Jr.,  A. Dreuw,  
 B. D. Dunietz,  T. R. Furlani,  W. A. Goddard III,  S. Grimme,  
 S. Hammes-Schiffer,  T. Head-Gordon,  W. J. Hehre,  Chao-Ping Hsu,  
 T.-C. Jagau,  Yousung Jung,  A. Klamt,  Jing Kong,  D. S. Lambrecht,  
 WanZhen Liang,  N. J. Mayhall,  C. W. McCurdy,  J. B. Neaton,  
 C. Ochsenfeld,  J. A. Parkhill,  R. Peverati,  V. A. Rassolov,  Yihan Shao,  
 L. V. Slipchenko,  T. Stauch,  R. P. Steele,  J. E. Subotnik,  
 A. J. W. Thom,  A. Tkatchenko,  D. G. Truhlar,  T. Van Voorhis,  
 T. A. Wesolowski,  K. B. Whaley,  H. L. Woodcock III,  P. M. Zimmerman,  
 S. Faraji,  P. M. W. Gill,  M. Head-Gordon,  J. M. Herbert,  A. I. Krylov

 Additional authors for Version 5.4.1: 
 S. Kotaru,  Shaozhi Li,  Xiangyuan Li,  F. Matz,  A. Molle,  Haisheng Ren,  
 Yingli Su,  Hung-Yi Tsai,  C. Utku,  Fang Wang

 Contributors to earlier versions of Q-Chem not listed above: 
 R. D. Adamson,  B. Austin,  R. Baer,  J. Baker,  G. J. O. Beran,  
 K. Brandhorst,  S. T. Brown,  E. F. C. Byrd,  A. K. Chakraborty,  
 G. K. L. Chan,  Chun-Min Chang,  Yunqing Chen,  C.-L. Cheng,  
 Siu Hung Chien,  D. M. Chipman,  D. L. Crittenden,  H. Dachsel,  
 R. J. Doerksen,  A. D. Dutoi,  R. G. Edgar,  J. Fosso-Tande,  
 L. Fusti-Molnar,  D. Ghosh,  A. Ghysels,  A. Golubeva-Zadorozhnaya,  
 J. Gonthier,  M. S. Gordon,  S. R. Gwaltney,  G. Hawkins,  J. E. Herr,  
 A. Heyden,  S. Hirata,  E. G. Hohenstein,  G. Kedziora,  F. J. Keil,  
 C. Kelley,  Jihan Kim,  R. A. King,  R. Z. Khaliullin,  P. P. Korambath,  
 W. Kurlancheek,  A. Laurent,  A. M. Lee,  M. S. Lee,  S. V. Levchenko,  
 Ching Yeh Lin,  D. Liotard,  E. Livshits,  R. C. Lochan,  I. Lotan,  
 L. A. Martinez-Martinez,  P. E. Maslen,  N. Nair,  D. P. O'Neill,  
 D. Neuhauser,  E. Neuscamman,  C. M. Oana,  R. Olivares-Amaya,  R. Olson,  
 T. M. Perrine,  B. Peters,  P. A. Pieniazek,  A. Prociuk,  Y. M. Rhee,  
 J. Ritchie,  M. A. Rohrdanz,  E. Rosta,  N. J. Russ,  H. F. Schaefer III,  
 M. W. Schmidt,  N. E. Schultz,  S. Sharma,  N. Shenvi,  C. D. Sherrill,  
 A. C. Simmonett,  A. Sodt,  T. Stein,  D. Stuck,  K. S. Thanthiriwatte,  
 V. Vanovschi,  L. Vogt,  Tao Wang,  A. Warshel,  M. A. Watson,  
 C. F. Williams,  Q. Wu,  X. Xu,  Jun Yang,  W. Zhang,  Yan Zhao

 Please cite Q-Chem as follows:
 Y. Shao et al., Mol. Phys. 113, 184-215 (2015)
 DOI: 10.1080/00268976.2014.952696

 Q-Chem 5.4.1 for Intel X86 EM64T Linux

 Parts of Q-Chem use Armadillo 9.800.1 (Horizon Scraper).
 http://arma.sourceforge.net/

 Q-Chem begins on Fri Apr 21 21:43:36 2023  

 Host: 
0

     Scratch files written to /scratch/ari.fischer/qChem1516505.hpc-mn1/qchem74330//
 Aug1521 |scratch|qcdevops|jenkins|workspace|build_RNUM 8249   
 Processing $rem in /usr/local/qchem-5.4.1/config/preferences:
 Processing $rem in /home/ari.fischer/.qchemrc:
 Symmetry turned off for PCM/SM12/SMD calculation


!!********************************************.
!!******************Warning*******************.
!!Desired Analytical derivatives not available.
!!Finite difference job might take a long time.
!!********************************************.
!!********************************************.


 2-order derivative to be evaluated numerically with 1-order analytical derivatives

 Checking the input file for inconsistencies... 	...done.

--------------------------------------------------------------
User input:
--------------------------------------------------------------
$molecule
0 2
C        -0.2253534428   -0.1397844562    0.6729784886
C        -0.8962185549   -1.1056838838    1.6481956904
C        -1.9111381252   -2.0273790149    1.0609817773
C        -2.4186674228   -1.8017075940   -0.1485992126
C        -2.0172186874   -0.6438624830   -0.9492583522
C        -1.0222774662    0.1571977686   -0.5706338622
C        -0.6030504200    1.3613803407   -1.3549606604
H        -0.0375569227    0.7947365936    1.2107018004
H        -0.1138878584   -1.6575745243    2.1662229861
H        -2.2186896339   -2.8742727498    1.6588159940
H        -3.1557219310   -2.4767189707   -0.5626930686
H        -2.5567947821   -0.4429850858   -1.8664805983
H        -1.2317475232    1.4810840489   -2.2375104374
O         0.7833353835    1.2935123556   -1.7280546825
H        -0.6944428048    2.2569694126   -0.7398515534
H         0.8689011078    0.6271613359   -2.4195808729
O         1.0263646134   -0.7451276272    0.3216924494
H         1.4125072101   -0.1873596416   -0.3684671293
O        -1.5016542552   -0.3419563325    2.7540906430
O        -2.5056968840    0.3847931077    2.3523852005
$end

$rem
BASIS = 6-311++G(2df,2p)
GUI = 2
JOB_TYPE = Frequency
METHOD = wB97M-V
SOLVENT_METHOD = SMD
SCF_ALGORITHM = DIIS_GDM
MAX_SCF_CYCLES = 400
SCF_CONVERGENCE = 7
THRESH = 12
UNRESTRICTED = 1
SYMMETRY_IGNORE = 1
$end
--------------------------------------------------------------
 ----------------------------------------------------------------
             Standard Nuclear Orientation (Angstroms)
    I     Atom           X                Y                Z
 ----------------------------------------------------------------
    1      C      -0.2253534428    -0.1397844562     0.6729784886
    2      C      -0.8962185549    -1.1056838838     1.6481956904
    3      C      -1.9111381252    -2.0273790149     1.0609817773
    4      C      -2.4186674228    -1.8017075940    -0.1485992126
    5      C      -2.0172186874    -0.6438624830    -0.9492583522
    6      C      -1.0222774662     0.1571977686    -0.5706338622
    7      C      -0.6030504200     1.3613803407    -1.3549606604
    8      H      -0.0375569227     0.7947365936     1.2107018004
    9      H      -0.1138878584    -1.6575745243     2.1662229861
   10      H      -2.2186896339    -2.8742727498     1.6588159940
   11      H      -3.1557219310    -2.4767189707    -0.5626930686
   12      H      -2.5567947821    -0.4429850858    -1.8664805983
   13      H      -1.2317475232     1.4810840489    -2.2375104374
   14      O       0.7833353835     1.2935123556    -1.7280546825
   15      H      -0.6944428048     2.2569694126    -0.7398515534
   16      H       0.8689011078     0.6271613359    -2.4195808729
   17      O       1.0263646134    -0.7451276272     0.3216924494
   18      H       1.4125072101    -0.1873596416    -0.3684671293
   19      O      -1.5016542552    -0.3419563325     2.7540906430
   20      O      -2.5056968840     0.3847931077     2.3523852005
 ----------------------------------------------------------------
 Nuclear Repulsion Energy =         642.44399352 hartrees
 There are       42 alpha and       41 beta electrons
 Requested basis set is 6-311++G(2df,2p)
 There are 142 shells and 464 basis functions

 Total QAlloc Memory Limit 288000 MB
 Mega-Array Size       188 MB
 MEM_STATIC part       192 MB
 
 Citation of the SMD model:
 Marenich, A.V.; Cramer, C.J.; Truhlar, D.G.
 J. Phys. Chem. B 2009, 113, 6378-6396.
 iSolventCode=           1
 Solvent: water                                                           
 
 vradii
            1           2           3           4           5           6
    1   1.8500000   1.8500000   1.8500000   1.8500000   1.8500000   1.8500000
            7           8           9          10          11          12
    1   1.8500000   1.2000000   1.2000000   1.2000000   1.2000000   1.2000000
           13          14          15          16          17          18
    1   1.2000000   1.5200000   1.2000000   1.2000000   1.5200000   1.2000000
           19          20
    1   1.5200000   1.5200000
 Changing PCM_VDW_RADII to SMD_RADIUS
 Discretize the solute cavity surface with Lebedev spheres
	Using 110 Lebedev grid points for each H atom
	Using 194 Lebedev grid points for other atoms
	Atomic van der Waals radii will be scaled by 1.20
 Remove points where switching function is < 1.0e-08
 Keep 1495 surface tesserae and discard 1629 interior tesserae
 Molecular Surface Area = 170.883 Angst**2
 A cutoff of  1.0D-12 yielded   9019 shell pairs
 There are     96962 function pairs (    121050 Cartesian)
 Smallest overlap matrix eigenvalue = 1.47E-06
 Guess from superposition of atomic densities
 Warning:  Energy on first SCF cycle will be non-variational
 SAD guess density has 83.000000 electrons

 -----------------------------------------------------------------------
  General SCF calculation program by
  Eric Jon Sundstrom, Paul Horn, Yuezhi Mao, Dmitri Zuev, Alec White,
  David Stuck, Shaama M.S., Shane Yost, Joonho Lee, David Small,
  Daniel Levine, Susi Lehtola, Hugh Burton, Evgeny Epifanovsky,
  Bang C. Huynh
 -----------------------------------------------------------------------
 Exchange:     0.1500 Hartree-Fock + 1.0000 wB97M-V + LR-HF
 Correlation:  1.0000 wB97M-V
 Using SG-2 standard quadrature grid
 Nonlocal Correlation:  VV10 with C = 0.0100 and b = 6.00 and scale = 1.00000
 Grid used for NLC:  SG-1 standard quadrature
 using 8 threads for integral computing
 -------------------------------------------------------
 OpenMP Integral computing Module                
 Release: version 1.0, May 2013, Q-Chem Inc. Pittsburgh 
 -------------------------------------------------------
 
 Citation of the SMD model:
 Marenich, A.V.; Cramer, C.J.; Truhlar, D.G.
 J. Phys. Chem. B 2009, 113, 6378-6396.
 iSolventCode=           1
 Solvent: water                                                           
 
 vradii
            1           2           3           4           5           6
    1   1.8500000   1.8500000   1.8500000   1.8500000   1.8500000   1.8500000
            7           8           9          10          11          12
    1   1.8500000   1.2000000   1.2000000   1.2000000   1.2000000   1.2000000
           13          14          15          16          17          18
    1   1.2000000   1.5200000   1.2000000   1.2000000   1.5200000   1.2000000
           19          20
    1   1.5200000   1.5200000
 -------------------------------------------------------
 OpenMP BLAS3 based DFT computing Module                
 Release: version 1.0, May 2013, Q-Chem Inc. Pittsburgh 
 -------------------------------------------------------
 A unrestricted SCF calculation will be
 performed using DIIS, GDM
 SCF converges when RMS gradient is below 1.0e-07
 ---------------------------------------
  Cycle       Energy         DIIS error
 ---------------------------------------
    1    -575.7542195279      1.17e-02  
    2    -572.7582454002      1.23e-03  Done DIIS. Switching to GDM
 ---------------------------------------
  Cycle       Energy        RMS Gradient
 ---------------------------------------
    1    -572.7582454002      8.89e-02   Descent step
    2    -572.8771072743      2.15e-02   Normal BFGS step
    3    -572.8941822990      2.47e-02   Normal BFGS step
    4    -572.8977250192      5.15e-03   Normal BFGS step
    5    -572.8987530564      3.72e-03   Normal BFGS step
    6    -572.8989591236      3.02e-03   Normal BFGS step
    7    -572.8990247282      1.69e-03   Normal BFGS step
    8    -572.8990465245      9.31e-04   Normal BFGS step
    9    -572.8990499088      7.22e-04   Normal BFGS step
   10    -572.8990513504      4.65e-04   Normal BFGS step
   11    -572.8990521457      3.25e-04   Normal BFGS step
   12    -572.8990529900      2.31e-04   Normal BFGS step
   13    -572.8990534185      1.66e-04   Normal BFGS step
   14    -572.8990535391      7.94e-05   Normal BFGS step
   15    -572.8990535622      2.25e-05   Normal BFGS step
   16    -572.8990535678      1.03e-05   Normal BFGS step
   17    -572.8990535688      7.82e-06   Normal BFGS step
   18    -572.8990535691      4.66e-06   Normal BFGS step
   19    -572.8990535693      3.32e-06   Normal BFGS step
   20    -572.8990535695      1.61e-06   Normal BFGS step
   21    -572.8990535694      4.57e-07   Normal BFGS step
   22    -572.8990535694      1.43e-07   Normal BFGS step
   23    -572.8990535694      1.10e-07   Normal BFGS step
   24    -572.8990535694      5.79e-08  Convergence criterion met
 ---------------------------------------
 SCF time:   CPU 3784.87s  wall 484.00s 
<S^2> =          0.754138697
(3)  G-ENP(liq) elect-nuc-pol free energy of system     -572.899053569 a.u.
(4)  G-CDS(liq) cavity-dispersion-solvent structure 
     free energy                                                2.9924 kcal/mol
(6)  G-S(liq) free energy of system                     -572.894284824 a.u.
 SCF   energy in the final basis set =     -572.8942848243
 Total energy in the final basis set =     -572.8942848243
 
 --------------------------------------------------------------
 
                    Orbital Energies (a.u.)
 --------------------------------------------------------------
 
 Alpha MOs
 -- Occupied --
-19.4634 -19.4164 -19.3434 -19.3408 -10.4127 -10.4070 -10.3892 -10.3542
-10.3537 -10.3497 -10.3495  -1.3432  -1.1681  -1.1529  -1.0233  -0.9672
 -0.8963  -0.8587  -0.8020  -0.7502  -0.7174  -0.6682  -0.6442  -0.6345
 -0.6193  -0.6086  -0.5900  -0.5794  -0.5537  -0.5447  -0.5364  -0.5126
 -0.5041  -0.4715  -0.4536  -0.4414  -0.4295  -0.4095  -0.4033  -0.3914
 -0.3803  -0.3286
 -- Virtual --
  0.0163   0.0267   0.0362   0.0396   0.0454   0.0551   0.0586   0.0745
  0.0789   0.0846   0.0972   0.0996   0.1141   0.1207   0.1308   0.1350
  0.1407   0.1446   0.1514   0.1553   0.1577   0.1614   0.1664   0.1720
  0.1797   0.1814   0.1851   0.1915   0.1944   0.1986   0.2047   0.2052
  0.2096   0.2154   0.2248   0.2325   0.2466   0.2549   0.2594   0.2669
  0.2719   0.2725   0.2786   0.2841   0.2938   0.3044   0.3111   0.3144
  0.3184   0.3288   0.3327   0.3382   0.3421   0.3482   0.3544   0.3673
  0.3713   0.3796   0.3854   0.3902   0.3926   0.3964   0.4054   0.4115
  0.4166   0.4179   0.4387   0.4440   0.4566   0.4585   0.4749   0.4770
  0.5052   0.5313   0.5476   0.5541   0.5788   0.5873   0.5922   0.6008
  0.6148   0.6201   0.6316   0.6446   0.6506   0.6604   0.6650   0.6729
  0.6844   0.6868   0.6942   0.7003   0.7133   0.7164   0.7220   0.7380
  0.7418   0.7559   0.7604   0.7696   0.7881   0.7947   0.8044   0.8111
  0.8310   0.8328   0.8398   0.8493   0.8552   0.8892   0.8934   0.9029
  0.9129   0.9362   0.9662   0.9712   0.9948   1.0054   1.0305   1.0493
  1.0574   1.0611   1.0889   1.1105   1.1134   1.1271   1.1419   1.1467
  1.1550   1.1659   1.1828   1.1880   1.1985   1.2044   1.2153   1.2246
  1.2272   1.2483   1.2506   1.2587   1.2638   1.2700   1.2826   1.3025
  1.3073   1.3178   1.3345   1.3373   1.3575   1.3630   1.3783   1.3960
  1.4095   1.4122   1.4287   1.4318   1.4333   1.4471   1.4561   1.4585
  1.4727   1.4959   1.5058   1.5180   1.5258   1.5359   1.5473   1.5693
  1.5725   1.5853   1.6094   1.6222   1.6294   1.6504   1.6588   1.6772
  1.6847   1.7006   1.7032   1.7256   1.7460   1.7722   1.7861   1.8097
  1.8409   1.8448   1.8614   1.9049   1.9386   1.9550   1.9590   2.0171
  2.0219   2.0557   2.0826   2.1136   2.1383   2.1589   2.1727   2.1956
  2.2350   2.2807   2.3278   2.3404   2.3533   2.3769   2.4290   2.4411
  2.4732   2.5685   2.6236   2.6413   2.6766   2.7021   2.7144   2.7232
  2.7614   2.8093   2.8219   2.8311   2.8354   2.8468   2.8754   2.8887
  2.9017   2.9076   2.9387   2.9560   2.9682   2.9723   2.9824   2.9897
  3.0043   3.0114   3.0387   3.0498   3.0724   3.0856   3.1186   3.1319
  3.1473   3.1751   3.1901   3.2093   3.2273   3.2367   3.2516   3.2748
  3.3017   3.3113   3.3323   3.3483   3.3654   3.3808   3.3989   3.4056
  3.4135   3.4280   3.4297   3.4595   3.4781   3.5022   3.5102   3.5165
  3.5326   3.5467   3.5667   3.5852   3.6085   3.6257   3.6460   3.6617
  3.6684   3.6999   3.7142   3.7316   3.7489   3.7714   3.7744   3.7813
  3.8034   3.8213   3.8311   3.8545   3.8626   3.8739   3.8853   3.8966
  3.9204   3.9319   3.9467   3.9732   3.9775   3.9978   4.0154   4.0248
  4.0377   4.0760   4.0937   4.1255   4.1443   4.1688   4.1792   4.2054
  4.2354   4.2368   4.2522   4.2823   4.2996   4.3245   4.3354   4.3372
  4.3501   4.3674   4.3856   4.4006   4.4143   4.4380   4.4499   4.4666
  4.4901   4.5057   4.5369   4.5569   4.5796   4.6050   4.6225   4.6387
  4.6627   4.7072   4.7166   4.7473   4.7538   4.7851   4.8092   4.8780
  4.8850   4.9047   4.9465   4.9793   5.0248   5.0447   5.0619   5.0866
  5.1078   5.1211   5.1687   5.2151   5.2289   5.2634   5.2714   5.2785
  5.2990   5.3085   5.3322   5.3445   5.3508   5.3916   5.3999   5.4078
  5.4430   5.4660   5.5029   5.5340   5.5419   5.5723   5.6057   5.6639
  5.6690   5.6855   5.6896   5.7231   5.7479   5.7680   5.7974   5.8594
  5.8818   5.9021   5.9517   6.0061   6.0278   6.0945   6.3073   6.4413
  6.4749   6.5882   6.6007   6.6494   6.8843   6.9150   6.9836   7.1048
  7.1170   7.1358   7.2139   7.2544   7.2908   7.3094   7.3525   7.3740
  7.3896   7.4008   7.4319   7.4445   7.6364   7.7015   7.7839   7.8180
  7.8715   8.0276   8.0876  24.3165  24.5863  24.7294  24.7887  24.8017
 25.1522  25.3799  50.4275  50.5526  50.6022  50.6387
 
 Beta MOs
 -- Occupied --
-19.4529 -19.3978 -19.3434 -19.3408 -10.4131 -10.4067 -10.3892 -10.3543
-10.3537 -10.3497 -10.3492  -1.3167  -1.1680  -1.1529  -1.0009  -0.9582
 -0.8945  -0.8513  -0.8015  -0.7456  -0.7148  -0.6609  -0.6402  -0.6207
 -0.6075  -0.5886  -0.5857  -0.5688  -0.5494  -0.5368  -0.5198  -0.5056
 -0.5035  -0.4628  -0.4499  -0.4397  -0.4289  -0.3956  -0.3916  -0.3821
 -0.3275
 -- Virtual --
 -0.0318   0.0176   0.0270   0.0363   0.0401   0.0455   0.0552   0.0586
  0.0747   0.0792   0.0848   0.0978   0.1000   0.1149   0.1215   0.1312
  0.1359   0.1412   0.1452   0.1517   0.1558   0.1581   0.1620   0.1666
  0.1724   0.1801   0.1820   0.1856   0.1926   0.1953   0.1989   0.2049
  0.2062   0.2103   0.2172   0.2274   0.2331   0.2470   0.2576   0.2631
  0.2678   0.2726   0.2747   0.2796   0.2860   0.2946   0.3061   0.3123
  0.3165   0.3206   0.3300   0.3332   0.3390   0.3434   0.3488   0.3549
  0.3675   0.3729   0.3807   0.3871   0.3918   0.3931   0.3969   0.4057
  0.4119   0.4185   0.4190   0.4393   0.4446   0.4571   0.4590   0.4765
  0.4785   0.5054   0.5317   0.5480   0.5545   0.5791   0.5876   0.5926
  0.6009   0.6148   0.6202   0.6318   0.6450   0.6523   0.6606   0.6656
  0.6730   0.6846   0.6872   0.6946   0.7004   0.7134   0.7167   0.7224
  0.7382   0.7420   0.7564   0.7606   0.7703   0.7887   0.7948   0.8051
  0.8112   0.8314   0.8334   0.8399   0.8494   0.8554   0.8894   0.8939
  0.9032   0.9131   0.9368   0.9667   0.9730   0.9956   1.0068   1.0342
  1.0502   1.0578   1.0631   1.0900   1.1114   1.1137   1.1313   1.1460
  1.1484   1.1561   1.1692   1.1842   1.1909   1.2037   1.2128   1.2263
  1.2290   1.2350   1.2527   1.2551   1.2592   1.2663   1.2723   1.2838
  1.3037   1.3082   1.3209   1.3371   1.3408   1.3588   1.3649   1.3797
  1.3968   1.4105   1.4131   1.4317   1.4332   1.4353   1.4480   1.4572
  1.4608   1.4748   1.4972   1.5070   1.5194   1.5270   1.5445   1.5490
  1.5709   1.5741   1.5860   1.6132   1.6246   1.6310   1.6522   1.6626
  1.6801   1.6879   1.7089   1.7128   1.7339   1.7514   1.7811   1.7879
  1.8157   1.8453   1.8484   1.8704   1.9071   1.9458   1.9573   1.9625
  2.0177   2.0225   2.0589   2.0848   2.1173   2.1403   2.1663   2.1759
  2.1970   2.2396   2.2833   2.3382   2.3493   2.3619   2.3795   2.4294
  2.4427   2.4754   2.5701   2.6238   2.6461   2.6769   2.7036   2.7157
  2.7240   2.7618   2.8098   2.8228   2.8312   2.8355   2.8473   2.8765
  2.8890   2.9018   2.9084   2.9391   2.9563   2.9686   2.9727   2.9828
  2.9899   3.0047   3.0118   3.0392   3.0501   3.0724   3.0858   3.1193
  3.1321   3.1477   3.1756   3.1903   3.2094   3.2275   3.2373   3.2519
  3.2751   3.3018   3.3117   3.3327   3.3486   3.3657   3.3810   3.3992
  3.4061   3.4136   3.4284   3.4300   3.4596   3.4782   3.5026   3.5107
  3.5168   3.5326   3.5473   3.5670   3.5855   3.6087   3.6265   3.6462
  3.6618   3.6690   3.7002   3.7142   3.7322   3.7492   3.7716   3.7747
  3.7815   3.8037   3.8217   3.8313   3.8544   3.8630   3.8745   3.8855
  3.8969   3.9207   3.9321   3.9469   3.9735   3.9778   3.9979   4.0156
  4.0250   4.0379   4.0762   4.0940   4.1262   4.1448   4.1690   4.1795
  4.2058   4.2358   4.2371   4.2524   4.2824   4.2998   4.3251   4.3367
  4.3376   4.3505   4.3677   4.3858   4.4009   4.4145   4.4385   4.4503
  4.4670   4.4909   4.5067   4.5376   4.5582   4.5801   4.6233   4.6352
  4.6402   4.6632   4.7117   4.7185   4.7494   4.7642   4.7891   4.8118
  4.8852   4.8928   4.9185   4.9492   4.9810   5.0303   5.0580   5.0752
  5.1421   5.1433   5.1692   5.2031   5.2361   5.2458   5.2739   5.2933
  5.3071   5.3099   5.3191   5.3356   5.3483   5.3540   5.3942   5.4093
  5.4218   5.4570   5.4697   5.5119   5.5359   5.5538   5.5742   5.6103
  5.6660   5.6717   5.6869   5.6910   5.7234   5.7537   5.7747   5.8027
  5.8765   5.8820   5.9038   5.9520   6.0065   6.0281   6.0956   6.3088
  6.4549   6.5217   6.5886   6.6129   6.6499   6.9672   6.9935   7.0467
  7.1054   7.1363   7.1562   7.2410   7.2845   7.3064   7.3120   7.3532
  7.3767   7.3944   7.4216   7.4412   7.4849   7.6369   7.7021   7.7845
  7.8271   7.8754   8.0395   8.1093  24.3166  24.5863  24.7291  24.7887
 24.8019  25.1523  25.3799  50.4397  50.5626  50.6023  50.6387
 --------------------------------------------------------------
 
          Ground-State Mulliken Net Atomic Charges

     Atom                 Charge (a.u.)    Spin (a.u.)
  --------------------------------------------------------
      1 C                    -0.640011       0.012729
      2 C                    -0.038971      -0.011216
      3 C                    -0.330637       0.018145
      4 C                    -0.209344      -0.010137
      5 C                    -0.935121       0.016720
      6 C                     0.898157      -0.009536
      7 C                    -0.351368      -0.004184
      8 H                     0.294711       0.000353
      9 H                     0.242731       0.000933
     10 H                     0.327783      -0.000981
     11 H                     0.294659       0.000972
     12 H                     0.281291      -0.000011
     13 H                     0.241528       0.000064
     14 O                    -0.396528      -0.000268
     15 H                     0.218199       0.000119
     16 H                     0.328458       0.000053
     17 O                    -0.421408      -0.000636
     18 H                     0.334280       0.000210
     19 O                     0.071771       0.317332
     20 O                    -0.210182       0.669339
  --------------------------------------------------------
  Sum of atomic charges =     0.000000
  Sum of spin   charges =     1.000000

 -----------------------------------------------------------------
                    Cartesian Multipole Moments
 -----------------------------------------------------------------
    Charge (ESU x 10^10)
                 0.0000
    Dipole Moment (Debye)
         X      -0.4855      Y      -1.3664      Z      -4.1500
       Tot       4.3961
    Quadrupole Moments (Debye-Ang)
        XX     -69.6527     XY       4.8063     YY     -63.4401
        XZ       9.1055     YZ      -2.4857     ZZ     -63.5200
    Octopole Moments (Debye-Ang^2)
       XXX     205.0827    XXY       2.2250    XYY      44.1729
       YYY      51.2531    XXZ     -52.2756    XYZ      11.7519
       YYZ      -6.4187    XZZ      80.1516    YZZ       6.4008
       ZZZ    -100.4893
    Hexadecapole Moments (Debye-Ang^3)
      XXXX   -1042.1642   XXXY    -122.0400   XXYY    -239.8327
      XYYY    -145.6072   YYYY    -579.9413   XXXZ     249.5326
      XXYZ      46.1983   XYYZ      62.3467   YYYZ     132.6406
      XXZZ    -355.7773   XYZZ     -45.7256   YYZZ    -245.3019
      XZZZ     235.6990   YZZZ     119.5607   ZZZZ    -943.2417
 -----------------------------------------------------------------
 Calculating analytic gradient of the SCF energy
 Gradient of CDS energy
            1           2           3           4           5           6
    1   0.0001690   0.0000910  -0.0000580  -0.0003106   0.0000149   0.0001785
    2  -0.0000644   0.0001502  -0.0002883  -0.0003799   0.0002270  -0.0000554
    3   0.0000546   0.0001845   0.0002512  -0.0000658  -0.0003708   0.0002364
            7           8           9          10          11          12
    1  -0.0002824  -0.0000603   0.0001816  -0.0000556  -0.0001400  -0.0000572
    2   0.0009458   0.0001566  -0.0000654  -0.0001576  -0.0001282   0.0000868
    3  -0.0004520   0.0001101   0.0000918   0.0001144  -0.0000786  -0.0001683
           13          14          15          16          17          18
    1  -0.0000880  -0.0001622   0.0001486   0.0002747  -0.0002758   0.0004362
    2  -0.0002255  -0.0002156  -0.0000256  -0.0000271  -0.0000468  -0.0000185
    3  -0.0000763   0.0002171   0.0003011  -0.0004317   0.0000876  -0.0000210
           19          20
    1  -0.0000469   0.0000426
    2   0.0000827   0.0000492
    3  -0.0000376   0.0000535
 Gradient of SCF Energy
            1           2           3           4           5           6
    1   0.0027541  -0.0068132   0.0029525   0.0053120  -0.0017357   0.0018915
    2  -0.0043942   0.0114347   0.0014027   0.0035637  -0.0117087   0.0114220
    3  -0.0114218   0.0039172  -0.0045883   0.0052763   0.0080584   0.0052725
            7           8           9          10          11          12
    1   0.0128508   0.0008094   0.0015832  -0.0014312  -0.0055216  -0.0048367
    2  -0.0117140   0.0043465  -0.0026099  -0.0052721  -0.0049733   0.0020908
    3   0.0041352   0.0012823   0.0031166   0.0033045  -0.0034797  -0.0095402
           13          14          15          16          17          18
    1  -0.0055909  -0.0019360  -0.0022082   0.0007274   0.0004682   0.0015506
    2   0.0002551   0.0173265   0.0051988  -0.0128620  -0.0067704   0.0034154
    3  -0.0084585   0.0113833   0.0036824  -0.0105737   0.0048791  -0.0061441
           19          20
    1  -0.0002800  -0.0005460
    2   0.0002984  -0.0004499
    3   0.0009031  -0.0010046
 Max gradient component =       1.733E-02
 RMS gradient           =       6.308E-03
 Computing fast CPCM-SWIG gradient
 Updating gradient with PCM contributions...
 -- total gradient after adding PCM contribution --
---------------------------------------------------
  Atom         X              Y              Z     
---------------------------------------------------
   1      -0.000010       0.000024      -0.000002
   2      -0.000067      -0.000006       0.000007
   3      -0.000008       0.000021      -0.000001
   4      -0.000004      -0.000007      -0.000017
   5       0.000020       0.000005      -0.000000
   6      -0.000002      -0.000028       0.000010
   7       0.000071      -0.000003      -0.000009
   8      -0.000017      -0.000002      -0.000001
   9      -0.000021      -0.000017      -0.000005
  10      -0.000018       0.000007      -0.000005
  11       0.000016       0.000000      -0.000025
  12       0.000015       0.000010      -0.000010
  13       0.000009       0.000014       0.000002
  14      -0.000030       0.000026       0.000007
  15       0.000002      -0.000002       0.000013
  16       0.000033      -0.000017       0.000026
  17       0.000012      -0.000005       0.000013
  18       0.000023       0.000009       0.000012
  19      -0.000004      -0.000009       0.000013
  20      -0.000018      -0.000019      -0.000027
---------------------------------------------------
 Number of fixed atoms: 0
 Gradient time:  CPU 485.46 s  wall 69.39 s
 ######################################################
 ######################################################
 # Starting finite difference calculation for IDERIV  #
 Finite diff step size:  1.88973e-03 a.u.
 ----------------------------------------------------------------
             Standard Nuclear Orientation (Angstroms)
    I     Atom           X                Y                Z
 ----------------------------------------------------------------
    1      C      -0.2243534428    -0.1397844562     0.6729784886
    2      C      -0.8962185549    -1.1056838838     1.6481956904
    3      C      -1.9111381252    -2.0273790149     1.0609817773
    4      C      -2.4186674228    -1.8017075940    -0.1485992126
    5      C      -2.0172186874    -0.6438624830    -0.9492583522
    6      C      -1.0222774662     0.1571977686    -0.5706338622
    7      C      -0.6030504200     1.3613803407    -1.3549606604
    8      H      -0.0375569227     0.7947365936     1.2107018004
    9      H      -0.1138878584    -1.6575745243     2.1662229861
   10      H      -2.2186896339    -2.8742727498     1.6588159940
   11      H      -3.1557219310    -2.4767189707    -0.5626930686
   12      H      -2.5567947821    -0.4429850858    -1.8664805983
   13      H      -1.2317475232     1.4810840489    -2.2375104374
   14      O       0.7833353835     1.2935123556    -1.7280546825
   15      H      -0.6944428048     2.2569694126    -0.7398515534
   16      H       0.8689011078     0.6271613359    -2.4195808729
   17      O       1.0263646134    -0.7451276272     0.3216924494
   18      H       1.4125072101    -0.1873596416    -0.3684671293
   19      O      -1.5016542552    -0.3419563325     2.7540906430
   20      O      -2.5056968840     0.3847931077     2.3523852005
 ----------------------------------------------------------------
 Nuclear Repulsion Energy =         642.43739660 hartrees
 There are       42 alpha and       41 beta electrons
 Discretize the solute cavity surface with Lebedev spheres
	Using 110 Lebedev grid points for each H atom
	Using 194 Lebedev grid points for other atoms
	Atomic van der Waals radii will be scaled by 1.20
 Remove points where switching function is < 1.0e-08
 Keep 1495 surface tesserae and discard 1629 interior tesserae
 Molecular Surface Area = 170.886 Angst**2
 Requested basis set is 6-311++G(2df,2p)
 There are 142 shells and 464 basis functions
 A cutoff of  1.0D-12 yielded   9019 shell pairs
 There are     96962 function pairs (    121050 Cartesian)
 Smallest overlap matrix eigenvalue = 1.47E-06
 Guess MOs from SCF MO coefficient file

 -----------------------------------------------------------------------
  General SCF calculation program by
  Eric Jon Sundstrom, Paul Horn, Yuezhi Mao, Dmitri Zuev, Alec White,
  David Stuck, Shaama M.S., Shane Yost, Joonho Lee, David Small,
  Daniel Levine, Susi Lehtola, Hugh Burton, Evgeny Epifanovsky,
  Bang C. Huynh
 -----------------------------------------------------------------------
 Exchange:     0.1500 Hartree-Fock + 1.0000 wB97M-V + LR-HF
 Correlation:  1.0000 wB97M-V
 Using SG-2 standard quadrature grid
 Nonlocal Correlation:  VV10 with C = 0.0100 and b = 6.00 and scale = 1.00000
 Grid used for NLC:  SG-1 standard quadrature
 
 Citation of the SMD model:
 Marenich, A.V.; Cramer, C.J.; Truhlar, D.G.
 J. Phys. Chem. B 2009, 113, 6378-6396.
 iSolventCode=           1
 Solvent: water                                                           
 
 vradii
            1           2           3           4           5           6
    1   1.8500000   1.8500000   1.8500000   1.8500000   1.8500000   1.8500000
            7           8           9          10          11          12
    1   1.8500000   1.2000000   1.2000000   1.2000000   1.2000000   1.2000000
           13          14          15          16          17          18
    1   1.2000000   1.5200000   1.2000000   1.2000000   1.5200000   1.2000000
           19          20
    1   1.5200000   1.5200000
 -------------------------------------------------------
 OpenMP BLAS3 based DFT computing Module                
 Release: version 1.0, May 2013, Q-Chem Inc. Pittsburgh 
 -------------------------------------------------------
 A unrestricted SCF calculation will be
 performed using Roothaan-Hall, DIIS, GDM
 SCF converges when RMS gradient is below 1.0e-07
 ---------------------------------------
  Cycle       Energy         DIIS error
 ---------------------------------------
    1    -572.8677753102      1.53e-04  Roothaan Step
 ---------------------------------------
  Cycle       Energy         DIIS error
 ---------------------------------------
    1    -572.8944874107      1.68e-04  
    2    -572.8975196429      1.41e-04  Done DIIS. Switching to GDM
 ---------------------------------------
  Cycle       Energy        RMS Gradient
 ---------------------------------------
    1    -572.8975196429      1.06e-02   Normal BFGS step
    2    -572.8970721660      1.80e-02  Line search: overstep
    3    -572.8989131728      2.68e-03   Normal BFGS step
    4    -572.8990153802      9.54e-04   Normal BFGS step
    5    -572.8990475693      7.36e-04   Normal BFGS step
    6    -572.8990513914      2.24e-04   Normal BFGS step
    7    -572.8990526940      1.82e-04   Normal BFGS step
    8    -572.8990529890      1.10e-04   Normal BFGS step
    9    -572.8990531031      2.72e-05   Normal BFGS step
   10    -572.8990531151      2.42e-05   Normal BFGS step
   11    -572.8990531182      1.96e-05   Normal BFGS step
   12    -572.8990531193      1.50e-05   Normal BFGS step
   13    -572.8990531202      9.01e-06   Normal BFGS step
   14    -572.8990531210      8.14e-06   Normal BFGS step
   15    -572.8990531213      4.47e-06   Normal BFGS step
   16    -572.8990531214      1.61e-06   Normal BFGS step
   17    -572.8990531214      5.69e-07   Normal BFGS step
   18    -572.8990531214      3.51e-07   Normal BFGS step
   19    -572.8990531214      3.07e-07   Normal BFGS step
   20    -572.8990531215      1.94e-07   Normal BFGS step
   21    -572.8990531215      5.83e-08  Convergence criterion met
 ---------------------------------------
 SCF time:   CPU 3494.23s  wall 447.00s 
<S^2> =          0.754138760
(3)  G-ENP(liq) elect-nuc-pol free energy of system     -572.899053122 a.u.
(4)  G-CDS(liq) cavity-dispersion-solvent structure 
     free energy                                                2.9926 kcal/mol
(6)  G-S(liq) free energy of system                     -572.894284055 a.u.
 SCF   energy in the final basis set =     -572.8942840551
 Total energy in the final basis set =     -572.8942840551
 
 --------------------------------------------------------------
 
                    Orbital Energies (a.u.)
 --------------------------------------------------------------
 
 Alpha MOs
 -- Occupied --
-19.4634 -19.4164 -19.3434 -19.3408 -10.4127 -10.4070 -10.3892 -10.3542
-10.3537 -10.3497 -10.3495  -1.3432  -1.1682  -1.1530  -1.0232  -0.9671
 -0.8962  -0.8587  -0.8020  -0.7502  -0.7174  -0.6683  -0.6441  -0.6345
 -0.6194  -0.6086  -0.5900  -0.5794  -0.5537  -0.5447  -0.5364  -0.5126
 -0.5042  -0.4715  -0.4535  -0.4414  -0.4295  -0.4095  -0.4033  -0.3914
 -0.3802  -0.3286
 -- Virtual --
  0.0164   0.0267   0.0362   0.0396   0.0454   0.0551   0.0586   0.0745
  0.0789   0.0846   0.0972   0.0996   0.1141   0.1207   0.1308   0.1350
  0.1407   0.1446   0.1514   0.1552   0.1577   0.1614   0.1664   0.1720
  0.1797   0.1814   0.1851   0.1915   0.1944   0.1986   0.2047   0.2052
  0.2096   0.2154   0.2248   0.2324   0.2466   0.2549   0.2595   0.2669
  0.2719   0.2726   0.2786   0.2841   0.2939   0.3044   0.3111   0.3144
  0.3184   0.3288   0.3327   0.3382   0.3421   0.3482   0.3544   0.3673
  0.3713   0.3796   0.3854   0.3902   0.3927   0.3964   0.4055   0.4114
  0.4166   0.4179   0.4387   0.4441   0.4567   0.4586   0.4749   0.4770
  0.5052   0.5313   0.5475   0.5540   0.5788   0.5873   0.5922   0.6008
  0.6148   0.6201   0.6316   0.6446   0.6506   0.6604   0.6650   0.6729
  0.6844   0.6868   0.6942   0.7003   0.7134   0.7164   0.7220   0.7380
  0.7418   0.7559   0.7604   0.7696   0.7881   0.7947   0.8044   0.8111
  0.8310   0.8327   0.8398   0.8493   0.8552   0.8892   0.8934   0.9029
  0.9129   0.9363   0.9662   0.9712   0.9948   1.0054   1.0305   1.0492
  1.0574   1.0612   1.0889   1.1106   1.1135   1.1271   1.1418   1.1467
  1.1550   1.1659   1.1828   1.1880   1.1985   1.2044   1.2153   1.2247
  1.2272   1.2483   1.2506   1.2587   1.2637   1.2700   1.2826   1.3024
  1.3072   1.3178   1.3345   1.3372   1.3574   1.3631   1.3783   1.3959
  1.4094   1.4122   1.4287   1.4318   1.4332   1.4471   1.4561   1.4585
  1.4727   1.4958   1.5058   1.5180   1.5258   1.5359   1.5473   1.5692
  1.5725   1.5853   1.6094   1.6222   1.6294   1.6504   1.6587   1.6771
  1.6846   1.7006   1.7032   1.7256   1.7460   1.7721   1.7860   1.8097
  1.8409   1.8448   1.8613   1.9048   1.9386   1.9550   1.9590   2.0171
  2.0220   2.0556   2.0826   2.1136   2.1383   2.1590   2.1727   2.1956
  2.2351   2.2809   2.3279   2.3404   2.3533   2.3769   2.4290   2.4411
  2.4732   2.5686   2.6235   2.6413   2.6766   2.7021   2.7144   2.7232
  2.7615   2.8093   2.8219   2.8311   2.8354   2.8469   2.8754   2.8887
  2.9017   2.9075   2.9388   2.9560   2.9682   2.9723   2.9825   2.9897
  3.0044   3.0114   3.0387   3.0498   3.0724   3.0855   3.1185   3.1319
  3.1472   3.1751   3.1901   3.2093   3.2272   3.2367   3.2515   3.2748
  3.3016   3.3114   3.3322   3.3483   3.3655   3.3808   3.3990   3.4058
  3.4135   3.4281   3.4296   3.4595   3.4781   3.5023   3.5103   3.5165
  3.5326   3.5466   3.5667   3.5852   3.6085   3.6257   3.6460   3.6616
  3.6684   3.6998   3.7143   3.7315   3.7489   3.7713   3.7745   3.7811
  3.8033   3.8212   3.8310   3.8545   3.8627   3.8739   3.8853   3.8967
  3.9203   3.9318   3.9466   3.9731   3.9773   3.9978   4.0154   4.0247
  4.0376   4.0758   4.0936   4.1252   4.1444   4.1688   4.1791   4.2053
  4.2353   4.2368   4.2521   4.2822   4.2997   4.3244   4.3352   4.3371
  4.3499   4.3674   4.3856   4.4006   4.4143   4.4379   4.4501   4.4666
  4.4900   4.5056   4.5368   4.5568   4.5796   4.6050   4.6224   4.6384
  4.6624   4.7071   4.7166   4.7471   4.7537   4.7851   4.8090   4.8779
  4.8848   4.9046   4.9464   4.9792   5.0245   5.0446   5.0618   5.0866
  5.1078   5.1211   5.1687   5.2151   5.2286   5.2634   5.2713   5.2784
  5.2989   5.3085   5.3323   5.3446   5.3507   5.3917   5.3999   5.4075
  5.4430   5.4660   5.5029   5.5342   5.5420   5.5724   5.6055   5.6645
  5.6690   5.6855   5.6897   5.7232   5.7480   5.7680   5.7973   5.8596
  5.8820   5.9027   5.9522   6.0068   6.0281   6.0946   6.3069   6.4413
  6.4749   6.5885   6.6008   6.6516   6.8843   6.9150   6.9835   7.1048
  7.1170   7.1359   7.2139   7.2544   7.2909   7.3094   7.3525   7.3742
  7.3899   7.4011   7.4319   7.4446   7.6364   7.7017   7.7839   7.8180
  7.8717   8.0275   8.0876  24.3166  24.5861  24.7292  24.7886  24.8019
 25.1522  25.3796  50.4275  50.5526  50.6021  50.6389
 
 Beta MOs
 -- Occupied --
-19.4529 -19.3978 -19.3434 -19.3409 -10.4131 -10.4067 -10.3892 -10.3543
-10.3537 -10.3496 -10.3491  -1.3167  -1.1682  -1.1530  -1.0008  -0.9581
 -0.8944  -0.8513  -0.8015  -0.7456  -0.7148  -0.6609  -0.6402  -0.6207
 -0.6075  -0.5887  -0.5857  -0.5688  -0.5495  -0.5368  -0.5198  -0.5056
 -0.5035  -0.4628  -0.4498  -0.4397  -0.4289  -0.3956  -0.3915  -0.3821
 -0.3275
 -- Virtual --
 -0.0318   0.0176   0.0270   0.0363   0.0401   0.0455   0.0552   0.0586
  0.0747   0.0792   0.0848   0.0978   0.1000   0.1150   0.1215   0.1312
  0.1359   0.1412   0.1452   0.1517   0.1558   0.1581   0.1620   0.1666
  0.1724   0.1801   0.1820   0.1856   0.1926   0.1952   0.1989   0.2050
  0.2062   0.2103   0.2172   0.2274   0.2331   0.2470   0.2576   0.2631
  0.2678   0.2726   0.2747   0.2796   0.2859   0.2946   0.3061   0.3123
  0.3165   0.3206   0.3300   0.3332   0.3389   0.3434   0.3488   0.3549
  0.3675   0.3729   0.3807   0.3871   0.3918   0.3931   0.3968   0.4058
  0.4119   0.4185   0.4190   0.4393   0.4446   0.4571   0.4590   0.4765
  0.4785   0.5054   0.5317   0.5480   0.5544   0.5791   0.5876   0.5926
  0.6009   0.6148   0.6202   0.6318   0.6450   0.6523   0.6606   0.6656
  0.6730   0.6846   0.6871   0.6946   0.7004   0.7134   0.7167   0.7224
  0.7382   0.7421   0.7564   0.7607   0.7703   0.7887   0.7948   0.8051
  0.8112   0.8314   0.8334   0.8398   0.8494   0.8554   0.8893   0.8939
  0.9032   0.9131   0.9368   0.9667   0.9730   0.9956   1.0068   1.0342
  1.0501   1.0578   1.0631   1.0900   1.1114   1.1137   1.1313   1.1460
  1.1484   1.1561   1.1692   1.1842   1.1909   1.2037   1.2127   1.2264
  1.2290   1.2350   1.2527   1.2552   1.2592   1.2662   1.2722   1.2838
  1.3036   1.3082   1.3209   1.3371   1.3408   1.3587   1.3650   1.3797
  1.3968   1.4104   1.4131   1.4316   1.4332   1.4353   1.4480   1.4572
  1.4608   1.4748   1.4971   1.5070   1.5194   1.5270   1.5445   1.5489
  1.5709   1.5741   1.5860   1.6132   1.6247   1.6311   1.6523   1.6626
  1.6800   1.6878   1.7089   1.7128   1.7338   1.7513   1.7811   1.7879
  1.8157   1.8453   1.8483   1.8703   1.9070   1.9457   1.9572   1.9625
  2.0177   2.0225   2.0589   2.0848   2.1173   2.1402   2.1664   2.1760
  2.1970   2.2397   2.2835   2.3383   2.3492   2.3618   2.3796   2.4294
  2.4426   2.4754   2.5701   2.6237   2.6461   2.6768   2.7036   2.7156
  2.7240   2.7619   2.8098   2.8227   2.8312   2.8355   2.8473   2.8765
  2.8890   2.9018   2.9084   2.9392   2.9563   2.9685   2.9728   2.9829
  2.9899   3.0048   3.0118   3.0392   3.0502   3.0725   3.0858   3.1193
  3.1321   3.1476   3.1755   3.1903   3.2095   3.2274   3.2372   3.2518
  3.2752   3.3017   3.3117   3.3327   3.3486   3.3658   3.3809   3.3993
  3.4062   3.4136   3.4284   3.4300   3.4597   3.4783   3.5026   3.5107
  3.5169   3.5326   3.5473   3.5670   3.5854   3.6086   3.6265   3.6462
  3.6617   3.6689   3.7001   3.7142   3.7321   3.7492   3.7714   3.7748
  3.7814   3.8037   3.8216   3.8312   3.8545   3.8631   3.8744   3.8855
  3.8971   3.9205   3.9321   3.9468   3.9734   3.9776   3.9979   4.0157
  4.0249   4.0378   4.0760   4.0939   4.1260   4.1448   4.1689   4.1794
  4.2056   4.2357   4.2370   4.2523   4.2823   4.2998   4.3250   4.3365
  4.3375   4.3503   4.3676   4.3858   4.4009   4.4145   4.4385   4.4505
  4.4670   4.4908   4.5066   4.5375   4.5581   4.5801   4.6232   4.6353
  4.6399   4.6629   4.7117   4.7184   4.7492   4.7641   4.7891   4.8115
  4.8850   4.8927   4.9184   4.9491   4.9809   5.0299   5.0579   5.0751
  5.1421   5.1433   5.1692   5.2030   5.2360   5.2457   5.2738   5.2932
  5.3071   5.3098   5.3192   5.3357   5.3483   5.3539   5.3943   5.4091
  5.4218   5.4569   5.4697   5.5118   5.5361   5.5538   5.5743   5.6102
  5.6665   5.6718   5.6869   5.6912   5.7235   5.7537   5.7746   5.8026
  5.8768   5.8821   5.9043   5.9525   6.0072   6.0283   6.0956   6.3084
  6.4550   6.5217   6.5889   6.6129   6.6520   6.9671   6.9935   7.0467
  7.1055   7.1364   7.1562   7.2410   7.2846   7.3064   7.3120   7.3532
  7.3768   7.3949   7.4216   7.4414   7.4849   7.6369   7.7023   7.7845
  7.8271   7.8755   8.0395   8.1093  24.3167  24.5862  24.7290  24.7886
 24.8021  25.1523  25.3796  50.4397  50.5626  50.6023  50.6389
 --------------------------------------------------------------
 
          Ground-State Mulliken Net Atomic Charges

     Atom                 Charge (a.u.)    Spin (a.u.)
  --------------------------------------------------------
      1 C                    -0.639553       0.012734
      2 C                    -0.039131      -0.011196
      3 C                    -0.330695       0.018125
      4 C                    -0.209527      -0.010128
      5 C                    -0.934044       0.016700
      6 C                     0.896880      -0.009524
      7 C                    -0.351369      -0.004178
      8 H                     0.294637       0.000352
      9 H                     0.242671       0.000931
     10 H                     0.327774      -0.000982
     11 H                     0.294651       0.000972
     12 H                     0.281310      -0.000011
     13 H                     0.241506       0.000064
     14 O                    -0.396551      -0.000268
     15 H                     0.218197       0.000119
     16 H                     0.328458       0.000053
     17 O                    -0.421059      -0.000630
     18 H                     0.334337       0.000211
     19 O                     0.071731       0.317331
     20 O                    -0.210223       0.669326
  --------------------------------------------------------
  Sum of atomic charges =     0.000000
  Sum of spin   charges =     1.000000

 -----------------------------------------------------------------
                    Cartesian Multipole Moments
 -----------------------------------------------------------------
    Charge (ESU x 10^10)
                 0.0000
    Dipole Moment (Debye)
         X      -0.4803      Y      -1.3670      Z      -4.1508
       Tot       4.3964
    Quadrupole Moments (Debye-Ang)
        XX     -69.6551     XY       4.8034     YY     -63.4427
        XZ       9.1068     YZ      -2.4837     ZZ     -63.5249
    Octopole Moments (Debye-Ang^2)
       XXX     205.0906    XXY       2.2260    XYY      44.1766
       YYY      51.2553    XXZ     -52.2759    XYZ      11.7501
       YYZ      -6.4223    XZZ      80.1559    YZZ       6.4033
       ZZZ    -100.4968
    Hexadecapole Moments (Debye-Ang^3)
      XXXX   -1042.1920   XXXY    -122.0517   XXYY    -239.8412
      XYYY    -145.6196   YYYY    -579.9646   XXXZ     249.5293
      XXYZ      46.1993   XYYZ      62.3432   YYYZ     132.6536
      XXZZ    -355.7885   XYZZ     -45.7266   YYZZ    -245.3187
      XZZZ     235.6956   YZZZ     119.5756   ZZZZ    -943.2820
 -----------------------------------------------------------------
 Calculating analytic gradient of the SCF energy
 Gradient of CDS energy
            1           2           3           4           5           6
    1   0.0001711   0.0000908  -0.0000580  -0.0003107   0.0000149   0.0001782
    2  -0.0000637   0.0001499  -0.0002883  -0.0003799   0.0002270  -0.0000552
    3   0.0000554   0.0001846   0.0002512  -0.0000658  -0.0003708   0.0002362
            7           8           9          10          11          12
    1  -0.0002824  -0.0000617   0.0001816  -0.0000556  -0.0001400  -0.0000572
    2   0.0009458   0.0001564  -0.0000654  -0.0001576  -0.0001282   0.0000868
    3  -0.0004521   0.0001099   0.0000917   0.0001144  -0.0000786  -0.0001683
           13          14          15          16          17          18
    1  -0.0000880  -0.0001622   0.0001486   0.0002747  -0.0002760   0.0004362
    2  -0.0002255  -0.0002156  -0.0000256  -0.0000271  -0.0000472  -0.0000186
    3  -0.0000763   0.0002170   0.0003011  -0.0004317   0.0000872  -0.0000211
           19          20
    1  -0.0000469   0.0000426
    2   0.0000827   0.0000492
    3  -0.0000376   0.0000534
 Gradient of SCF Energy
            1           2           3           4           5           6
    1   0.0035720  -0.0069722   0.0029353   0.0053115  -0.0017696   0.0017016
    2  -0.0043166   0.0113559   0.0013744   0.0035701  -0.0117046   0.0114207
    3  -0.0113766   0.0039540  -0.0045674   0.0052754   0.0080194   0.0051565
            7           8           9          10          11          12
    1   0.0128809   0.0007015   0.0016028  -0.0014307  -0.0055168  -0.0048293
    2  -0.0117131   0.0042580  -0.0025845  -0.0052701  -0.0049690   0.0020803
    3   0.0041444   0.0012320   0.0030902   0.0032990  -0.0034779  -0.0095397
           13          14          15          16          17          18
    1  -0.0055887  -0.0019448  -0.0022071   0.0007304   0.0001499   0.0015178
    2   0.0002480   0.0173407   0.0051964  -0.0128669  -0.0067002   0.0034406
    3  -0.0084513   0.0113763   0.0036811  -0.0105732   0.0049696  -0.0061436
           19          20
    1  -0.0003028  -0.0005416
    2   0.0002933  -0.0004536
    3   0.0009356  -0.0010038
 Max gradient component =       1.734E-02
 RMS gradient           =       6.309E-03
 Computing fast CPCM-SWIG gradient
 Updating gradient with PCM contributions...
 -- total gradient after adding PCM contribution --
---------------------------------------------------
  Atom         X              Y              Z     
---------------------------------------------------
   1       0.000824       0.000107       0.000023
   2      -0.000237      -0.000078       0.000044
   3      -0.000020      -0.000009       0.000022
   4      -0.000007       0.000002      -0.000014
   5      -0.000005       0.000004      -0.000041
   6      -0.000196      -0.000029      -0.000089
   7       0.000096      -0.000002       0.000000
   8      -0.000123      -0.000092      -0.000053
   9      -0.000005       0.000007      -0.000029
  10      -0.000019       0.000006      -0.000008
  11       0.000017       0.000001      -0.000025
  12       0.000019       0.000001      -0.000013
  13       0.000009       0.000007       0.000007
  14      -0.000034       0.000032       0.000001
  15       0.000001      -0.000004       0.000013
  16       0.000032      -0.000017       0.000026
  17      -0.000293       0.000070       0.000092
  18      -0.000020       0.000030       0.000022
  19      -0.000027      -0.000014       0.000047
  20      -0.000013      -0.000022      -0.000026
---------------------------------------------------
 Number of fixed atoms: 0
 Gradient time:  CPU 497.46 s  wall 72.19 s
 ----------------------------------------------------------------
             Standard Nuclear Orientation (Angstroms)
    I     Atom           X                Y                Z
 ----------------------------------------------------------------
    1      C      -0.2263534428    -0.1397844562     0.6729784886
    2      C      -0.8962185549    -1.1056838838     1.6481956904
    3      C      -1.9111381252    -2.0273790149     1.0609817773
    4      C      -2.4186674228    -1.8017075940    -0.1485992126
    5      C      -2.0172186874    -0.6438624830    -0.9492583522
    6      C      -1.0222774662     0.1571977686    -0.5706338622
    7      C      -0.6030504200     1.3613803407    -1.3549606604
    8      H      -0.0375569227     0.7947365936     1.2107018004
    9      H      -0.1138878584    -1.6575745243     2.1662229861
   10      H      -2.2186896339    -2.8742727498     1.6588159940
   11      H      -3.1557219310    -2.4767189707    -0.5626930686
   12      H      -2.5567947821    -0.4429850858    -1.8664805983
   13      H      -1.2317475232     1.4810840489    -2.2375104374
   14      O       0.7833353835     1.2935123556    -1.7280546825
   15      H      -0.6944428048     2.2569694126    -0.7398515534
   16      H       0.8689011078     0.6271613359    -2.4195808729
   17      O       1.0263646134    -0.7451276272     0.3216924494
   18      H       1.4125072101    -0.1873596416    -0.3684671293
   19      O      -1.5016542552    -0.3419563325     2.7540906430
   20      O      -2.5056968840     0.3847931077     2.3523852005
 ----------------------------------------------------------------
 Nuclear Repulsion Energy =         642.45059672 hartrees
 There are       42 alpha and       41 beta electrons
 Discretize the solute cavity surface with Lebedev spheres
	Using 110 Lebedev grid points for each H atom
	Using 194 Lebedev grid points for other atoms
	Atomic van der Waals radii will be scaled by 1.20
 Remove points where switching function is < 1.0e-08
 Keep 1495 surface tesserae and discard 1629 interior tesserae
 Molecular Surface Area = 170.881 Angst**2
 Requested basis set is 6-311++G(2df,2p)
 There are 142 shells and 464 basis functions
 A cutoff of  1.0D-12 yielded   9019 shell pairs
 There are     96962 function pairs (    121050 Cartesian)
 Smallest overlap matrix eigenvalue = 1.47E-06
 Guess MOs from SCF MO coefficient file

 -----------------------------------------------------------------------
  General SCF calculation program by
  Eric Jon Sundstrom, Paul Horn, Yuezhi Mao, Dmitri Zuev, Alec White,
  David Stuck, Shaama M.S., Shane Yost, Joonho Lee, David Small,
  Daniel Levine, Susi Lehtola, Hugh Burton, Evgeny Epifanovsky,
  Bang C. Huynh
 -----------------------------------------------------------------------
 Exchange:     0.1500 Hartree-Fock + 1.0000 wB97M-V + LR-HF
 Correlation:  1.0000 wB97M-V
 Using SG-2 standard quadrature grid
 Nonlocal Correlation:  VV10 with C = 0.0100 and b = 6.00 and scale = 1.00000
 Grid used for NLC:  SG-1 standard quadrature
 
 Citation of the SMD model:
 Marenich, A.V.; Cramer, C.J.; Truhlar, D.G.
 J. Phys. Chem. B 2009, 113, 6378-6396.
 iSolventCode=           1
 Solvent: water                                                           
 
 vradii
            1           2           3           4           5           6
    1   1.8500000   1.8500000   1.8500000   1.8500000   1.8500000   1.8500000
            7           8           9          10          11          12
    1   1.8500000   1.2000000   1.2000000   1.2000000   1.2000000   1.2000000
           13          14          15          16          17          18
    1   1.2000000   1.5200000   1.2000000   1.2000000   1.5200000   1.2000000
           19          20
    1   1.5200000   1.5200000
 -------------------------------------------------------
 OpenMP BLAS3 based DFT computing Module                
 Release: version 1.0, May 2013, Q-Chem Inc. Pittsburgh 
 -------------------------------------------------------
 A unrestricted SCF calculation will be
 performed using Roothaan-Hall, DIIS, GDM
 SCF converges when RMS gradient is below 1.0e-07
 ---------------------------------------
  Cycle       Energy         DIIS error
 ---------------------------------------
    1    -572.8677691306      1.53e-04  Roothaan Step
 ---------------------------------------
  Cycle       Energy         DIIS error
 ---------------------------------------
    1    -572.8944679558      1.69e-04  
    2    -572.8974971459      1.42e-04  Done DIIS. Switching to GDM
 ---------------------------------------
  Cycle       Energy        RMS Gradient
 ---------------------------------------
    1    -572.8974971459      1.07e-02   Normal BFGS step
    2    -572.8970373897      1.81e-02  Line search: overstep
    3    -572.8989120305      2.68e-03   Normal BFGS step
    4    -572.8990144867      9.49e-04   Normal BFGS step
    5    -572.8990468794      7.37e-04   Normal BFGS step
    6    -572.8990507168      2.23e-04   Normal BFGS step
    7    -572.8990520220      1.82e-04   Normal BFGS step
    8    -572.8990523154      1.11e-04   Normal BFGS step
    9    -572.8990524294      2.61e-05   Normal BFGS step
   10    -572.8990524413      2.30e-05   Normal BFGS step
   11    -572.8990524444      1.85e-05   Normal BFGS step
   12    -572.8990524453      1.42e-05   Normal BFGS step
   13    -572.8990524461      8.95e-06   Normal BFGS step
   14    -572.8990524468      7.78e-06   Normal BFGS step
   15    -572.8990524472      4.62e-06   Normal BFGS step
   16    -572.8990524473      1.70e-06   Normal BFGS step
   17    -572.8990524473      6.00e-07   Normal BFGS step
   18    -572.8990524473      3.60e-07   Normal BFGS step
   19    -572.8990524473      3.20e-07   Normal BFGS step
   20    -572.8990524473      1.96e-07   Normal BFGS step
   21    -572.8990524473      6.22e-08  Convergence criterion met
 ---------------------------------------
 SCF time:   CPU 3550.09s  wall 455.00s 
<S^2> =          0.754138637
(3)  G-ENP(liq) elect-nuc-pol free energy of system     -572.899052447 a.u.
(4)  G-CDS(liq) cavity-dispersion-solvent structure 
     free energy                                                2.9922 kcal/mol
(6)  G-S(liq) free energy of system                     -572.894284020 a.u.
 SCF   energy in the final basis set =     -572.8942840196
 Total energy in the final basis set =     -572.8942840196
 
 --------------------------------------------------------------
 
                    Orbital Energies (a.u.)
 --------------------------------------------------------------
 
 Alpha MOs
 -- Occupied --
-19.4634 -19.4164 -19.3434 -19.3407 -10.4128 -10.4070 -10.3892 -10.3542
-10.3537 -10.3497 -10.3495  -1.3432  -1.1679  -1.1528  -1.0233  -0.9672
 -0.8963  -0.8588  -0.8020  -0.7502  -0.7175  -0.6682  -0.6442  -0.6345
 -0.6193  -0.6086  -0.5899  -0.5794  -0.5537  -0.5447  -0.5364  -0.5126
 -0.5041  -0.4715  -0.4537  -0.4414  -0.4295  -0.4095  -0.4033  -0.3914
 -0.3803  -0.3286
 -- Virtual --
  0.0163   0.0267   0.0362   0.0396   0.0454   0.0551   0.0586   0.0745
  0.0789   0.0846   0.0972   0.0996   0.1141   0.1207   0.1308   0.1350
  0.1407   0.1446   0.1514   0.1553   0.1577   0.1614   0.1664   0.1720
  0.1797   0.1814   0.1851   0.1915   0.1944   0.1986   0.2047   0.2052
  0.2096   0.2154   0.2248   0.2325   0.2466   0.2549   0.2594   0.2669
  0.2719   0.2725   0.2785   0.2841   0.2938   0.3044   0.3111   0.3144
  0.3184   0.3288   0.3327   0.3382   0.3421   0.3482   0.3543   0.3673
  0.3713   0.3796   0.3854   0.3902   0.3926   0.3965   0.4054   0.4115
  0.4166   0.4179   0.4387   0.4440   0.4566   0.4585   0.4749   0.4770
  0.5052   0.5313   0.5476   0.5542   0.5788   0.5873   0.5923   0.6008
  0.6148   0.6201   0.6316   0.6447   0.6506   0.6603   0.6650   0.6728
  0.6844   0.6868   0.6942   0.7003   0.7133   0.7164   0.7220   0.7380
  0.7418   0.7558   0.7603   0.7696   0.7881   0.7947   0.8044   0.8111
  0.8310   0.8328   0.8398   0.8493   0.8552   0.8893   0.8933   0.9029
  0.9129   0.9362   0.9662   0.9712   0.9948   1.0054   1.0305   1.0493
  1.0575   1.0611   1.0889   1.1105   1.1134   1.1271   1.1419   1.1468
  1.1550   1.1658   1.1828   1.1880   1.1985   1.2044   1.2154   1.2246
  1.2272   1.2483   1.2506   1.2587   1.2638   1.2701   1.2826   1.3025
  1.3073   1.3178   1.3345   1.3373   1.3576   1.3630   1.3783   1.3960
  1.4095   1.4122   1.4287   1.4318   1.4333   1.4471   1.4561   1.4584
  1.4728   1.4959   1.5058   1.5180   1.5258   1.5359   1.5474   1.5693
  1.5725   1.5854   1.6094   1.6221   1.6294   1.6503   1.6588   1.6773
  1.6848   1.7006   1.7031   1.7256   1.7460   1.7722   1.7861   1.8097
  1.8409   1.8449   1.8616   1.9050   1.9386   1.9551   1.9590   2.0172
  2.0218   2.0557   2.0826   2.1135   2.1384   2.1587   2.1726   2.1956
  2.2348   2.2805   2.3276   2.3404   2.3534   2.3768   2.4290   2.4411
  2.4732   2.5685   2.6236   2.6413   2.6766   2.7021   2.7145   2.7231
  2.7614   2.8093   2.8219   2.8311   2.8354   2.8468   2.8753   2.8886
  2.9017   2.9076   2.9386   2.9561   2.9682   2.9722   2.9823   2.9898
  3.0043   3.0113   3.0387   3.0498   3.0723   3.0856   3.1186   3.1319
  3.1474   3.1751   3.1900   3.2092   3.2273   3.2367   3.2516   3.2747
  3.3018   3.3113   3.3323   3.3483   3.3653   3.3809   3.3989   3.4054
  3.4136   3.4280   3.4297   3.4594   3.4781   3.5021   3.5102   3.5164
  3.5326   3.5467   3.5666   3.5853   3.6086   3.6257   3.6461   3.6619
  3.6685   3.6999   3.7142   3.7316   3.7489   3.7716   3.7743   3.7814
  3.8034   3.8214   3.8311   3.8545   3.8625   3.8739   3.8853   3.8964
  3.9206   3.9320   3.9467   3.9733   3.9777   3.9977   4.0153   4.0248
  4.0377   4.0761   4.0938   4.1258   4.1443   4.1689   4.1793   4.2055
  4.2354   4.2369   4.2522   4.2823   4.2996   4.3245   4.3355   4.3374
  4.3503   4.3674   4.3856   4.4006   4.4142   4.4380   4.4497   4.4666
  4.4902   4.5058   4.5370   4.5570   4.5795   4.6050   4.6226   4.6390
  4.6629   4.7073   4.7166   4.7474   4.7540   4.7852   4.8094   4.8780
  4.8852   4.9048   4.9466   4.9794   5.0252   5.0448   5.0619   5.0866
  5.1078   5.1211   5.1687   5.2151   5.2291   5.2635   5.2715   5.2785
  5.2990   5.3085   5.3321   5.3445   5.3508   5.3915   5.3999   5.4080
  5.4430   5.4660   5.5030   5.5338   5.5418   5.5723   5.6059   5.6632
  5.6689   5.6856   5.6895   5.7229   5.7479   5.7681   5.7975   5.8591
  5.8817   5.9015   5.9513   6.0055   6.0276   6.0945   6.3077   6.4413
  6.4749   6.5880   6.6007   6.6473   6.8843   6.9150   6.9836   7.1048
  7.1170   7.1358   7.2140   7.2543   7.2908   7.3094   7.3524   7.3739
  7.3893   7.4006   7.4319   7.4444   7.6364   7.7013   7.7839   7.8180
  7.8713   8.0276   8.0876  24.3164  24.5864  24.7296  24.7887  24.8016
 25.1523  25.3802  50.4274  50.5526  50.6022  50.6385
 
 Beta MOs
 -- Occupied --
-19.4529 -19.3978 -19.3434 -19.3408 -10.4131 -10.4067 -10.3892 -10.3543
-10.3537 -10.3497 -10.3492  -1.3167  -1.1678  -1.1528  -1.0009  -0.9582
 -0.8945  -0.8514  -0.8015  -0.7456  -0.7149  -0.6608  -0.6403  -0.6208
 -0.6075  -0.5885  -0.5857  -0.5688  -0.5494  -0.5368  -0.5197  -0.5056
 -0.5035  -0.4628  -0.4500  -0.4397  -0.4289  -0.3956  -0.3916  -0.3822
 -0.3275
 -- Virtual --
 -0.0318   0.0176   0.0269   0.0363   0.0401   0.0455   0.0552   0.0586
  0.0747   0.0792   0.0848   0.0978   0.1000   0.1149   0.1215   0.1312
  0.1359   0.1412   0.1452   0.1517   0.1558   0.1581   0.1620   0.1666
  0.1724   0.1800   0.1820   0.1856   0.1926   0.1953   0.1989   0.2049
  0.2062   0.2103   0.2172   0.2275   0.2331   0.2470   0.2576   0.2631
  0.2679   0.2726   0.2747   0.2796   0.2860   0.2946   0.3061   0.3123
  0.3165   0.3206   0.3300   0.3332   0.3390   0.3434   0.3488   0.3548
  0.3674   0.3729   0.3807   0.3871   0.3918   0.3930   0.3969   0.4057
  0.4120   0.4186   0.4190   0.4393   0.4446   0.4571   0.4590   0.4765
  0.4785   0.5055   0.5317   0.5480   0.5546   0.5791   0.5876   0.5926
  0.6008   0.6148   0.6203   0.6318   0.6450   0.6523   0.6606   0.6657
  0.6730   0.6846   0.6872   0.6946   0.7004   0.7134   0.7167   0.7224
  0.7382   0.7420   0.7564   0.7606   0.7703   0.7887   0.7948   0.8050
  0.8112   0.8314   0.8334   0.8399   0.8494   0.8554   0.8894   0.8939
  0.9032   0.9131   0.9367   0.9667   0.9730   0.9956   1.0068   1.0342
  1.0502   1.0578   1.0631   1.0900   1.1114   1.1137   1.1313   1.1460
  1.1485   1.1561   1.1692   1.1842   1.1909   1.2037   1.2128   1.2263
  1.2290   1.2350   1.2527   1.2551   1.2592   1.2664   1.2724   1.2838
  1.3037   1.3082   1.3209   1.3372   1.3408   1.3589   1.3649   1.3797
  1.3968   1.4106   1.4131   1.4317   1.4332   1.4354   1.4480   1.4572
  1.4608   1.4748   1.4972   1.5069   1.5194   1.5270   1.5445   1.5490
  1.5710   1.5742   1.5861   1.6132   1.6246   1.6310   1.6522   1.6626
  1.6802   1.6880   1.7089   1.7129   1.7339   1.7514   1.7812   1.7879
  1.8157   1.8454   1.8484   1.8706   1.9072   1.9458   1.9573   1.9625
  2.0177   2.0224   2.0589   2.0848   2.1173   2.1403   2.1662   2.1758
  2.1969   2.2394   2.2830   2.3380   2.3493   2.3619   2.3795   2.4294
  2.4427   2.4755   2.5700   2.6238   2.6461   2.6769   2.7037   2.7157
  2.7239   2.7617   2.8098   2.8228   2.8312   2.8355   2.8473   2.8764
  2.8889   2.9018   2.9085   2.9390   2.9564   2.9686   2.9727   2.9827
  2.9900   3.0047   3.0117   3.0392   3.0501   3.0724   3.0859   3.1194
  3.1321   3.1478   3.1756   3.1902   3.2094   3.2276   3.2373   3.2519
  3.2751   3.3019   3.3116   3.3328   3.3486   3.3656   3.3810   3.3992
  3.4059   3.4137   3.4283   3.4301   3.4596   3.4782   3.5025   3.5107
  3.5168   3.5326   3.5474   3.5669   3.5855   3.6087   3.6265   3.6463
  3.6620   3.6691   3.7002   3.7141   3.7322   3.7492   3.7717   3.7746
  3.7817   3.8038   3.8218   3.8313   3.8544   3.8630   3.8745   3.8855
  3.8968   3.9208   3.9322   3.9470   3.9736   3.9779   3.9978   4.0156
  4.0250   4.0379   4.0763   4.0941   4.1265   4.1448   4.1690   4.1796
  4.2059   4.2358   4.2371   4.2524   4.2825   4.2997   4.3251   4.3367
  4.3378   4.3507   4.3677   4.3858   4.4009   4.4144   4.4386   4.4501
  4.4670   4.4909   4.5068   4.5377   4.5583   4.5800   4.6234   4.6352
  4.6404   4.6634   4.7118   4.7185   4.7495   4.7643   4.7892   4.8120
  4.8853   4.8929   4.9186   4.9493   4.9812   5.0307   5.0580   5.0753
  5.1421   5.1433   5.1693   5.2032   5.2362   5.2458   5.2741   5.2934
  5.3071   5.3099   5.3191   5.3355   5.3482   5.3540   5.3941   5.4095
  5.4218   5.4570   5.4697   5.5119   5.5356   5.5538   5.5742   5.6104
  5.6655   5.6716   5.6870   5.6909   5.7233   5.7536   5.7747   5.8027
  5.8761   5.8819   5.9034   5.9516   6.0059   6.0278   6.0955   6.3092
  6.4549   6.5217   6.5883   6.6129   6.6478   6.9672   6.9935   7.0468
  7.1054   7.1362   7.1562   7.2411   7.2845   7.3063   7.3120   7.3531
  7.3765   7.3940   7.4216   7.4411   7.4849   7.6369   7.7019   7.7845
  7.8271   7.8752   8.0396   8.1093  24.3165  24.5864  24.7293  24.7888
 24.8017  25.1524  25.3802  50.4397  50.5626  50.6023  50.6385
 --------------------------------------------------------------
 
          Ground-State Mulliken Net Atomic Charges

     Atom                 Charge (a.u.)    Spin (a.u.)
  --------------------------------------------------------
      1 C                    -0.640465       0.012724
      2 C                    -0.038811      -0.011235
      3 C                    -0.330581       0.018166
      4 C                    -0.209160      -0.010145
      5 C                    -0.936200       0.016741
      6 C                     0.899431      -0.009549
      7 C                    -0.351367      -0.004190
      8 H                     0.294786       0.000354
      9 H                     0.242792       0.000934
     10 H                     0.327792      -0.000979
     11 H                     0.294668       0.000972
     12 H                     0.281273      -0.000011
     13 H                     0.241549       0.000063
     14 O                    -0.396506      -0.000268
     15 H                     0.218200       0.000119
     16 H                     0.328459       0.000052
     17 O                    -0.421756      -0.000642
     18 H                     0.334223       0.000208
     19 O                     0.071811       0.317332
     20 O                    -0.210140       0.669353
  --------------------------------------------------------
  Sum of atomic charges =     0.000000
  Sum of spin   charges =     1.000000

 -----------------------------------------------------------------
                    Cartesian Multipole Moments
 -----------------------------------------------------------------
    Charge (ESU x 10^10)
                 0.0000
    Dipole Moment (Debye)
         X      -0.4907      Y      -1.3657      Z      -4.1493
       Tot       4.3957
    Quadrupole Moments (Debye-Ang)
        XX     -69.6502     XY       4.8091     YY     -63.4375
        XZ       9.1043     YZ      -2.4877     ZZ     -63.5152
    Octopole Moments (Debye-Ang^2)
       XXX     205.0749    XXY       2.2239    XYY      44.1693
       YYY      51.2509    XXZ     -52.2752    XYZ      11.7537
       YYZ      -6.4152    XZZ      80.1473    YZZ       6.3983
       ZZZ    -100.4819
    Hexadecapole Moments (Debye-Ang^3)
      XXXX   -1042.1366   XXXY    -122.0283   XXYY    -239.8243
      XYYY    -145.5947   YYYY    -579.9182   XXXZ     249.5360
      XXYZ      46.1972   XYYZ      62.3503   YYYZ     132.6276
      XXZZ    -355.7662   XYZZ     -45.7246   YYZZ    -245.2851
      XZZZ     235.7024   YZZZ     119.5457   ZZZZ    -943.2014
 -----------------------------------------------------------------
 Calculating analytic gradient of the SCF energy
 Gradient of CDS energy
            1           2           3           4           5           6
    1   0.0001669   0.0000911  -0.0000580  -0.0003106   0.0000150   0.0001787
    2  -0.0000652   0.0001504  -0.0002884  -0.0003799   0.0002271  -0.0000556
    3   0.0000539   0.0001843   0.0002512  -0.0000658  -0.0003708   0.0002365
            7           8           9          10          11          12
    1  -0.0002824  -0.0000589   0.0001816  -0.0000556  -0.0001400  -0.0000572
    2   0.0009458   0.0001567  -0.0000654  -0.0001576  -0.0001282   0.0000868
    3  -0.0004520   0.0001102   0.0000918   0.0001144  -0.0000786  -0.0001683
           13          14          15          16          17          18
    1  -0.0000880  -0.0001622   0.0001486   0.0002747  -0.0002756   0.0004362
    2  -0.0002255  -0.0002156  -0.0000256  -0.0000271  -0.0000463  -0.0000184
    3  -0.0000763   0.0002171   0.0003011  -0.0004317   0.0000880  -0.0000209
           19          20
    1  -0.0000469   0.0000426
    2   0.0000827   0.0000492
    3  -0.0000376   0.0000535
 Gradient of SCF Energy
            1           2           3           4           5           6
    1   0.0019379  -0.0066540   0.0029697   0.0053124  -0.0017018   0.0020816
    2  -0.0044733   0.0115137   0.0014310   0.0035572  -0.0117128   0.0114231
    3  -0.0114680   0.0038801  -0.0046092   0.0052772   0.0080974   0.0053890
            7           8           9          10          11          12
    1   0.0128207   0.0009173   0.0015635  -0.0014318  -0.0055264  -0.0048440
    2  -0.0117148   0.0044351  -0.0026354  -0.0052742  -0.0049775   0.0021013
    3   0.0041260   0.0013328   0.0031430   0.0033101  -0.0034815  -0.0095407
           13          14          15          16          17          18
    1  -0.0055931  -0.0019273  -0.0022093   0.0007244   0.0007846   0.0015833
    2   0.0002622   0.0173123   0.0052012  -0.0128571  -0.0068397   0.0033903
    3  -0.0084657   0.0113904   0.0036836  -0.0105742   0.0047893  -0.0061445
           19          20
    1  -0.0002573  -0.0005504
    2   0.0003036  -0.0004462
    3   0.0008704  -0.0010054
 Max gradient component =       1.731E-02
 RMS gradient           =       6.310E-03
 Computing fast CPCM-SWIG gradient
 Updating gradient with PCM contributions...
 -- total gradient after adding PCM contribution --
---------------------------------------------------
  Atom         X              Y              Z     
---------------------------------------------------
   1      -0.000842      -0.000060      -0.000029
   2       0.000104       0.000066      -0.000030
   3       0.000005       0.000050      -0.000025
   4      -0.000002      -0.000015      -0.000020
   5       0.000044       0.000007       0.000040
   6       0.000191      -0.000027       0.000110
   7       0.000046      -0.000004      -0.000018
   8       0.000089       0.000089       0.000050
   9      -0.000038      -0.000042       0.000019
  10      -0.000017       0.000009      -0.000003
  11       0.000015      -0.000001      -0.000025
  12       0.000010       0.000019      -0.000006
  13       0.000009       0.000020      -0.000002
  14      -0.000027       0.000019       0.000014
  15       0.000002      -0.000001       0.000013
  16       0.000033      -0.000018       0.000025
  17       0.000314      -0.000079      -0.000065
  18       0.000065      -0.000013       0.000002
  19       0.000019      -0.000005      -0.000021
  20      -0.000022      -0.000015      -0.000029
---------------------------------------------------
 Number of fixed atoms: 0
 Gradient time:  CPU 492.37 s  wall 70.24 s
 ----------------------------------------------------------------
             Standard Nuclear Orientation (Angstroms)
    I     Atom           X                Y                Z
 ----------------------------------------------------------------
    1      C      -0.2253534428    -0.1387844562     0.6729784886
    2      C      -0.8962185549    -1.1056838838     1.6481956904
    3      C      -1.9111381252    -2.0273790149     1.0609817773
    4      C      -2.4186674228    -1.8017075940    -0.1485992126
    5      C      -2.0172186874    -0.6438624830    -0.9492583522
    6      C      -1.0222774662     0.1571977686    -0.5706338622
    7      C      -0.6030504200     1.3613803407    -1.3549606604
    8      H      -0.0375569227     0.7947365936     1.2107018004
    9      H      -0.1138878584    -1.6575745243     2.1662229861
   10      H      -2.2186896339    -2.8742727498     1.6588159940
   11      H      -3.1557219310    -2.4767189707    -0.5626930686
   12      H      -2.5567947821    -0.4429850858    -1.8664805983
   13      H      -1.2317475232     1.4810840489    -2.2375104374
   14      O       0.7833353835     1.2935123556    -1.7280546825
   15      H      -0.6944428048     2.2569694126    -0.7398515534
   16      H       0.8689011078     0.6271613359    -2.4195808729
   17      O       1.0263646134    -0.7451276272     0.3216924494
   18      H       1.4125072101    -0.1873596416    -0.3684671293
   19      O      -1.5016542552    -0.3419563325     2.7540906430
   20      O      -2.5056968840     0.3847931077     2.3523852005
 ----------------------------------------------------------------
 Nuclear Repulsion Energy =         642.43639781 hartrees
 There are       42 alpha and       41 beta electrons
 Discretize the solute cavity surface with Lebedev spheres
	Using 110 Lebedev grid points for each H atom
	Using 194 Lebedev grid points for other atoms
	Atomic van der Waals radii will be scaled by 1.20
 Remove points where switching function is < 1.0e-08
 Keep 1495 surface tesserae and discard 1629 interior tesserae
 Molecular Surface Area = 170.881 Angst**2
 Requested basis set is 6-311++G(2df,2p)
 There are 142 shells and 464 basis functions
 A cutoff of  1.0D-12 yielded   9019 shell pairs
 There are     96962 function pairs (    121050 Cartesian)
 Smallest overlap matrix eigenvalue = 1.47E-06
 Guess MOs from SCF MO coefficient file

 -----------------------------------------------------------------------
  General SCF calculation program by
  Eric Jon Sundstrom, Paul Horn, Yuezhi Mao, Dmitri Zuev, Alec White,
  David Stuck, Shaama M.S., Shane Yost, Joonho Lee, David Small,
  Daniel Levine, Susi Lehtola, Hugh Burton, Evgeny Epifanovsky,
  Bang C. Huynh
 -----------------------------------------------------------------------
 Exchange:     0.1500 Hartree-Fock + 1.0000 wB97M-V + LR-HF
 Correlation:  1.0000 wB97M-V
 Using SG-2 standard quadrature grid
 Nonlocal Correlation:  VV10 with C = 0.0100 and b = 6.00 and scale = 1.00000
 Grid used for NLC:  SG-1 standard quadrature
 
 Citation of the SMD model:
 Marenich, A.V.; Cramer, C.J.; Truhlar, D.G.
 J. Phys. Chem. B 2009, 113, 6378-6396.
 iSolventCode=           1
 Solvent: water                                                           
 
 vradii
            1           2           3           4           5           6
    1   1.8500000   1.8500000   1.8500000   1.8500000   1.8500000   1.8500000
            7           8           9          10          11          12
    1   1.8500000   1.2000000   1.2000000   1.2000000   1.2000000   1.2000000
           13          14          15          16          17          18
    1   1.2000000   1.5200000   1.2000000   1.2000000   1.5200000   1.2000000
           19          20
    1   1.5200000   1.5200000
 -------------------------------------------------------
 OpenMP BLAS3 based DFT computing Module                
 Release: version 1.0, May 2013, Q-Chem Inc. Pittsburgh 
 -------------------------------------------------------
 A unrestricted SCF calculation will be
 performed using Roothaan-Hall, DIIS, GDM
 SCF converges when RMS gradient is below 1.0e-07
 ---------------------------------------
  Cycle       Energy         DIIS error
 ---------------------------------------
    1    -572.8677635313      1.53e-04  Roothaan Step
 ---------------------------------------
  Cycle       Energy         DIIS error
 ---------------------------------------
    1    -572.8944810586      1.69e-04  
    2    -572.8975142780      1.41e-04  Done DIIS. Switching to GDM
 ---------------------------------------
  Cycle       Energy        RMS Gradient
 ---------------------------------------
    1    -572.8975142780      1.06e-02   Normal BFGS step
    2    -572.8970644790      1.80e-02  Line search: overstep
    3    -572.8989122439      2.68e-03   Normal BFGS step
    4    -572.8990146063      9.52e-04   Normal BFGS step
    5    -572.8990468172      7.37e-04   Normal BFGS step
    6    -572.8990506614      2.24e-04   Normal BFGS step
    7    -572.8990519682      1.82e-04   Normal BFGS step
    8    -572.8990522650      1.10e-04   Normal BFGS step
    9    -572.8990523801      2.90e-05   Normal BFGS step
   10    -572.8990523923      2.58e-05   Normal BFGS step
   11    -572.8990523956      2.09e-05   Normal BFGS step
   12    -572.8990523968      1.59e-05   Normal BFGS step
   13    -572.8990523979      9.27e-06   Normal BFGS step
   14    -572.8990523988      8.55e-06   Normal BFGS step
   15    -572.8990523992      4.55e-06   Normal BFGS step
   16    -572.8990523993      1.62e-06   Normal BFGS step
   17    -572.8990523993      5.84e-07   Normal BFGS step
   18    -572.8990523993      3.60e-07   Normal BFGS step
   19    -572.8990523993      3.12e-07   Normal BFGS step
   20    -572.8990523993      1.95e-07   Normal BFGS step
   21    -572.8990523993      5.90e-08  Convergence criterion met
 ---------------------------------------
 SCF time:   CPU 3492.16s  wall 446.00s 
<S^2> =          0.754139061
(3)  G-ENP(liq) elect-nuc-pol free energy of system     -572.899052399 a.u.
(4)  G-CDS(liq) cavity-dispersion-solvent structure 
     free energy                                                2.9924 kcal/mol
(6)  G-S(liq) free energy of system                     -572.894283775 a.u.
 SCF   energy in the final basis set =     -572.8942837745
 Total energy in the final basis set =     -572.8942837745
 
 --------------------------------------------------------------
 
                    Orbital Energies (a.u.)
 --------------------------------------------------------------
 
 Alpha MOs
 -- Occupied --
-19.4634 -19.4164 -19.3434 -19.3408 -10.4128 -10.4070 -10.3892 -10.3542
-10.3537 -10.3497 -10.3495  -1.3432  -1.1680  -1.1529  -1.0232  -0.9672
[...]
 Force Cnst:      0.9297                 1.4747                 2.7326
 Red. Mass:       1.1156                 1.7009                 3.0747
 IR Active:          YES                    YES                    YES
 IR Intens:       19.236                 16.398                 22.964
 Raman Active:       YES                    YES                    YES
               X      Y      Z        X      Y      Z        X      Y      Z
 C         -0.008  0.012  0.012    0.005  0.006 -0.005   -0.006  0.022  0.004
 C          0.009 -0.001  0.003   -0.001 -0.011 -0.001   -0.007 -0.032 -0.104
 C          0.001 -0.016  0.007   -0.003  0.037 -0.025   -0.010  0.011  0.024
 C          0.005  0.016 -0.006   -0.037 -0.045  0.004    0.025  0.030 -0.013
 C         -0.026 -0.005 -0.013    0.010  0.019  0.003   -0.021 -0.023 -0.001
 C          0.023 -0.047  0.014    0.046  0.133 -0.132   -0.017 -0.093  0.077
 C         -0.009  0.050  0.024   -0.021 -0.052  0.084    0.006  0.044 -0.037
 H         -0.079  0.157 -0.213    0.113 -0.245  0.392   -0.290  0.077  0.014
 H         -0.096 -0.179 -0.028    0.048  0.261  0.213   -0.241  0.344  0.628
 H          0.142  0.057  0.186   -0.110 -0.037 -0.188    0.120  0.028  0.110
 H         -0.009  0.150 -0.202   -0.006 -0.171  0.149    0.021  0.100 -0.117
 H         -0.082 -0.188 -0.021   -0.255 -0.354  0.071    0.111  0.150 -0.036
 H         -0.295 -0.152  0.193   -0.265 -0.322  0.224    0.063  0.131 -0.069
 O         -0.023 -0.018  0.002    0.004 -0.012 -0.005   -0.003  0.001  0.004
 H          0.345  0.294 -0.280    0.037  0.034 -0.039    0.053  0.060 -0.051
 H          0.516  0.093 -0.029    0.265  0.039 -0.021   -0.027  0.004 -0.001
 O          0.004 -0.008 -0.005   -0.002  0.006  0.003    0.001 -0.001 -0.019
 H         -0.020  0.020  0.003    0.004 -0.011 -0.005    0.214 -0.152 -0.014
 O          0.008 -0.005  0.000   -0.040  0.029 -0.012   -0.174  0.129 -0.042
 O         -0.011  0.008 -0.003    0.050 -0.037  0.017    0.197 -0.145  0.066
 TransDip   0.128  0.010 -0.058   -0.006 -0.117  0.056    0.141 -0.025 -0.056

 Mode:                34                     35                     36
 Frequency:      1261.25                1324.73                1341.46
 Force Cnst:      1.1165                 1.4157                 1.4922
 Red. Mass:       1.1912                 1.3692                 1.4074
 IR Active:          YES                    YES                    YES
 IR Intens:       58.790                  1.822                  3.598
 Raman Active:       YES                    YES                    YES
               X      Y      Z        X      Y      Z        X      Y      Z
 C          0.011 -0.008 -0.004   -0.036  0.044 -0.055    0.010  0.011 -0.001
 C         -0.030  0.013  0.026   -0.063 -0.090  0.033    0.062  0.087 -0.030
 C          0.013  0.010  0.009    0.029  0.037  0.019    0.014 -0.018  0.023
 C         -0.004  0.006 -0.016    0.009  0.014 -0.012    0.014 -0.008  0.033
 C         -0.020 -0.015 -0.010   -0.029 -0.050  0.022   -0.010 -0.041  0.033
 C          0.008 -0.034  0.021   -0.021 -0.049 -0.029   -0.057  0.002 -0.095
 C         -0.006  0.017 -0.011    0.001  0.017  0.030   -0.005 -0.000  0.062
 H         -0.331 -0.210  0.474    0.738 -0.241  0.137   -0.212 -0.123  0.318
 H          0.108  0.160 -0.019    0.199  0.172 -0.083   -0.338 -0.296  0.165
 H          0.074  0.041  0.086    0.132  0.058  0.098   -0.220 -0.097 -0.207
 H         -0.017  0.092 -0.136   -0.006  0.137 -0.178   -0.004  0.136 -0.163
 H         -0.027 -0.010 -0.005    0.215  0.312 -0.041    0.332  0.431 -0.066
 H         -0.028  0.030  0.003    0.077 -0.026 -0.031    0.173 -0.044 -0.068
 O          0.004 -0.005  0.005   -0.011 -0.005 -0.008   -0.018 -0.009 -0.019
 H          0.023  0.033 -0.029    0.042  0.094 -0.080   -0.025  0.083 -0.064
 H          0.014  0.017 -0.013    0.138  0.018 -0.009    0.244  0.025 -0.015
 O         -0.015  0.035 -0.034   -0.003  0.025  0.019    0.006 -0.021  0.003
 H          0.585 -0.422 -0.039   -0.019  0.007 -0.002   -0.113  0.079  0.010
 O          0.043 -0.033  0.014   -0.005  0.007 -0.008    0.011 -0.012  0.009
 O         -0.038  0.027 -0.016    0.005 -0.003  0.003   -0.009  0.005 -0.005
 TransDip   0.232 -0.075  0.033   -0.006 -0.009 -0.042   -0.007  0.034  0.050

 Mode:                37                     38                     39
 Frequency:      1360.17                1371.57                1391.28
 Force Cnst:      1.7163                 1.3925                 1.6699
 Red. Mass:       1.5746                 1.2563                 1.4642
 IR Active:          YES                    YES                    YES
 IR Intens:       29.233                 36.851                 16.853
 Raman Active:       YES                    YES                    YES
               X      Y      Z        X      Y      Z        X      Y      Z
 C          0.037  0.032 -0.015    0.037 -0.017  0.022    0.098  0.011  0.007
 C         -0.047 -0.076 -0.072   -0.027 -0.024  0.036   -0.067 -0.062  0.036
 C         -0.017  0.021 -0.009   -0.001  0.005 -0.010    0.036  0.038  0.018
 C          0.004  0.022 -0.020   -0.009 -0.003 -0.008   -0.011 -0.021  0.009
 C          0.002 -0.008  0.015    0.020  0.023  0.004   -0.004 -0.015  0.012
 C         -0.009  0.002 -0.002    0.004  0.017 -0.005   -0.024  0.035 -0.062
 C         -0.005 -0.001  0.025   -0.034  0.009  0.081   -0.032 -0.079  0.021
 H         -0.158  0.109 -0.075   -0.190  0.105 -0.099   -0.421  0.133  0.001
 H         -0.106  0.528  0.669    0.226  0.047 -0.271    0.285  0.153 -0.262
 H          0.157  0.059  0.127    0.058  0.030  0.055   -0.006  0.013 -0.042
 H          0.036 -0.082  0.101   -0.006 -0.050  0.058   -0.024  0.094 -0.154
 H          0.028  0.000  0.005   -0.040 -0.101  0.014    0.128  0.128 -0.037
 H          0.141  0.024 -0.071    0.545  0.157 -0.293    0.033  0.041 -0.011
 O         -0.010 -0.003 -0.012   -0.036 -0.029 -0.045    0.009  0.036  0.020
 H         -0.026  0.020 -0.007   -0.271  0.009  0.058    0.503  0.162 -0.263
 H          0.114  0.007 -0.004    0.529  0.050 -0.039   -0.345 -0.025  0.029
 O          0.005 -0.025  0.008   -0.003 -0.001 -0.006    0.000 -0.026  0.000
 H         -0.219  0.158  0.016    0.036 -0.022 -0.002   -0.181  0.135  0.014
 O          0.097 -0.064  0.050   -0.027  0.021 -0.016   -0.017  0.015 -0.013
 O         -0.064  0.044 -0.036    0.018 -0.012  0.010    0.012 -0.007  0.007
 TransDip  -0.066  0.073 -0.142    0.190 -0.000  0.042   -0.120 -0.047  0.025

 Mode:                40                     41                     42
 Frequency:      1402.53                1429.54                1452.72
 Force Cnst:      1.5573                 2.2382                 2.4079
 Red. Mass:       1.3437                 1.8589                 1.9365
 IR Active:          YES                    YES                    YES
 IR Intens:       79.119                 27.241                 15.589
 Raman Active:       YES                    YES                    YES
               X      Y      Z        X      Y      Z        X      Y      Z
 C         -0.068  0.002 -0.019    0.020 -0.020  0.025   -0.033 -0.113  0.193
 C          0.048  0.040 -0.008    0.039  0.036  0.042   -0.004  0.008 -0.075
 C         -0.027 -0.027 -0.018   -0.104 -0.088 -0.075    0.002  0.015 -0.001
 C         -0.002  0.008 -0.007    0.045  0.127 -0.083    0.003 -0.021  0.031
 C          0.021  0.039 -0.008   -0.003 -0.069  0.075    0.018 -0.007  0.030
 C          0.043 -0.018  0.017   -0.055  0.014 -0.086   -0.042  0.051 -0.113
 C         -0.083 -0.074  0.040    0.016 -0.002  0.011   -0.009 -0.034  0.026
 H          0.246 -0.129  0.077   -0.085 -0.027  0.084    0.274  0.248 -0.560
 H         -0.175 -0.128  0.147    0.092 -0.045 -0.114    0.013  0.185  0.084
 H          0.022 -0.003  0.045    0.357  0.128  0.473   -0.087 -0.030 -0.121
 H          0.015 -0.108  0.150    0.095 -0.299  0.542    0.005  0.042 -0.067
 H         -0.127 -0.191  0.034    0.198  0.205  0.027    0.144  0.188 -0.002
 H          0.424  0.267 -0.263   -0.120 -0.117  0.086   -0.033  0.048  0.049
 O         -0.005  0.025  0.004    0.005  0.004  0.004    0.005  0.001  0.003
 H          0.504  0.197 -0.276    0.051  0.032 -0.039    0.016  0.069 -0.122
 H         -0.159 -0.001  0.011   -0.044 -0.003  0.003   -0.024  0.008 -0.006
 O          0.002  0.012  0.001   -0.002  0.001 -0.002   -0.011  0.051 -0.027
 H          0.093 -0.066 -0.008    0.021 -0.017 -0.001    0.456 -0.323 -0.036
 O          0.006 -0.006  0.005   -0.017  0.012 -0.009    0.015 -0.010  0.012
 O         -0.005  0.002 -0.002    0.010 -0.007  0.007   -0.009  0.006 -0.007
 TransDip  -0.215 -0.148  0.114    0.115 -0.011  0.121    0.104 -0.063  0.035

 Mode:                43                     44                     45
 Frequency:      1477.33                1701.87                1754.36
 Force Cnst:      1.4039                13.6620                12.2104
 Red. Mass:       1.0918                 8.0059                 6.7335
 IR Active:          YES                    YES                    YES
 IR Intens:        8.910                  3.713                  2.227
 Raman Active:       YES                    YES                    YES
               X      Y      Z        X      Y      Z        X      Y      Z
 C          0.000  0.011 -0.016    0.026  0.025 -0.016   -0.038 -0.028 -0.027
 C          0.001 -0.001  0.006    0.019 -0.006  0.048    0.035  0.007  0.030
 C         -0.001 -0.001 -0.002   -0.202  0.035 -0.411   -0.130  0.003 -0.237
 C         -0.000  0.000 -0.002    0.118 -0.167  0.434    0.117 -0.031  0.238
 C          0.002  0.002 -0.001    0.193  0.234 -0.022   -0.302 -0.265 -0.095
 C          0.005 -0.002  0.002   -0.223 -0.209 -0.054    0.330  0.274  0.118
 C          0.042 -0.069  0.022    0.022  0.037 -0.011   -0.033 -0.045  0.005
 H         -0.010 -0.025  0.048    0.007 -0.097  0.191   -0.073  0.051 -0.127
 H         -0.003 -0.014 -0.001    0.161  0.169  0.011    0.040  0.040  0.056
 H          0.007  0.004  0.011    0.244  0.277  0.060    0.162  0.175  0.082
 H         -0.000 -0.009  0.012    0.124  0.251 -0.130    0.115  0.294 -0.187
 H         -0.017 -0.012  0.009    0.006 -0.040  0.056    0.109  0.362 -0.263
 H         -0.191  0.619  0.263   -0.094 -0.079  0.042    0.113  0.107 -0.061
 O          0.009 -0.003 -0.001    0.004  0.002 -0.000   -0.006 -0.004  0.002
 H         -0.469  0.231 -0.471    0.021  0.048 -0.040   -0.028 -0.074  0.067
 H         -0.008 -0.009  0.000   -0.008 -0.001  0.003    0.009  0.003 -0.003
 O          0.001 -0.004  0.002    0.003 -0.006  0.004   -0.005  0.003 -0.002
 H         -0.047  0.031  0.002   -0.030  0.020  0.005    0.004 -0.000  0.001
 O         -0.001  0.001 -0.001   -0.000  0.009  0.007   -0.001  0.004  0.003
 O          0.000 -0.000  0.000    0.001 -0.001  0.000    0.001 -0.000  0.001
 TransDip  -0.067  0.065 -0.020   -0.010 -0.056  0.023   -0.010  0.016  0.044

 Mode:                46                     47                     48
 Frequency:      3038.71                3065.74                3114.74
 Force Cnst:      5.8931                 5.8569                 6.3376
 Red. Mass:       1.0832                 1.0577                 1.1087
 IR Active:          YES                    YES                    YES
 IR Intens:       39.634                 52.218                 33.406
 Raman Active:       YES                    YES                    YES
               X      Y      Z        X      Y      Z        X      Y      Z
 C         -0.018 -0.070 -0.040    0.001  0.002  0.002   -0.000 -0.001 -0.000
 C          0.000 -0.001 -0.000   -0.000  0.000 -0.000    0.000 -0.000  0.000
 C          0.000 -0.000  0.000    0.000  0.000 -0.000   -0.000  0.000 -0.000
 C         -0.000 -0.000  0.000    0.000  0.000  0.000   -0.000 -0.000 -0.000
 C          0.000  0.000 -0.000    0.000 -0.000  0.001    0.001  0.000  0.001
 C         -0.001 -0.001 -0.000   -0.000 -0.001  0.000   -0.001 -0.001 -0.001
 C         -0.001  0.002  0.000   -0.036  0.054 -0.018   -0.027 -0.043 -0.081
 H          0.190  0.847  0.489   -0.007 -0.026 -0.016    0.003  0.008  0.006
 H         -0.009  0.006 -0.005    0.002 -0.001  0.001   -0.005  0.003 -0.003
 H          0.001  0.002 -0.002   -0.000 -0.001  0.000    0.000  0.000 -0.000
 H          0.002  0.002  0.001   -0.001 -0.001 -0.001    0.001  0.001  0.001
 H          0.004 -0.002  0.004   -0.002  0.002 -0.007   -0.002  0.002 -0.005
 H          0.009 -0.000  0.013    0.407 -0.070  0.593    0.385 -0.080  0.561
 O          0.000  0.000 -0.000   -0.001 -0.000  0.000    0.000  0.001  0.001
 H          0.003 -0.023 -0.018    0.049 -0.561 -0.394   -0.056  0.598  0.401
 H          0.000 -0.000  0.000    0.001  0.006  0.007   -0.005 -0.011 -0.006
 O          0.001 -0.000 -0.000   -0.000  0.000  0.000   -0.000  0.000 -0.000
 H          0.005  0.002 -0.002    0.003  0.000 -0.001    0.000 -0.001  0.000
 O          0.000  0.000  0.000   -0.000 -0.000 -0.000    0.000 -0.000 -0.000
 O         -0.000  0.000 -0.000    0.000 -0.000 -0.000   -0.000 -0.000  0.000
 TransDip  -0.000 -0.167 -0.113   -0.133  0.181 -0.055   -0.076 -0.057 -0.159

 Mode:                49                     50                     51
 Frequency:      3121.23                3184.23                3196.05
 Force Cnst:      6.2299                 6.5116                 6.5488
 Red. Mass:       1.0854                 1.0900                 1.0881
 IR Active:          YES                    YES                    YES
 IR Intens:        5.065                 14.201                 10.883
 Raman Active:       YES                    YES                    YES
               X      Y      Z        X      Y      Z        X      Y      Z
 C         -0.001 -0.001 -0.001    0.001  0.000  0.000   -0.000  0.000 -0.000
 C         -0.060  0.042 -0.041    0.001 -0.000  0.001    0.002 -0.001  0.001
 C         -0.001 -0.003  0.002   -0.004 -0.010  0.006   -0.015 -0.041  0.028
 C         -0.000 -0.000  0.001    0.024  0.020  0.015    0.039  0.037  0.021
 C          0.000  0.000 -0.001   -0.041  0.012 -0.066    0.018 -0.006  0.030
 C         -0.000 -0.000  0.000    0.003  0.003  0.001   -0.002 -0.002 -0.000
 C         -0.000 -0.000 -0.000   -0.000  0.000 -0.001    0.000 -0.000  0.000
 H          0.003  0.010  0.005   -0.001 -0.004 -0.003    0.001  0.001  0.002
 H          0.714 -0.506  0.474   -0.008  0.005 -0.006   -0.018  0.011 -0.012
 H          0.013  0.033 -0.028    0.042  0.116 -0.081    0.173  0.478 -0.335
 H         -0.000  0.002  0.001   -0.278 -0.252 -0.159   -0.461 -0.423 -0.256
 H          0.003 -0.001  0.004    0.449 -0.162  0.759   -0.201  0.075 -0.343
 H          0.002 -0.000  0.002    0.004 -0.003  0.007   -0.002  0.001 -0.003
 O          0.000 -0.000  0.000   -0.000 -0.000  0.000    0.000  0.000 -0.000
 H         -0.000  0.005  0.004    0.000 -0.001  0.001    0.000  0.002  0.000
 H         -0.000 -0.000 -0.000   -0.000  0.000  0.000    0.000 -0.000 -0.000
 O          0.000 -0.000  0.000   -0.000  0.000  0.000    0.000 -0.000  0.000
 H          0.003  0.002 -0.002   -0.000 -0.000  0.000   -0.000  0.000 -0.000
 O         -0.001  0.001  0.000    0.000 -0.000 -0.000   -0.000 -0.000 -0.000
 O          0.001 -0.001  0.000   -0.000 -0.000 -0.000   -0.000 -0.000  0.000
 TransDip  -0.060  0.023 -0.032   -0.007  0.072 -0.097    0.068  0.008  0.081

 Mode:                52                     53                     54
 Frequency:      3213.37                3742.46                3816.55
 Force Cnst:      6.6884                 8.7989                 9.1532
 Red. Mass:       1.0994                 1.0663                 1.0665
 IR Active:          YES                    YES                    YES
 IR Intens:       14.217                300.552                106.158
 Raman Active:       YES                    YES                    YES
               X      Y      Z        X      Y      Z        X      Y      Z
 C          0.001  0.001  0.000    0.000  0.001 -0.001    0.000 -0.000 -0.000
 C          0.003 -0.001  0.002   -0.001  0.000 -0.000    0.000 -0.000 -0.000
 C         -0.016 -0.053  0.043    0.000  0.000  0.000    0.000 -0.000  0.000
 C         -0.038 -0.032 -0.026    0.000  0.000  0.000    0.000 -0.000 -0.000
 C         -0.006  0.004 -0.012   -0.000  0.000 -0.000    0.000 -0.000  0.000
 C          0.001  0.001  0.000   -0.000 -0.000  0.000   -0.000  0.000 -0.000
 C         -0.000  0.000 -0.000   -0.001 -0.000  0.000   -0.001 -0.001 -0.001
 H         -0.001 -0.004 -0.002   -0.003  0.004  0.002    0.000  0.000 -0.000
 H         -0.027  0.016 -0.019    0.003 -0.002  0.002   -0.000  0.000  0.000
 H          0.218  0.606 -0.429   -0.000 -0.001  0.000   -0.000  0.000  0.000
 H          0.414  0.378  0.234   -0.000 -0.000 -0.000   -0.000 -0.000  0.000
 H          0.072 -0.029  0.126   -0.000 -0.001 -0.001   -0.000  0.000 -0.000
 H          0.001 -0.001  0.002    0.002  0.000  0.000   -0.002  0.000  0.003
 O         -0.000 -0.000  0.000    0.001 -0.003 -0.003    0.007 -0.043 -0.045
 H         -0.000 -0.002 -0.001    0.001 -0.000 -0.000   -0.002  0.011  0.009
 H         -0.000  0.000  0.000   -0.008  0.051  0.046   -0.098  0.683  0.718
 O         -0.000  0.000 -0.000    0.026  0.035 -0.045   -0.002 -0.002  0.003
 H         -0.001 -0.001  0.001   -0.420 -0.556  0.711    0.026  0.039 -0.051
 O         -0.000 -0.000 -0.000   -0.000  0.000  0.000   -0.000  0.000  0.000
 O         -0.000 -0.000 -0.000    0.000 -0.000  0.000   -0.000 -0.000 -0.000
 TransDip  -0.071 -0.097  0.003   -0.237 -0.289  0.410   -0.104  0.204  0.238

 STANDARD THERMODYNAMIC QUANTITIES AT   298.15 K  AND     1.00 ATM

   This Molecule has  0 Imaginary Frequencies
   Zero point vibrational energy:       98.729 kcal/mol

   Atom    1 Element C  Has Mass   12.00000
   Atom    2 Element C  Has Mass   12.00000
   Atom    3 Element C  Has Mass   12.00000
   Atom    4 Element C  Has Mass   12.00000
   Atom    5 Element C  Has Mass   12.00000
   Atom    6 Element C  Has Mass   12.00000
   Atom    7 Element C  Has Mass   12.00000
   Atom    8 Element H  Has Mass    1.00783
   Atom    9 Element H  Has Mass    1.00783
   Atom   10 Element H  Has Mass    1.00783
   Atom   11 Element H  Has Mass    1.00783
   Atom   12 Element H  Has Mass    1.00783
   Atom   13 Element H  Has Mass    1.00783
   Atom   14 Element O  Has Mass   15.99491
   Atom   15 Element H  Has Mass    1.00783
   Atom   16 Element H  Has Mass    1.00783
   Atom   17 Element O  Has Mass   15.99491
   Atom   18 Element H  Has Mass    1.00783
   Atom   19 Element O  Has Mass   15.99491
   Atom   20 Element O  Has Mass   15.99491
   Molecular Mass:   157.050110 amu
   Principal axes and moments of inertia in amu*Bohr^2:
                             1           2           3
    Eigenvalues --     1042.02373  2129.27508  2298.57973
          X              -0.50061     0.68026    -0.53538
          Y              -0.39833     0.36808     0.84015
          Z               0.76858     0.63385     0.08671
   Rotational Symmetry Number is   1
   The Molecule is an Asymmetric Top
   Translational Enthalpy:        0.889 kcal/mol
   Rotational Enthalpy:           0.889 kcal/mol
   Vibrational Enthalpy:        103.598 kcal/mol
   gas constant (RT):             0.592 kcal/mol
   Translational Entropy:        41.063  cal/mol.K
   Rotational Entropy:           30.012  cal/mol.K
   Vibrational Entropy:          30.518  cal/mol.K

   Total Enthalpy:              105.968 kcal/mol
   Total Entropy:               101.593  cal/mol.K
 Total job time:  61707.25s(wall), 475544.16s(cpu) 
 Sat Apr 22 14:52:04 2023

        *************************************************************
        *                                                           *
        *  Thank you very much for using Q-Chem.  Have a nice day.  *
        *                                                           *
        *************************************************************


