
Running Job 1 of 1 Q_in.in
qchem Q_in.in_116173.0 /scratch/ari.fischer/qChem1469991.hpc-mn1/qchem116173/ 0
/usr/local/qchem-5.4.1/exe/qcprog.exe_s Q_in.in_116173.0 /scratch/ari.fischer/qChem1469991.hpc-mn1/qchem116173/
                  Welcome to Q-Chem
     A Quantum Leap Into The Future Of Chemistry


 Q-Chem 5.4, Q-Chem, Inc., Pleasanton, CA (2021)

 License issued to: Nanyang Technological University (site)

 E. Epifanovsky,  A. T. B. Gilbert,  Xintian Feng,  Joonho Lee,  Yuezhi Mao,  
 N. Mardirossian,  P. Pokhilko,  A. White,  M. Wormit,  M. P. Coons,  
 A. L. Dempwolff,  Zhengting Gan,  D. Hait,  P. R. Horn,  L. D. Jacobson,  
 I. Kaliman,  J. Kussmann,  A. W. Lange,  Ka Un Lao,  D. S. Levine,  Jie Liu,  
 S. C. McKenzie,  A. F. Morrison,  K. Nanda,  F. Plasser,  D. R. Rehn,  
 M. L. Vidal,  Zhi-Qiang You,  Ying Zhu,  B. Alam,  B. Albrecht,  
 A. Aldossary,  E. Alguire,  J. H. Andersen,  D. Barton,  K. Begam,  A. Behn,  
 Y. A. Bernard,  E. J. Berquist,  H. Burton,  A. Carreras,  K. Carter-Fenk,  
 R. Chakraborty,  A. D. Chien,  K. D. Closser,  V. Cofer-Shabica,  
 S. Dasgupta,  Jia Deng,  M. de Wergifosse,  M. Diedenhofen,  Hainam Do,  
 S. Ehlert,  Po-Tung Fang,  S. Fatehi,  Qingguo Feng,  T. Friedhoff,  
 J. Gayvert,  Qinghui Ge,  G. Gidofalvi,  M. Goldey,  J. Gomes,  
 C. Gonzalez-Espinoza,  S. Gulania,  A. Gunina,  M. W. D. Hanson-Heine,  
 P. H. P. Harbach,  A. W. Hauser,  M. F. Herbst,  M. Hernandez Vera,  
 M. Hodecker,  Z. C. Holden,  S. Houck,  Xunkun Huang,  Kerwin Hui,  
 B. C. Huynh,  M. Ivanov,  Hyunjun Ji,  Hanjie Jiang,  B. Kaduk,  S. Kaehler,  
 K. Khistyaev,  Jaehoon Kim,  P. Klunzinger,  Z. Koczor-Benda,  
 Joong Hoon Koh,  D. Kosenkov,  L. Koulias,  T. Kowalczyk,  C. M. Krauter,  
 K. Kue,  A. Kunitsa,  T. Kus,  A. Landau,  K. V. Lawler,  D. Lefrancois,  
 S. Lehtola,  Rain Li,  Yi-Pei Li,  Jiashu Liang,  M. Liebenthal,  
 Hung-Hsuan Lin,  You-Sheng Lin,  Fenglai Liu,  Kuan-Yu Liu,  
 M. Loipersberger,  A. Luenser,  A. Manjanath,  P. Manohar,  E. Mansoor,  
 S. F. Manzer,  Shan-Ping Mao,  A. V. Marenich,  T. Markovich,  S. Mason,  
 S. A. Maurer,  P. F. McLaughlin,  M. F. S. J. Menger,  J.-M. Mewes,  
 S. A. Mewes,  P. Morgante,  J. W. Mullinax,  K. J. Oosterbaan,  G. Paran,  
 Alexander C. Paul,  Suranjan K. Paul,  F. Pavosevic,  Zheng Pei,  S. Prager,  
 E. I. Proynov,  E. Ramos,  B. Rana,  A. E. Rask,  A. Rettig,  R. M. Richard,  
 F. Rob,  E. Rossomme,  T. Scheele,  M. Scheurer,  M. Schneider,  
 N. Sergueev,  S. M. Sharada,  W. Skomorowski,  D. W. Small,  C. J. Stein,  
 Yu-Chuan Su,  E. J. Sundstrom,  Zhen Tao,  J. Thirman,  T. Tsuchimochi,  
 N. M. Tubman,  S. P. Veccham,  O. Vydrov,  J. Wenzel,  J. Witte,  A. Yamada,  
 Kun Yao,  S. Yeganeh,  S. R. Yost,  A. Zech,  Igor Ying Zhang,  Xing Zhang,  
 Yu Zhang,  D. Zuev,  A. Aspuru-Guzik,  A. T. Bell,  N. A. Besley,  
 K. B. Bravaya,  B. R. Brooks,  D. Casanova,  Jeng-Da Chai,  S. Coriani,  
 C. J. Cramer,  A. E. DePrince, III,  R. A. DiStasio Jr.,  A. Dreuw,  
 B. D. Dunietz,  T. R. Furlani,  W. A. Goddard III,  S. Grimme,  
 S. Hammes-Schiffer,  T. Head-Gordon,  W. J. Hehre,  Chao-Ping Hsu,  
 T.-C. Jagau,  Yousung Jung,  A. Klamt,  Jing Kong,  D. S. Lambrecht,  
 WanZhen Liang,  N. J. Mayhall,  C. W. McCurdy,  J. B. Neaton,  
 C. Ochsenfeld,  J. A. Parkhill,  R. Peverati,  V. A. Rassolov,  Yihan Shao,  
 L. V. Slipchenko,  T. Stauch,  R. P. Steele,  J. E. Subotnik,  
 A. J. W. Thom,  A. Tkatchenko,  D. G. Truhlar,  T. Van Voorhis,  
 T. A. Wesolowski,  K. B. Whaley,  H. L. Woodcock III,  P. M. Zimmerman,  
 S. Faraji,  P. M. W. Gill,  M. Head-Gordon,  J. M. Herbert,  A. I. Krylov

 Additional authors for Version 5.4.1: 
 S. Kotaru,  Shaozhi Li,  Xiangyuan Li,  F. Matz,  A. Molle,  Haisheng Ren,  
 Yingli Su,  Hung-Yi Tsai,  C. Utku,  Fang Wang

 Contributors to earlier versions of Q-Chem not listed above: 
 R. D. Adamson,  B. Austin,  R. Baer,  J. Baker,  G. J. O. Beran,  
 K. Brandhorst,  S. T. Brown,  E. F. C. Byrd,  A. K. Chakraborty,  
 G. K. L. Chan,  Chun-Min Chang,  Yunqing Chen,  C.-L. Cheng,  
 Siu Hung Chien,  D. M. Chipman,  D. L. Crittenden,  H. Dachsel,  
 R. J. Doerksen,  A. D. Dutoi,  R. G. Edgar,  J. Fosso-Tande,  
 L. Fusti-Molnar,  D. Ghosh,  A. Ghysels,  A. Golubeva-Zadorozhnaya,  
 J. Gonthier,  M. S. Gordon,  S. R. Gwaltney,  G. Hawkins,  J. E. Herr,  
 A. Heyden,  S. Hirata,  E. G. Hohenstein,  G. Kedziora,  F. J. Keil,  
 C. Kelley,  Jihan Kim,  R. A. King,  R. Z. Khaliullin,  P. P. Korambath,  
 W. Kurlancheek,  A. Laurent,  A. M. Lee,  M. S. Lee,  S. V. Levchenko,  
 Ching Yeh Lin,  D. Liotard,  E. Livshits,  R. C. Lochan,  I. Lotan,  
 L. A. Martinez-Martinez,  P. E. Maslen,  N. Nair,  D. P. O'Neill,  
 D. Neuhauser,  E. Neuscamman,  C. M. Oana,  R. Olivares-Amaya,  R. Olson,  
 T. M. Perrine,  B. Peters,  P. A. Pieniazek,  A. Prociuk,  Y. M. Rhee,  
 J. Ritchie,  M. A. Rohrdanz,  E. Rosta,  N. J. Russ,  H. F. Schaefer III,  
 M. W. Schmidt,  N. E. Schultz,  S. Sharma,  N. Shenvi,  C. D. Sherrill,  
 A. C. Simmonett,  A. Sodt,  T. Stein,  D. Stuck,  K. S. Thanthiriwatte,  
 V. Vanovschi,  L. Vogt,  Tao Wang,  A. Warshel,  M. A. Watson,  
 C. F. Williams,  Q. Wu,  X. Xu,  Jun Yang,  W. Zhang,  Yan Zhao

 Please cite Q-Chem as follows:
 Y. Shao et al., Mol. Phys. 113, 184-215 (2015)
 DOI: 10.1080/00268976.2014.952696

 Q-Chem 5.4.1 for Intel X86 EM64T Linux

 Parts of Q-Chem use Armadillo 9.800.1 (Horizon Scraper).
 http://arma.sourceforge.net/

 Q-Chem begins on Tue Feb 14 14:04:01 2023  

 Host: 
0

     Scratch files written to /scratch/ari.fischer/qChem1469991.hpc-mn1/qchem116173//
 Aug1521 |scratch|qcdevops|jenkins|workspace|build_RNUM 8249   
 Processing $rem in /usr/local/qchem-5.4.1/config/preferences:
 Processing $rem in /home/ari.fischer/.qchemrc:
 Symmetry turned off for PCM/SM12/SMD calculation

 Checking the input file for inconsistencies... 	...done.

--------------------------------------------------------------
User input:
--------------------------------------------------------------
$molecule
0 2
C        -0.2316168378   -0.1220484138    0.6889249477
C        -0.8875816536   -1.1140714258    1.6539254900
C        -1.8875495447   -2.0501720062    1.0516528594
C        -2.4221212852   -1.7997598727   -0.1485272440
C        -2.0346568278   -0.6255768309   -0.9394912446
C        -1.0424606670    0.1838889538   -0.5500037080
C        -0.5832432145    1.3668180794   -1.3520885827
H        -0.0559877902    0.8101408571    1.2463424595
H        -0.0937374539   -1.6497322095    2.1809689039
H        -2.1774878305   -2.9169170907    1.6381551804
H        -3.1617403608   -2.4759038488   -0.5687625462
H        -2.5732951538   -0.4273930658   -1.8634100085
H        -1.2164311348    1.5098033811   -2.2346018315
O         0.7978160952    1.2237782447   -1.7357723870
H        -0.6215309330    2.2779797356   -0.7461453772
H         0.8240504384    0.5269923895   -2.4134372611
O         1.0201709469   -0.7062319996    0.3103703964
H         1.3665902845   -0.1114381515   -0.3838345709
O        -1.5274932117   -0.3668834334    2.7547508053
O        -2.5107022655    0.3791493074    2.3109583191
$end

$rem
BASIS = 6-311++G(2df,2p)
GUI = 2
JOB_TYPE = Optimization
METHOD = wB97M-V
SCF_ALGORITHM = DIIS_GDM
MAX_SCF_CYCLES = 400
GEOM_OPT_MAX_CYCLES = 150
SCF_CONVERGENCE = 7
THRESH = 12
UNRESTRICTED = 1
Solvent_method = SMD
$end
--------------------------------------------------------------
 ----------------------------------------------------------------
             Standard Nuclear Orientation (Angstroms)
    I     Atom           X                Y                Z
 ----------------------------------------------------------------
    1      C      -0.2316168378    -0.1220484138     0.6889249477
    2      C      -0.8875816536    -1.1140714258     1.6539254900
    3      C      -1.8875495447    -2.0501720062     1.0516528594
    4      C      -2.4221212852    -1.7997598727    -0.1485272440
    5      C      -2.0346568278    -0.6255768309    -0.9394912446
    6      C      -1.0424606670     0.1838889538    -0.5500037080
    7      C      -0.5832432145     1.3668180794    -1.3520885827
    8      H      -0.0559877902     0.8101408571     1.2463424595
    9      H      -0.0937374539    -1.6497322095     2.1809689039
   10      H      -2.1774878305    -2.9169170907     1.6381551804
   11      H      -3.1617403608    -2.4759038488    -0.5687625462
   12      H      -2.5732951538    -0.4273930658    -1.8634100085
   13      H      -1.2164311348     1.5098033811    -2.2346018315
   14      O       0.7978160952     1.2237782447    -1.7357723870
   15      H      -0.6215309330     2.2779797356    -0.7461453772
   16      H       0.8240504384     0.5269923895    -2.4134372611
   17      O       1.0201709469    -0.7062319996     0.3103703964
   18      H       1.3665902845    -0.1114381515    -0.3838345709
   19      O      -1.5274932117    -0.3668834334     2.7547508053
   20      O      -2.5107022655     0.3791493074     2.3109583191
 ----------------------------------------------------------------
 Nuclear Repulsion Energy =         642.74100282 hartrees
 There are       42 alpha and       41 beta electrons
 Requested basis set is 6-311++G(2df,2p)
 There are 142 shells and 464 basis functions

 Total QAlloc Memory Limit 288000 MB
 Mega-Array Size       188 MB
 MEM_STATIC part       192 MB
 
 Citation of the SMD model:
 Marenich, A.V.; Cramer, C.J.; Truhlar, D.G.
 J. Phys. Chem. B 2009, 113, 6378-6396.
 iSolventCode=           1
 Solvent: water                                                           
 
 vradii
            1           2           3           4           5           6
    1   1.8500000   1.8500000   1.8500000   1.8500000   1.8500000   1.8500000
            7           8           9          10          11          12
    1   1.8500000   1.2000000   1.2000000   1.2000000   1.2000000   1.2000000
           13          14          15          16          17          18
    1   1.2000000   1.5200000   1.2000000   1.2000000   1.5200000   1.2000000
           19          20
    1   1.5200000   1.5200000
 Changing PCM_VDW_RADII to SMD_RADIUS
 Discretize the solute cavity surface with Lebedev spheres
	Using 110 Lebedev grid points for each H atom
	Using 194 Lebedev grid points for other atoms
	Atomic van der Waals radii will be scaled by 1.20
 Remove points where switching function is < 1.0e-08
 Keep 1481 surface tesserae and discard 1643 interior tesserae
 Molecular Surface Area = 170.474 Angst**2
 A cutoff of  1.0D-12 yielded   9021 shell pairs
 There are     96981 function pairs (    121077 Cartesian)
 Smallest overlap matrix eigenvalue = 1.55E-06

 Scale SEOQF with 1.000000e-01/1.000000e-01/1.000000e-01

 Standard Electronic Orientation quadrupole field applied
 Nucleus-field energy     =    -0.0000000060 hartrees
 Guess from superposition of atomic densities
 Warning:  Energy on first SCF cycle will be non-variational
 SAD guess density has 83.000000 electrons

 -----------------------------------------------------------------------
  General SCF calculation program by
  Eric Jon Sundstrom, Paul Horn, Yuezhi Mao, Dmitri Zuev, Alec White,
  David Stuck, Shaama M.S., Shane Yost, Joonho Lee, David Small,
  Daniel Levine, Susi Lehtola, Hugh Burton, Evgeny Epifanovsky,
  Bang C. Huynh
 -----------------------------------------------------------------------
 Exchange:     0.1500 Hartree-Fock + 1.0000 wB97M-V + LR-HF
 Correlation:  1.0000 wB97M-V
 Using SG-2 standard quadrature grid
 Nonlocal Correlation:  VV10 with C = 0.0100 and b = 6.00 and scale = 1.00000
 Grid used for NLC:  SG-1 standard quadrature
 
 Citation of the SMD model:
 Marenich, A.V.; Cramer, C.J.; Truhlar, D.G.
 J. Phys. Chem. B 2009, 113, 6378-6396.
 iSolventCode=           1
 Solvent: water                                                           
 
 vradii
            1           2           3           4           5           6
    1   1.8500000   1.8500000   1.8500000   1.8500000   1.8500000   1.8500000
            7           8           9          10          11          12
    1   1.8500000   1.2000000   1.2000000   1.2000000   1.2000000   1.2000000
           13          14          15          16          17          18
    1   1.2000000   1.5200000   1.2000000   1.2000000   1.5200000   1.2000000
           19          20
    1   1.5200000   1.5200000
 using 8 threads for integral computing
 -------------------------------------------------------
 OpenMP Integral computing Module                
 Release: version 1.0, May 2013, Q-Chem Inc. Pittsburgh 
 -------------------------------------------------------
 -------------------------------------------------------
 OpenMP BLAS3 based DFT computing Module                
 Release: version 1.0, May 2013, Q-Chem Inc. Pittsburgh 
 -------------------------------------------------------
 A unrestricted SCF calculation will be
 performed using DIIS, GDM
 SCF converges when RMS gradient is below 1.0e-07
 ---------------------------------------
  Cycle       Energy         DIIS error
 ---------------------------------------
    1    -575.6626752522      1.15e-02  
    2    -572.7588099472      1.22e-03  Done DIIS. Switching to GDM
 ---------------------------------------
  Cycle       Energy        RMS Gradient
 ---------------------------------------
    1    -572.7588099472      8.69e-02   Descent step
    2    -572.8761336966      2.20e-02   Normal BFGS step
    3    -572.8931403250      2.45e-02   Normal BFGS step
    4    -572.8967904113      4.81e-03   Normal BFGS step
    5    -572.8978681057      3.77e-03   Normal BFGS step
    6    -572.8980855583      3.11e-03   Normal BFGS step
    7    -572.8981574695      1.72e-03   Normal BFGS step
    8    -572.8981812703      8.32e-04   Normal BFGS step
    9    -572.8981848301      6.60e-04   Normal BFGS step
   10    -572.8981863202      4.68e-04   Normal BFGS step
   11    -572.8981870758      3.57e-04   Normal BFGS step
   12    -572.8981879173      2.30e-04   Normal BFGS step
   13    -572.8981883768      1.75e-04   Normal BFGS step
   14    -572.8981885200      9.10e-05   Normal BFGS step
   15    -572.8981885497      2.81e-05   Normal BFGS step
   16    -572.8981885567      1.30e-05   Normal BFGS step
   17    -572.8981885581      9.67e-06   Normal BFGS step
   18    -572.8981885586      5.90e-06   Normal BFGS step
   19    -572.8981885588      4.00e-06   Normal BFGS step
   20    -572.8981885590      2.06e-06   Normal BFGS step
   21    -572.8981885590      5.91e-07   Normal BFGS step
   22    -572.8981885590      1.85e-07   Normal BFGS step
   23    -572.8981885590      1.47e-07   Normal BFGS step
   24    -572.8981885589      7.83e-08  Convergence criterion met
 ---------------------------------------
 SCF time:   CPU 3309.43s  wall 419.00s 
<S^2> =          0.754187622
(3)  G-ENP(liq) elect-nuc-pol free energy of system     -572.898188559 a.u.
(4)  G-CDS(liq) cavity-dispersion-solvent structure 
     free energy                                                2.9864 kcal/mol
(6)  G-S(liq) free energy of system                     -572.893429384 a.u.
 SCF   energy in the final basis set =     -572.8934293840
 Total energy in the final basis set =     -572.8934293840
 
 --------------------------------------------------------------
 
                    Orbital Energies (a.u.)
 --------------------------------------------------------------
 
 Alpha MOs
 -- Occupied --
-19.4632 -19.4173 -19.3467 -19.3401 -10.4139 -10.4078 -10.3914 -10.3563
-10.3558 -10.3519 -10.3514  -1.3381  -1.1690  -1.1517  -1.0222  -0.9652
 -0.8942  -0.8573  -0.8004  -0.7480  -0.7166  -0.6664  -0.6425  -0.6322
 -0.6176  -0.6083  -0.5885  -0.5779  -0.5530  -0.5433  -0.5341  -0.5118
 -0.5056  -0.4723  -0.4539  -0.4424  -0.4287  -0.4115  -0.4048  -0.3906
 -0.3802  -0.3278
 -- Virtual --
  0.0153   0.0266   0.0361   0.0395   0.0456   0.0552   0.0584   0.0745
  0.0796   0.0844   0.0963   0.0987   0.1138   0.1211   0.1311   0.1344
  0.1403   0.1442   0.1514   0.1547   0.1578   0.1617   0.1662   0.1717
  0.1804   0.1809   0.1845   0.1903   0.1941   0.1986   0.2043   0.2047
  0.2088   0.2146   0.2227   0.2314   0.2454   0.2535   0.2587   0.2662
  0.2703   0.2747   0.2804   0.2843   0.2926   0.3036   0.3098   0.3116
  0.3172   0.3282   0.3310   0.3380   0.3419   0.3489   0.3551   0.3660
  0.3713   0.3790   0.3839   0.3885   0.3904   0.3956   0.4034   0.4095
  0.4141   0.4175   0.4359   0.4424   0.4560   0.4590   0.4709   0.4771
  0.5061   0.5307   0.5481   0.5511   0.5787   0.5862   0.5933   0.6007
  0.6125   0.6162   0.6310   0.6459   0.6482   0.6605   0.6634   0.6703
  0.6825   0.6844   0.6914   0.6962   0.7132   0.7150   0.7196   0.7333
  0.7420   0.7563   0.7573   0.7665   0.7868   0.7950   0.8039   0.8097
  0.8261   0.8343   0.8414   0.8508   0.8581   0.8882   0.8931   0.9042
  0.9136   0.9347   0.9669   0.9712   0.9915   1.0061   1.0322   1.0525
  1.0595   1.0634   1.0889   1.1056   1.1098   1.1275   1.1420   1.1488
  1.1620   1.1675   1.1793   1.1897   1.1995   1.2101   1.2128   1.2248
  1.2304   1.2480   1.2514   1.2598   1.2646   1.2695   1.2859   1.2942
  1.2988   1.3181   1.3321   1.3362   1.3510   1.3598   1.3732   1.3911
  1.4056   1.4077   1.4219   1.4267   1.4310   1.4434   1.4536   1.4548
  1.4687   1.4965   1.5011   1.5091   1.5219   1.5343   1.5376   1.5660
  1.5691   1.5834   1.6072   1.6223   1.6295   1.6487   1.6571   1.6750
  1.6887   1.7009   1.7076   1.7218   1.7462   1.7758   1.7868   1.8073
  1.8465   1.8504   1.8738   1.8985   1.9421   1.9562   1.9632   2.0156
  2.0454   2.0508   2.0744   2.1153   2.1342   2.1635   2.1658   2.1991
  2.2380   2.2892   2.3222   2.3308   2.3573   2.3783   2.4250   2.4427
  2.4799   2.5750   2.6251   2.6439   2.6760   2.7059   2.7139   2.7296
  2.7638   2.8067   2.8188   2.8329   2.8399   2.8493   2.8761   2.8846
  2.8980   2.9071   2.9327   2.9543   2.9648   2.9706   2.9851   2.9882
  3.0030   3.0089   3.0369   3.0430   3.0703   3.0883   3.1122   3.1306
  3.1460   3.1756   3.1861   3.2116   3.2233   3.2339   3.2436   3.2766
  3.2983   3.3082   3.3285   3.3500   3.3706   3.3801   3.3988   3.4087
  3.4126   3.4193   3.4379   3.4598   3.4796   3.5009   3.5124   3.5156
  3.5323   3.5471   3.5700   3.5839   3.6015   3.6264   3.6427   3.6590
  3.6687   3.6964   3.7134   3.7227   3.7481   3.7629   3.7670   3.7775
  3.7997   3.8088   3.8259   3.8520   3.8635   3.8688   3.8777   3.8971
  3.9129   3.9213   3.9371   3.9653   3.9750   3.9985   4.0091   4.0252
  4.0333   4.0668   4.0929   4.1152   4.1350   4.1648   4.1752   4.2051
  4.2255   4.2281   4.2411   4.2756   4.2944   4.3107   4.3210   4.3229
  4.3414   4.3591   4.3780   4.3945   4.4067   4.4309   4.4518   4.4575
  4.4773   4.4966   4.5272   4.5460   4.5710   4.5997   4.6093   4.6261
  4.6463   4.6946   4.7022   4.7378   4.7462   4.7723   4.7969   4.8642
  4.8823   4.8944   4.9345   4.9647   5.0144   5.0293   5.0503   5.0878
  5.1045   5.1220   5.1631   5.2181   5.2249   5.2594   5.2640   5.2731
  5.2925   5.3095   5.3292   5.3416   5.3455   5.3882   5.3982   5.4038
  5.4363   5.4587   5.4939   5.5323   5.5358   5.5700   5.5922   5.6444
  5.6590   5.6700   5.6824   5.7201   5.7306   5.7505   5.7835   5.8449
  5.8664   5.8921   5.9426   5.9836   5.9996   6.0688   6.2759   6.4323
  6.4410   6.5624   6.5885   6.6499   6.8870   6.9174   6.9807   7.0940
  7.1124   7.1477   7.2070   7.2423   7.2598   7.2832   7.3554   7.3764
  7.3910   7.4023   7.4304   7.4523   7.6334   7.6764   7.7840   7.8154
  7.8744   8.0229   8.0697  24.3107  24.5714  24.7110  24.7640  24.7848
 25.1186  25.3418  50.4204  50.5482  50.6062  50.6395
 
 Beta MOs
 -- Occupied --
-19.4528 -19.3986 -19.3467 -19.3401 -10.4143 -10.4075 -10.3914 -10.3564
-10.3558 -10.3519 -10.3511  -1.3117  -1.1690  -1.1517  -0.9986  -0.9567
 -0.8924  -0.8502  -0.7999  -0.7435  -0.7142  -0.6592  -0.6384  -0.6200
 -0.6061  -0.5864  -0.5843  -0.5685  -0.5483  -0.5348  -0.5184  -0.5054
 -0.5042  -0.4621  -0.4510  -0.4407  -0.4279  -0.3957  -0.3924  -0.3818
 -0.3266
 -- Virtual --
 -0.0339   0.0168   0.0268   0.0362   0.0400   0.0457   0.0553   0.0585
  0.0748   0.0799   0.0846   0.0968   0.0991   0.1147   0.1218   0.1314
  0.1355   0.1408   0.1447   0.1517   0.1552   0.1582   0.1623   0.1664
  0.1721   0.1810   0.1813   0.1851   0.1912   0.1952   0.1989   0.2046
  0.2057   0.2098   0.2164   0.2253   0.2320   0.2462   0.2577   0.2608
  0.2672   0.2713   0.2765   0.2812   0.2855   0.2932   0.3062   0.3106
  0.3139   0.3193   0.3291   0.3313   0.3386   0.3429   0.3494   0.3555
  0.3662   0.3725   0.3802   0.3855   0.3887   0.3924   0.3960   0.4038
  0.4101   0.4160   0.4184   0.4365   0.4430   0.4564   0.4596   0.4720
  0.4788   0.5064   0.5310   0.5486   0.5514   0.5791   0.5867   0.5936
  0.6008   0.6124   0.6163   0.6313   0.6463   0.6500   0.6611   0.6637
  0.6704   0.6827   0.6847   0.6916   0.6964   0.7134   0.7152   0.7200
  0.7333   0.7423   0.7566   0.7578   0.7673   0.7873   0.7952   0.8045
  0.8099   0.8267   0.8347   0.8414   0.8510   0.8582   0.8883   0.8937
  0.9044   0.9137   0.9352   0.9674   0.9729   0.9924   1.0079   1.0356
  1.0535   1.0603   1.0648   1.0899   1.1064   1.1107   1.1315   1.1447
  1.1516   1.1634   1.1713   1.1804   1.1930   1.2065   1.2155   1.2263
  1.2298   1.2360   1.2503   1.2561   1.2604   1.2679   1.2712   1.2874
  1.2958   1.3003   1.3207   1.3361   1.3378   1.3532   1.3618   1.3748
  1.3920   1.4064   1.4088   1.4248   1.4277   1.4331   1.4441   1.4552
  1.4574   1.4705   1.4969   1.5021   1.5124   1.5233   1.5375   1.5438
  1.5676   1.5713   1.5843   1.6108   1.6234   1.6319   1.6505   1.6603
  1.6780   1.6902   1.7122   1.7157   1.7294   1.7524   1.7848   1.7891
  1.8128   1.8512   1.8522   1.8847   1.9006   1.9489   1.9591   1.9667
  2.0162   2.0459   2.0553   2.0763   2.1172   2.1384   2.1678   2.1726
  2.1994   2.2426   2.2923   2.3313   2.3462   2.3601   2.3807   2.4258
  2.4447   2.4807   2.5769   2.6253   2.6483   2.6761   2.7074   2.7152
  2.7304   2.7643   2.8073   2.8195   2.8329   2.8402   2.8496   2.8769
  2.8850   2.8984   2.9079   2.9330   2.9547   2.9652   2.9710   2.9855
  2.9883   3.0035   3.0093   3.0374   3.0434   3.0704   3.0886   3.1130
  3.1308   3.1462   3.1760   3.1864   3.2116   3.2235   3.2344   3.2440
  3.2770   3.2983   3.3086   3.3290   3.3504   3.3709   3.3803   3.3991
  3.4089   3.4129   3.4195   3.4385   3.4599   3.4797   3.5012   3.5128
  3.5161   3.5323   3.5477   3.5702   3.5840   3.6017   3.6272   3.6428
  3.6594   3.6691   3.6968   3.7133   3.7233   3.7485   3.7630   3.7673
  3.7777   3.7999   3.8093   3.8262   3.8520   3.8639   3.8694   3.8781
  3.8974   3.9132   3.9216   3.9373   3.9656   3.9753   3.9987   4.0094
  4.0254   4.0334   4.0668   4.0931   4.1159   4.1354   4.1649   4.1754
  4.2055   4.2258   4.2283   4.2414   4.2757   4.2945   4.3111   4.3220
  4.3234   4.3416   4.3596   4.3782   4.3947   4.4069   4.4311   4.4526
  4.4580   4.4777   4.4977   4.5280   4.5469   4.5715   4.6097   4.6265
  4.6309   4.6467   4.6985   4.7028   4.7407   4.7574   4.7766   4.7992
  4.8695   4.8893   4.9107   4.9375   4.9661   5.0177   5.0447   5.0612
  5.1359   5.1449   5.1708   5.2013   5.2341   5.2499   5.2649   5.2877
  5.3021   5.3102   5.3168   5.3304   5.3451   5.3500   5.3888   5.4057
  5.4226   5.4482   5.4634   5.5016   5.5344   5.5482   5.5705   5.5991
  5.6452   5.6617   5.6736   5.6832   5.7210   5.7346   5.7550   5.7917
  5.8614   5.8667   5.8933   5.9429   5.9841   5.9998   6.0699   6.2771
  6.4471   6.4860   6.5741   6.5889   6.6502   6.9693   6.9966   7.0447
  7.0947   7.1484   7.1520   7.2329   7.2469   7.2813   7.3053   7.3559
  7.3792   7.3962   7.4233   7.4492   7.4836   7.6336   7.6771   7.7848
  7.8265   7.8765   8.0346   8.0912  24.3108  24.5714  24.7107  24.7640
 24.7850  25.1187  25.3419  50.4327  50.5582  50.6063  50.6395
 --------------------------------------------------------------
 
          Ground-State Mulliken Net Atomic Charges

     Atom                 Charge (a.u.)    Spin (a.u.)
  --------------------------------------------------------
      1 C                    -0.621550       0.011068
      2 C                    -0.049221      -0.009381
      3 C                    -0.362569       0.017060
      4 C                    -0.185777      -0.009127
      5 C                    -0.905530       0.017043
      6 C                     0.870980      -0.009558
      7 C                    -0.353074      -0.004490
      8 H                     0.297717       0.000259
      9 H                     0.242656       0.000924
     10 H                     0.326975      -0.001194
     11 H                     0.296456       0.001208
     12 H                     0.283566       0.000012
     13 H                     0.233683       0.000070
     14 O                    -0.393704      -0.000270
     15 H                     0.223591       0.000058
     16 H                     0.332546       0.000052
     17 O                    -0.434460      -0.000627
     18 H                     0.337525       0.000215
     19 O                     0.067096       0.313337
     20 O                    -0.206905       0.673339
  --------------------------------------------------------
  Sum of atomic charges =    -0.000000
  Sum of spin   charges =     1.000000

 -----------------------------------------------------------------
                    Cartesian Multipole Moments
 -----------------------------------------------------------------
    Charge (ESU x 10^10)
                -0.0000
    Dipole Moment (Debye)
         X      -0.5938      Y      -1.2258      Z      -4.1133
       Tot       4.3330
    Quadrupole Moments (Debye-Ang)
        XX     -70.3267     XY       4.8518     YY     -62.7851
        XZ       9.5696     YZ      -2.4571     ZZ     -63.4045
    Octopole Moments (Debye-Ang^2)
       XXX     204.7768    XXY       2.5348    XYY      45.0022
       YYY      52.5536    XXZ     -51.8980    XYZ      11.4051
       YYZ      -6.8459    XZZ      79.5635    YZZ       6.5329
       ZZZ     -99.3466
    Hexadecapole Moments (Debye-Ang^3)
      XXXX   -1047.5652   XXXY    -123.0210   XXYY    -240.1120
      XYYY    -144.6848   YYYY    -571.9068   XXXZ     252.0202
      XXYZ      47.7085   XYYZ      62.4249   YYYZ     129.5479
      XXZZ    -357.0264   XYZZ     -48.6319   YYZZ    -242.8507
      XZZZ     238.3055   YZZZ     123.0944   ZZZZ    -936.8324
 -----------------------------------------------------------------
 Calculating analytic gradient of the SCF energy
 Gradient of CDS energy
            1           2           3           4           5           6
    1   0.0001846   0.0000898  -0.0000487  -0.0003145   0.0000001   0.0001895
    2  -0.0000671   0.0001519  -0.0003031  -0.0003749   0.0002438  -0.0000738
    3   0.0000520   0.0001900   0.0002445  -0.0000675  -0.0003594   0.0002279
            7           8           9          10          11          12
    1  -0.0002623  -0.0000756   0.0001864  -0.0000539  -0.0001437  -0.0000603
    2   0.0009651   0.0001635  -0.0000637  -0.0001651  -0.0001314   0.0000859
    3  -0.0004332   0.0001152   0.0000968   0.0001142  -0.0000817  -0.0001740
           13          14          15          16          17          18
    1  -0.0000972  -0.0001730   0.0001547   0.0002604  -0.0002673   0.0004332
    2  -0.0002229  -0.0002055  -0.0000202  -0.0000642  -0.0000579   0.0000062
    3  -0.0000869   0.0002147   0.0002959  -0.0004305   0.0000868  -0.0000186
           19          20
    1  -0.0000459   0.0000437
    2   0.0000848   0.0000486
    3  -0.0000385   0.0000523
 Gradient of SCF Energy
            1           2           3           4           5           6
    1   0.0076260  -0.0079052   0.0049991   0.0034908  -0.0050237   0.0033664
    2  -0.0040867   0.0112478   0.0007368   0.0050700  -0.0143626   0.0150739
    3  -0.0131762   0.0037646  -0.0013262   0.0021067   0.0059201   0.0084052
            7           8           9          10          11          12
    1   0.0155956   0.0007856   0.0041561  -0.0021428  -0.0077801  -0.0066278
    2  -0.0157671   0.0073400  -0.0035097  -0.0078353  -0.0068253   0.0023321
    3   0.0026877   0.0033695   0.0047274   0.0051130  -0.0049697  -0.0124632
           13          14          15          16          17          18
    1  -0.0079645   0.0016572  -0.0016026  -0.0021259  -0.0006694   0.0010078
    2   0.0014888   0.0231389   0.0084902  -0.0185019  -0.0133347   0.0093024
    3  -0.0113552   0.0174465   0.0051641  -0.0146759   0.0089119  -0.0101687
           19          20
    1   0.0045936  -0.0054362
    2  -0.0032823   0.0032847
    3   0.0055525  -0.0050341
 Max gradient component =       2.314E-02
 RMS gradient           =       8.583E-03
 Computing fast CPCM-SWIG gradient
 Updating gradient with PCM contributions...
 -- total gradient after adding PCM contribution --
---------------------------------------------------
  Atom         X              Y              Z     
---------------------------------------------------
   1       0.004368       0.000063      -0.001840
   2      -0.000833       0.000540      -0.000275
   3       0.002185      -0.000914       0.003501
   4      -0.002031       0.001389      -0.003499
   5      -0.002770      -0.002940      -0.001537
   6       0.001341       0.003477       0.002352
   7       0.003076      -0.002848      -0.001443
   8      -0.000087       0.003001       0.002086
   9       0.002483      -0.001010       0.001596
  10      -0.000840      -0.002525       0.001886
  11      -0.002290      -0.001899      -0.001454
  12      -0.001748       0.000293      -0.002800
  13      -0.002190       0.000925      -0.002775
  14       0.002270       0.005942       0.006677
  15       0.000255       0.002799       0.001423
  16      -0.001538      -0.005688      -0.004485
  17      -0.001999      -0.006672       0.004722
  18       0.000408       0.005999      -0.004752
  19       0.005016      -0.003756       0.004748
  20      -0.005078       0.003824      -0.004132
---------------------------------------------------
 Number of fixed atoms: 0
 Gradient time:  CPU 393.42 s  wall 56.15 s
 Geometry Optimization Parameters
   NAtoms,    NIC,     NZ,  NCons,   NDum,   NFix, NCnnct, MaxDiis
       20     141       0       0       0       0       0       0


** GEOMETRY OPTIMIZATION IN DELOCALIZED INTERNAL COORDINATES **
   Searching for a Minimum

   Optimization Cycle:   1

                       Coordinates (Angstroms)
     ATOM                X               Y               Z
      1  C        -0.2316168378   -0.1220484138    0.6889249477
      2  C        -0.8875816536   -1.1140714258    1.6539254900
      3  C        -1.8875495447   -2.0501720062    1.0516528594
      4  C        -2.4221212852   -1.7997598727   -0.1485272440
      5  C        -2.0346568278   -0.6255768309   -0.9394912446
      6  C        -1.0424606670    0.1838889538   -0.5500037080
      7  C        -0.5832432145    1.3668180794   -1.3520885827
      8  H        -0.0559877902    0.8101408571    1.2463424595
      9  H        -0.0937374539   -1.6497322095    2.1809689039
     10  H        -2.1774878305   -2.9169170907    1.6381551804
     11  H        -3.1617403608   -2.4759038488   -0.5687625462
     12  H        -2.5732951538   -0.4273930658   -1.8634100085
     13  H        -1.2164311348    1.5098033811   -2.2346018315
     14  O         0.7978160952    1.2237782447   -1.7357723870
     15  H        -0.6215309330    2.2779797356   -0.7461453772
     16  H         0.8240504384    0.5269923895   -2.4134372611
     17  O         1.0201709469   -0.7062319996    0.3103703964
     18  H         1.3665902845   -0.1114381515   -0.3838345709
     19  O        -1.5274932117   -0.3668834334    2.7547508053
     20  O        -2.5107022655    0.3791493074    2.3109583191
   Point Group: c1    Number of degrees of freedom:    54


   Energy is   -572.893429384


 Attempting to generate delocalized internal coordinates
 Initial Hessian constructed with Jon Baker's OPTIMIZE code

 54 Hessian modes will be used to form the next step
  Hessian Eigenvalues:
     0.005546    0.007004    0.009023    0.010290    0.011370    0.013942
     0.014261    0.017297    0.021400    0.021719    0.025292    0.041619
     0.046084    0.055794    0.062027    0.063546    0.073644    0.078251
     0.084300    0.116236    0.140155    0.144049    0.159921    0.159997
     0.159998    0.160000    0.160000    0.176287    0.193972    0.217557
     0.220814    0.227754    0.248895    0.250000    0.284260    0.304864
     0.320229    0.322538    0.336552    0.341805    0.342503    0.344554
     0.349915    0.350829    0.351003    0.352028    0.352844    0.395189
     0.406575    0.518533    0.529034    0.547881    0.564227    0.640796

 Minimum search - taking simple RFO step
 Searching for Lamda that Minimizes Along All modes
 Value Taken    Lamda =  -0.00172569
 Step Taken.  Stepsize is  0.186083

                             Maximum     Tolerance    Cnvgd?
         Gradient           0.008790      0.000300      NO
         Displacement       0.065389      0.001200      NO
         Energy change     *********      0.000001      NO


 New Cartesian Coordinates Obtained by Inverse Iteration

 Displacement from previous Coordinates is:  0.388064
 ----------------------------------------------------------------
             Standard Nuclear Orientation (Angstroms)
    I     Atom           X                Y                Z
 ----------------------------------------------------------------
    1      C      -0.2245575081    -0.1362560587     0.6878606740
    2      C      -0.9015069764    -1.1045269629     1.6563840895
    3      C      -1.8996049506    -2.0357863655     1.0556063161
    4      C      -2.4068288919    -1.8022495071    -0.1519889375
    5      C      -2.0066032795    -0.6403137350    -0.9468160623
    6      C      -1.0159865236     0.1617445269    -0.5618227130
    7      C      -0.5935810879     1.3656381887    -1.3473659386
    8      H      -0.0455165657     0.7971341589     1.2309637623
    9      H      -0.1219770988    -1.6464780641     2.1886059527
   10      H      -2.2015105399    -2.8907669630     1.6443439340
   11      H      -3.1420791863    -2.4760862307    -0.5708714294
   12      H      -2.5423019715    -0.4385591359    -1.8658535275
   13      H      -1.2519080747     1.5142663399    -2.2032192465
   14      O       0.7746043614     1.2620894291    -1.7856387090
   15      H      -0.6340426492     2.2567020038    -0.7206265656
   16      H       0.8056259508     0.6072360354    -2.4939892167
   17      O       1.0305794738    -0.7395350432     0.3468398646
   18      H       1.4168389969    -0.1854934135    -0.3498098140
   19      O      -1.5327414407    -0.3462032324     2.7535467672
   20      O      -2.5259104379     0.3898666295     2.3338253998
 ----------------------------------------------------------------
 Nuclear Repulsion Energy =         641.86540827 hartrees
 There are       42 alpha and       41 beta electrons
 Discretize the solute cavity surface with Lebedev spheres
	Using 110 Lebedev grid points for each H atom
	Using 194 Lebedev grid points for other atoms
	Atomic van der Waals radii will be scaled by 1.20
 Remove points where switching function is < 1.0e-08
 Keep 1490 surface tesserae and discard 1634 interior tesserae
 Molecular Surface Area = 171.104 Angst**2
 Applying Cartesian multipole field
    Component          Value
    ---------          -----
     (2,0,0)        1.00000E-11
     (0,2,0)        2.00000E-11
     (0,0,2)       -3.00000E-11
 Nucleus-field energy     =    -0.0000000062 hartrees
 Requested basis set is 6-311++G(2df,2p)
 There are 142 shells and 464 basis functions
 A cutoff of  1.0D-12 yielded   9014 shell pairs
 There are     96990 function pairs (    121098 Cartesian)
 Smallest overlap matrix eigenvalue = 1.47E-06
 Guess MOs from SCF MO coefficient file

 -----------------------------------------------------------------------
  General SCF calculation program by
  Eric Jon Sundstrom, Paul Horn, Yuezhi Mao, Dmitri Zuev, Alec White,
  David Stuck, Shaama M.S., Shane Yost, Joonho Lee, David Small,
  Daniel Levine, Susi Lehtola, Hugh Burton, Evgeny Epifanovsky,
  Bang C. Huynh
 -----------------------------------------------------------------------
 Exchange:     0.1500 Hartree-Fock + 1.0000 wB97M-V + LR-HF
 Correlation:  1.0000 wB97M-V
 Using SG-2 standard quadrature grid
 Nonlocal Correlation:  VV10 with C = 0.0100 and b = 6.00 and scale = 1.00000
 Grid used for NLC:  SG-1 standard quadrature
 
 Citation of the SMD model:
 Marenich, A.V.; Cramer, C.J.; Truhlar, D.G.
 J. Phys. Chem. B 2009, 113, 6378-6396.
 iSolventCode=           1
 Solvent: water                                                           
 
 vradii
            1           2           3           4           5           6
    1   1.8500000   1.8500000   1.8500000   1.8500000   1.8500000   1.8500000
            7           8           9          10          11          12
    1   1.8500000   1.2000000   1.2000000   1.2000000   1.2000000   1.2000000
           13          14          15          16          17          18
    1   1.2000000   1.5200000   1.2000000   1.2000000   1.5200000   1.2000000
           19          20
    1   1.5200000   1.5200000
 -------------------------------------------------------
 OpenMP BLAS3 based DFT computing Module                
 Release: version 1.0, May 2013, Q-Chem Inc. Pittsburgh 
 -------------------------------------------------------
 A unrestricted SCF calculation will be
 performed using Roothaan-Hall, DIIS, GDM
 SCF converges when RMS gradient is below 1.0e-07
 ---------------------------------------
  Cycle       Energy         DIIS error
 ---------------------------------------
    1    -572.8643696877      2.18e-04  Roothaan Step
 ---------------------------------------
  Cycle       Energy         DIIS error
 ---------------------------------------
    1    -572.8942481756      1.68e-04  
    2    -572.8973874885      1.42e-04  Done DIIS. Switching to GDM
 ---------------------------------------
  Cycle       Energy        RMS Gradient
 ---------------------------------------
    1    -572.8973874885      1.12e-02   Normal BFGS step
    2    -572.8969112375      1.85e-02  Line search: overstep
    3    -572.8987973924      2.84e-03   Normal BFGS step
    4    -572.8989166488      8.66e-04   Normal BFGS step
    5    -572.8989507660      7.67e-04   Normal BFGS step
    6    -572.8989566395      5.67e-04   Normal BFGS step
    7    -572.8989586889      5.17e-04   Normal BFGS step
    8    -572.8989599489      4.24e-04   Normal BFGS step
    9    -572.8989607735      2.82e-04   Normal BFGS step
   10    -572.8989611320      1.73e-04   Normal BFGS step
   11    -572.8989614040      1.07e-04   Normal BFGS step
   12    -572.8989615169      4.76e-05   Normal BFGS step
   13    -572.8989615451      1.62e-05   Normal BFGS step
   14    -572.8989615498      8.23e-06   Normal BFGS step
   15    -572.8989615507      3.71e-06   Normal BFGS step
   16    -572.8989615508      1.08e-06   Normal BFGS step
   17    -572.8989615508      5.92e-07   Normal BFGS step
   18    -572.8989615508      3.12e-07   Normal BFGS step
   19    -572.8989615509      2.48e-07   Normal BFGS step
   20    -572.8989615508      1.45e-07   Normal BFGS step
   21    -572.8989615508      1.12e-07   Normal BFGS step
   22    -572.8989615507      4.45e-08  Convergence criterion met
 ---------------------------------------
 SCF time:   CPU 3000.14s  wall 380.00s 
<S^2> =          0.754153856
(3)  G-ENP(liq) elect-nuc-pol free energy of system     -572.898961551 a.u.
(4)  G-CDS(liq) cavity-dispersion-solvent structure 
     free energy                                                3.0180 kcal/mol
(6)  G-S(liq) free energy of system                     -572.894152057 a.u.
 SCF   energy in the final basis set =     -572.8941520575
 Total energy in the final basis set =     -572.8941520575
 
 --------------------------------------------------------------
 
                    Orbital Energies (a.u.)
 --------------------------------------------------------------
 
 Alpha MOs
 -- Occupied --
-19.4633 -19.4168 -19.3429 -19.3416 -10.4128 -10.4072 -10.3892 -10.3541
-10.3538 -10.3499 -10.3495  -1.3414  -1.1669  -1.1522  -1.0233  -0.9673
 -0.8961  -0.8589  -0.8018  -0.7499  -0.7170  -0.6678  -0.6440  -0.6336
 -0.6191  -0.6082  -0.5892  -0.5793  -0.5527  -0.5451  -0.5361  -0.5129
 -0.5040  -0.4718  -0.4531  -0.4409  -0.4300  -0.4099  -0.4037  -0.3913
 -0.3804  -0.3291
 -- Virtual --
  0.0159   0.0267   0.0362   0.0396   0.0453   0.0552   0.0586   0.0744
  0.0793   0.0845   0.0961   0.0995   0.1141   0.1212   0.1317   0.1349
  0.1400   0.1443   0.1511   0.1552   0.1579   0.1616   0.1663   0.1716
  0.1800   0.1817   0.1850   0.1914   0.1940   0.1988   0.2045   0.2049
  0.2096   0.2153   0.2251   0.2317   0.2461   0.2550   0.2590   0.2664
  0.2707   0.2714   0.2779   0.2843   0.2937   0.3045   0.3113   0.3127
  0.3184   0.3303   0.3329   0.3388   0.3421   0.3479   0.3541   0.3669
  0.3714   0.3788   0.3841   0.3908   0.3923   0.3974   0.4037   0.4111
  0.4158   0.4182   0.4377   0.4435   0.4563   0.4591   0.4739   0.4773
  0.5075   0.5314   0.5480   0.5526   0.5808   0.5869   0.5928   0.6014
  0.6142   0.6187   0.6322   0.6449   0.6485   0.6609   0.6634   0.6745
  0.6839   0.6878   0.6954   0.6984   0.7132   0.7164   0.7221   0.7373
  0.7414   0.7554   0.7604   0.7683   0.7875   0.7945   0.8063   0.8112
  0.8294   0.8393   0.8414   0.8502   0.8562   0.8830   0.8935   0.9021
  0.9123   0.9360   0.9638   0.9726   0.9926   1.0060   1.0343   1.0518
  1.0566   1.0641   1.0885   1.1091   1.1134   1.1260   1.1401   1.1459
  1.1594   1.1668   1.1813   1.1860   1.1983   1.2040   1.2134   1.2247
  1.2280   1.2485   1.2504   1.2603   1.2640   1.2708   1.2805   1.2997
  1.3057   1.3170   1.3308   1.3373   1.3577   1.3622   1.3778   1.3934
  1.4071   1.4125   1.4244   1.4307   1.4333   1.4482   1.4559   1.4567
  1.4749   1.4965   1.5051   1.5130   1.5249   1.5379   1.5470   1.5692
  1.5726   1.5878   1.6154   1.6220   1.6300   1.6517   1.6565   1.6765
  1.6854   1.7006   1.7058   1.7217   1.7461   1.7729   1.7883   1.8071
  1.8431   1.8451   1.8614   1.8991   1.9381   1.9503   1.9577   2.0165
  2.0226   2.0524   2.0783   2.1122   2.1382   2.1576   2.1689   2.1972
  2.2356   2.2768   2.3275   2.3348   2.3466   2.3742   2.4343   2.4380
  2.4709   2.5713   2.6242   2.6402   2.6790   2.7031   2.7138   2.7237
  2.7622   2.8113   2.8201   2.8297   2.8351   2.8487   2.8784   2.8867
  2.8960   2.9060   2.9360   2.9561   2.9665   2.9723   2.9834   2.9902
  3.0023   3.0117   3.0382   3.0482   3.0697   3.0887   3.1192   3.1333
  3.1470   3.1739   3.1904   3.2088   3.2282   3.2362   3.2482   3.2737
  3.3005   3.3090   3.3313   3.3495   3.3667   3.3807   3.4001   3.4044
  3.4137   3.4259   3.4300   3.4621   3.4794   3.5045   3.5102   3.5153
  3.5334   3.5450   3.5685   3.5882   3.6056   3.6253   3.6429   3.6640
  3.6659   3.7011   3.7137   3.7314   3.7477   3.7703   3.7739   3.7848
  3.8048   3.8165   3.8330   3.8495   3.8632   3.8729   3.8860   3.8945
  3.9197   3.9282   3.9424   3.9708   3.9753   3.9952   4.0148   4.0229
  4.0388   4.0740   4.0958   4.1253   4.1427   4.1631   4.1809   4.2050
  4.2344   4.2388   4.2500   4.2850   4.2999   4.3202   4.3336   4.3338
  4.3508   4.3686   4.3853   4.3959   4.4090   4.4402   4.4473   4.4648
  4.4868   4.5063   4.5349   4.5566   4.5784   4.6031   4.6212   4.6377
  4.6637   4.7072   4.7122   4.7500   4.7557   4.7860   4.8090   4.8760
  4.8851   4.9030   4.9416   4.9823   5.0245   5.0416   5.0614   5.0867
  5.1077   5.1211   5.1682   5.2152   5.2296   5.2615   5.2716   5.2768
  5.2951   5.3093   5.3315   5.3418   5.3517   5.3914   5.3991   5.4070
  5.4425   5.4663   5.4995   5.5316   5.5344   5.5741   5.6030   5.6619
  5.6667   5.6819   5.6898   5.7218   5.7448   5.7641   5.7937   5.8570
  5.8763   5.9019   5.9513   6.0053   6.0197   6.0948   6.3054   6.4378
  6.4650   6.5774   6.5913   6.6462   6.8829   6.9143   6.9809   7.0993
  7.1144   7.1347   7.2101   7.2527   7.2843   7.3038   7.3541   7.3656
  7.3877   7.4006   7.4263   7.4374   7.6346   7.6980   7.7797   7.8182
  7.8690   8.0252   8.0814  24.3157  24.5851  24.7268  24.7824  24.7983
 25.1549  25.3814  50.4246  50.5507  50.5997  50.6369
 
 Beta MOs
 -- Occupied --
-19.4529 -19.3982 -19.3429 -19.3416 -10.4132 -10.4070 -10.3892 -10.3542
-10.3538 -10.3498 -10.3491  -1.3149  -1.1669  -1.1522  -1.0008  -0.9582
 -0.8943  -0.8516  -0.8013  -0.7453  -0.7144  -0.6605  -0.6400  -0.6203
 -0.6070  -0.5878  -0.5850  -0.5695  -0.5484  -0.5366  -0.5197  -0.5060
 -0.5033  -0.4626  -0.4493  -0.4394  -0.4294  -0.3957  -0.3917  -0.3822
 -0.3280
 -- Virtual --
 -0.0325   0.0173   0.0270   0.0363   0.0401   0.0454   0.0552   0.0586
  0.0746   0.0796   0.0847   0.0966   0.0999   0.1149   0.1220   0.1321
  0.1358   0.1405   0.1449   0.1515   0.1558   0.1583   0.1621   0.1665
  0.1721   0.1804   0.1824   0.1854   0.1925   0.1947   0.1993   0.2048
  0.2057   0.2105   0.2171   0.2276   0.2324   0.2467   0.2577   0.2626
  0.2671   0.2712   0.2734   0.2793   0.2860   0.2945   0.3065   0.3124
  0.3145   0.3207   0.3318   0.3330   0.3394   0.3433   0.3485   0.3545
  0.3671   0.3727   0.3800   0.3857   0.3922   0.3931   0.3979   0.4040
  0.4115   0.4181   0.4190   0.4381   0.4441   0.4567   0.4597   0.4754
  0.4788   0.5077   0.5318   0.5485   0.5529   0.5810   0.5873   0.5932
  0.6015   0.6143   0.6187   0.6324   0.6452   0.6500   0.6613   0.6640
  0.6746   0.6841   0.6882   0.6957   0.6985   0.7132   0.7167   0.7226
  0.7375   0.7416   0.7560   0.7606   0.7691   0.7881   0.7946   0.8071
  0.8113   0.8299   0.8394   0.8418   0.8504   0.8564   0.8831   0.8940
  0.9024   0.9125   0.9365   0.9643   0.9745   0.9934   1.0077   1.0377
  1.0526   1.0572   1.0657   1.0895   1.1099   1.1138   1.1301   1.1428
  1.1489   1.1608   1.1702   1.1830   1.1894   1.2025   1.2127   1.2260
  1.2284   1.2347   1.2530   1.2540   1.2617   1.2658   1.2732   1.2818
  1.3009   1.3070   1.3205   1.3333   1.3407   1.3594   1.3638   1.3792
  1.3943   1.4080   1.4134   1.4278   1.4315   1.4350   1.4493   1.4573
  1.4596   1.4769   1.4972   1.5063   1.5150   1.5260   1.5459   1.5493
  1.5710   1.5745   1.5883   1.6189   1.6244   1.6311   1.6541   1.6592
  1.6797   1.6886   1.7108   1.7131   1.7309   1.7514   1.7814   1.7906
  1.8126   1.8459   1.8504   1.8705   1.9016   1.9449   1.9525   1.9614
  2.0172   2.0231   2.0560   2.0805   2.1159   2.1399   2.1653   2.1721
  2.1984   2.2401   2.2792   2.3371   2.3428   2.3573   2.3765   2.4345
  2.4401   2.4728   2.5730   2.6245   2.6450   2.6793   2.7046   2.7151
  2.7244   2.7626   2.8118   2.8210   2.8298   2.8352   2.8490   2.8795
  2.8868   2.8962   2.9070   2.9364   2.9564   2.9669   2.9727   2.9839
  2.9904   3.0028   3.0120   3.0388   3.0485   3.0697   3.0890   3.1200
  3.1335   3.1473   3.1743   3.1907   3.2089   3.2284   3.2368   3.2484
  3.2741   3.3005   3.3094   3.3317   3.3498   3.3670   3.3808   3.4004
  3.4049   3.4138   3.4260   3.4306   3.4623   3.4796   3.5049   3.5107
  3.5157   3.5334   3.5456   3.5688   3.5884   3.6057   3.6261   3.6431
  3.6641   3.6664   3.7014   3.7137   3.7320   3.7481   3.7704   3.7742
  3.7851   3.8052   3.8169   3.8332   3.8495   3.8636   3.8734   3.8863
  3.8948   3.9199   3.9285   3.9427   3.9711   3.9755   3.9954   4.0152
  4.0229   4.0390   4.0741   4.0962   4.1260   4.1430   4.1632   4.1812
  4.2053   4.2348   4.2391   4.2503   4.2851   4.3000   4.3207   4.3340
  4.3351   4.3511   4.3689   4.3855   4.3962   4.4093   4.4408   4.4478
  4.4652   4.4874   4.5073   4.5356   4.5577   4.5790   4.6219   4.6338
  4.6391   4.6640   4.7126   4.7129   4.7545   4.7655   4.7887   4.8115
  4.8840   4.8918   4.9170   4.9442   4.9841   5.0294   5.0553   5.0751
  5.1426   5.1445   5.1693   5.2009   5.2361   5.2469   5.2741   5.2903
  5.3051   5.3093   5.3177   5.3351   5.3461   5.3546   5.3937   5.4085
  5.4217   5.4565   5.4691   5.5083   5.5331   5.5472   5.5755   5.6078
  5.6629   5.6701   5.6837   5.6911   5.7221   5.7510   5.7706   5.7986
  5.8737   5.8765   5.9036   5.9516   6.0057   6.0199   6.0958   6.3068
  6.4514   6.5115   6.5776   6.6035   6.6466   6.9659   6.9932   7.0440
  7.1001   7.1352   7.1535   7.2372   7.2787   7.3024   7.3079   7.3548
  7.3683   7.3934   7.4202   7.4295   7.4843   7.6350   7.6986   7.7803
  7.8274   7.8728   8.0371   8.1030  24.3157  24.5851  24.7266  24.7824
 24.7985  25.1550  25.3815  50.4368  50.5607  50.5999  50.6369
 --------------------------------------------------------------
 
          Ground-State Mulliken Net Atomic Charges

     Atom                 Charge (a.u.)    Spin (a.u.)
  --------------------------------------------------------
      1 C                    -0.622320       0.012205
      2 C                    -0.041622      -0.010632
      3 C                    -0.338125       0.017689
      4 C                    -0.211209      -0.009723
      5 C                    -0.926652       0.016614
      6 C                     0.887201      -0.009614
      7 C                    -0.354003      -0.004186
      8 H                     0.293658       0.000323
      9 H                     0.243398       0.000941
     10 H                     0.328248      -0.001114
     11 H                     0.295029       0.001032
     12 H                     0.282921       0.000001
     13 H                     0.234367       0.000057
     14 O                    -0.398290      -0.000277
     15 H                     0.224186       0.000128
     16 H                     0.329130       0.000054
     17 O                    -0.425240      -0.000622
     18 H                     0.339618       0.000222
     19 O                     0.069258       0.316172
     20 O                    -0.209552       0.670731
  --------------------------------------------------------
  Sum of atomic charges =     0.000000
  Sum of spin   charges =     1.000000

 -----------------------------------------------------------------
                    Cartesian Multipole Moments
 -----------------------------------------------------------------
    Charge (ESU x 10^10)
                 0.0000
    Dipole Moment (Debye)
         X      -0.5561      Y      -1.3363      Z      -4.0797
       Tot       4.3289
    Quadrupole Moments (Debye-Ang)
        XX     -70.0182     XY       4.8753     YY     -63.1768
        XZ       9.4687     YZ      -2.2914     ZZ     -63.4197
    Octopole Moments (Debye-Ang^2)
       XXX     205.5202    XXY       2.3104    XYY      44.5301
       YYY      51.7172    XXZ     -51.9758    XYZ      11.9203
       YYZ      -6.4110    XZZ      79.5277    YZZ       6.1648
       ZZZ    -100.5677
    Hexadecapole Moments (Debye-Ang^3)
      XXXX   -1044.5641   XXXY    -121.3527   XXYY    -239.8657
      XYYY    -143.2408   YYYY    -576.9472   XXXZ     253.3295
      XXYZ      46.8689   XYYZ      63.0867   YYYZ     132.8469
      XXZZ    -358.9992   XYZZ     -46.4021   YYZZ    -246.4730
      XZZZ     239.0180   YZZZ     121.8142   ZZZZ    -943.0558
 -----------------------------------------------------------------
 Calculating analytic gradient of the SCF energy
 Gradient of CDS energy
            1           2           3           4           5           6
    1   0.0001726   0.0000873  -0.0000545  -0.0003092   0.0000130   0.0001818
    2  -0.0000655   0.0001523  -0.0002946  -0.0003768   0.0002290  -0.0000663
    3   0.0000571   0.0001857   0.0002489  -0.0000687  -0.0003648   0.0002241
            7           8           9          10          11          12
    1  -0.0002843  -0.0000678   0.0001805  -0.0000552  -0.0001396  -0.0000574
    2   0.0009775   0.0001574  -0.0000636  -0.0001592  -0.0001279   0.0000877
    3  -0.0003855   0.0001109   0.0000951   0.0001115  -0.0000795  -0.0001675
           13          14          15          16          17          18
    1  -0.0000833  -0.0001735   0.0001560   0.0002696  -0.0002751   0.0004429
    2  -0.0002274  -0.0002049  -0.0000338  -0.0000499  -0.0000482  -0.0000175
    3  -0.0000887   0.0002031   0.0002867  -0.0004388   0.0000871  -0.0000323
           19          20
    1  -0.0000457   0.0000417
    2   0.0000828   0.0000487
    3  -0.0000381   0.0000537
 Gradient of SCF Energy
            1           2           3           4           5           6
    1   0.0040464  -0.0069198   0.0031123   0.0056663  -0.0011343   0.0003146
    2  -0.0049016   0.0116156   0.0010428   0.0040944  -0.0114518   0.0103833
    3  -0.0111806   0.0034837  -0.0050691   0.0060668   0.0073227   0.0054285
            7           8           9          10          11          12
    1   0.0113615   0.0006323   0.0016406  -0.0012556  -0.0057110  -0.0046880
    2  -0.0114218   0.0045054  -0.0024548  -0.0054119  -0.0047484   0.0020333
    3   0.0045515   0.0017287   0.0031531   0.0031025  -0.0033623  -0.0096195
           13          14          15          16          17          18
    1  -0.0053577   0.0005177  -0.0022637  -0.0004311  -0.0000972   0.0021129
    2   0.0006505   0.0169497   0.0054584  -0.0126683  -0.0088882   0.0050222
    3  -0.0082901   0.0103572   0.0038216  -0.0120163   0.0066740  -0.0066838
           19          20
    1   0.0008715  -0.0024179
    2  -0.0009863   0.0011774
    3   0.0020532  -0.0015218
 Max gradient component =       1.695E-02
 RMS gradient           =       6.344E-03
 Computing fast CPCM-SWIG gradient
 Updating gradient with PCM contributions...
 -- total gradient after adding PCM contribution --
---------------------------------------------------
  Atom         X              Y              Z     
---------------------------------------------------
   1       0.001326      -0.000284       0.000075
   2       0.000014       0.000220      -0.000229
   3       0.000092      -0.000417      -0.000602
   4       0.000278       0.000491       0.000716
   5       0.000683       0.000132      -0.000170
   6      -0.001902      -0.001186      -0.000695
   7      -0.000864       0.000574       0.001168
   8      -0.000263      -0.000012       0.000378
   9      -0.000014       0.000122      -0.000022
  10       0.000157      -0.000043      -0.000197
  11      -0.000140       0.000258       0.000154
  12       0.000185      -0.000079       0.000051
  13       0.000396       0.000165      -0.000114
  14       0.001016       0.000670      -0.000673
  15      -0.000296       0.000178      -0.000081
  16       0.000079      -0.000434      -0.001308
  17      -0.000835      -0.002220       0.002217
  18       0.000837       0.001566      -0.001254
  19       0.001197      -0.001348       0.001165
  20      -0.001945       0.001647      -0.000578
---------------------------------------------------
 Number of fixed atoms: 0
 Gradient time:  CPU 398.30 s  wall 56.76 s
 Geometry Optimization Parameters
   NAtoms,    NIC,     NZ,  NCons,   NDum,   NFix, NCnnct, MaxDiis
       20     141       0       0       0       0       0       0

 Cartesian Hessian Update
 Hessian updated using BFGS update


** GEOMETRY OPTIMIZATION IN DELOCALIZED INTERNAL COORDINATES **
   Searching for a Minimum

   Optimization Cycle:   2

                       Coordinates (Angstroms)
     ATOM                X               Y               Z
      1  C        -0.2245575081   -0.1362560587    0.6878606740
      2  C        -0.9015069764   -1.1045269629    1.6563840895
      3  C        -1.8996049506   -2.0357863655    1.0556063161
      4  C        -2.4068288919   -1.8022495071   -0.1519889375
      5  C        -2.0066032795   -0.6403137350   -0.9468160623
      6  C        -1.0159865236    0.1617445269   -0.5618227130
      7  C        -0.5935810879    1.3656381887   -1.3473659386
      8  H        -0.0455165657    0.7971341589    1.2309637623
      9  H        -0.1219770988   -1.6464780641    2.1886059527
     10  H        -2.2015105399   -2.8907669630    1.6443439340
     11  H        -3.1420791863   -2.4760862307   -0.5708714294
     12  H        -2.5423019715   -0.4385591359   -1.8658535275
     13  H        -1.2519080747    1.5142663399   -2.2032192465
     14  O         0.7746043614    1.2620894291   -1.7856387090
     15  H        -0.6340426492    2.2567020038   -0.7206265656
     16  H         0.8056259508    0.6072360354   -2.4939892167
     17  O         1.0305794738   -0.7395350432    0.3468398646
     18  H         1.4168389969   -0.1854934135   -0.3498098140
     19  O        -1.5327414407   -0.3462032324    2.7535467672
     20  O        -2.5259104379    0.3898666295    2.3338253998
   Point Group: c1    Number of degrees of freedom:    54


   Energy is   -572.894152057

 Hessian updated using BFGS update

 54 Hessian modes will be used to form the next step
  Hessian Eigenvalues:
     0.005504    0.006988    0.009349    0.010521    0.011301    0.014109
     0.015709    0.017412    0.021452    0.021963    0.025254    0.041758
     0.046406    0.055820    0.062348    0.064130    0.074173    0.078556
     0.084510    0.115868    0.140436    0.144579    0.153733    0.159926
     0.159997    0.159998    0.160282    0.178016    0.194042    0.217551
     0.226279    0.228475    0.248715    0.260420    0.282444    0.300374
     0.316265    0.321339    0.336059    0.341461    0.342180    0.344363
     0.348159    0.350889    0.351687    0.352562    0.355692    0.397680
     0.406703    0.488458    0.525785    0.547953    0.572739    0.630000

 Minimum search - taking simple RFO step
 Searching for Lamda that Minimizes Along All modes
 Value Taken    Lamda =  -0.00029938
 Step Taken.  Stepsize is  0.118283

                             Maximum     Tolerance    Cnvgd?
         Gradient           0.003919      0.000300      NO
         Displacement       0.062100      0.001200      NO
         Energy change     -0.000723      0.000001      NO


 New Cartesian Coordinates Obtained by Inverse Iteration

 Displacement from previous Coordinates is:  0.248464
 ----------------------------------------------------------------
             Standard Nuclear Orientation (Angstroms)
    I     Atom           X                Y                Z
 ----------------------------------------------------------------
    1      C      -0.2298257332    -0.1308305210     0.6786481000
    2      C      -0.8967486405    -1.1025008053     1.6496434697
    3      C      -1.9030399739    -2.0290160182     1.0563939886
    4      C      -2.4117924863    -1.7992231409    -0.1506937752
    5      C      -2.0161152157    -0.6363779416    -0.9458920931
    6      C      -1.0257856852     0.1666945296    -0.5639083749
    7      C      -0.5986881284     1.3634637224    -1.3526022430
    8      H      -0.0453549501     0.8023267108     1.2180489915
    9      H      -0.1135036336    -1.6484187610     2.1708278945
   10      H      -2.2030815256    -2.8826186721     1.6468614906
   11      H      -3.1444718520    -2.4757645974    -0.5680305740
   12      H      -2.5538421294    -0.4355443414    -1.8632117144
   13      H      -1.2349794983     1.4925842821    -2.2270848201
   14      O       0.7832392632     1.2674669628    -1.7402561425
   15      H      -0.6642087630     2.2602836459    -0.7379434341
   16      H       0.8507691719     0.5902502624    -2.4213339272
   17      O       1.0240421370    -0.7287619256     0.3231254479
   18      H       1.3983986144    -0.1866607133    -0.3849166607
   19      O      -1.5122765480    -0.3473056541     2.7560248303
   20      O      -2.5217428229     0.3723755758     2.3562741461
 ----------------------------------------------------------------
 Nuclear Repulsion Energy =         642.88944349 hartrees
 There are       42 alpha and       41 beta electrons
 Discretize the solute cavity surface with Lebedev spheres
	Using 110 Lebedev grid points for each H atom
	Using 194 Lebedev grid points for other atoms
	Atomic van der Waals radii will be scaled by 1.20
 Remove points where switching function is < 1.0e-08
 Keep 1485 surface tesserae and discard 1639 interior tesserae
 Molecular Surface Area = 170.590 Angst**2
 Applying Cartesian multipole field
    Component          Value
    ---------          -----
     (2,0,0)        1.00000E-11
     (0,2,0)        2.00000E-11
     (0,0,2)       -3.00000E-11
 Nucleus-field energy     =    -0.0000000062 hartrees
 Requested basis set is 6-311++G(2df,2p)
 There are 142 shells and 464 basis functions
 A cutoff of  1.0D-12 yielded   9022 shell pairs
 There are     96996 function pairs (    121091 Cartesian)
 Smallest overlap matrix eigenvalue = 1.47E-06
 Guess MOs from SCF MO coefficient file

 -----------------------------------------------------------------------
  General SCF calculation program by
  Eric Jon Sundstrom, Paul Horn, Yuezhi Mao, Dmitri Zuev, Alec White,
  David Stuck, Shaama M.S., Shane Yost, Joonho Lee, David Small,
  Daniel Levine, Susi Lehtola, Hugh Burton, Evgeny Epifanovsky,
  Bang C. Huynh
 -----------------------------------------------------------------------
 Exchange:     0.1500 Hartree-Fock + 1.0000 wB97M-V + LR-HF
 Correlation:  1.0000 wB97M-V
 Using SG-2 standard quadrature grid
 Nonlocal Correlation:  VV10 with C = 0.0100 and b = 6.00 and scale = 1.00000
 Grid used for NLC:  SG-1 standard quadrature
 
 Citation of the SMD model:
 Marenich, A.V.; Cramer, C.J.; Truhlar, D.G.
 J. Phys. Chem. B 2009, 113, 6378-6396.
 iSolventCode=           1
 Solvent: water                                                           
 
 vradii
            1           2           3           4           5           6
    1   1.8500000   1.8500000   1.8500000   1.8500000   1.8500000   1.8500000
            7           8           9          10          11          12
    1   1.8500000   1.2000000   1.2000000   1.2000000   1.2000000   1.2000000
           13          14          15          16          17          18
    1   1.2000000   1.5200000   1.2000000   1.2000000   1.5200000   1.2000000
           19          20
    1   1.5200000   1.5200000
 -------------------------------------------------------
 OpenMP BLAS3 based DFT computing Module                
 Release: version 1.0, May 2013, Q-Chem Inc. Pittsburgh 
 -------------------------------------------------------
 A unrestricted SCF calculation will be
 performed using Roothaan-Hall, DIIS, GDM
 SCF converges when RMS gradient is below 1.0e-07
 ---------------------------------------
  Cycle       Energy         DIIS error
 ---------------------------------------
    1    -572.8660981497      1.86e-04  Roothaan Step
 ---------------------------------------
  Cycle       Energy         DIIS error
 ---------------------------------------
    1    -572.8941947199      1.72e-04  
    2    -572.8973959336      1.44e-04  Done DIIS. Switching to GDM
 ---------------------------------------
  Cycle       Energy        RMS Gradient
 ---------------------------------------
    1    -572.8973959336      1.11e-02   Normal BFGS step
    2    -572.8969541936      1.79e-02  Line search: overstep
    3    -572.8988371629      2.99e-03   Normal BFGS step
    4    -572.8989507593      1.01e-03   Normal BFGS step
    5    -572.8989860303      7.33e-04   Normal BFGS step
    6    -572.8989911896      4.73e-04   Normal BFGS step
    7    -572.8989931722      4.35e-04   Normal BFGS step
    8    -572.8989942073      3.64e-04   Normal BFGS step
    9    -572.8989948479      2.55e-04   Normal BFGS step
   10    -572.8989951541      1.62e-04   Normal BFGS step
   11    -572.8989953804      1.10e-04   Normal BFGS step
   12    -572.8989954844      4.83e-05   Normal BFGS step
   13    -572.8989955104      1.89e-05   Normal BFGS step
   14    -572.8989955155      8.37e-06   Normal BFGS step
   15    -572.8989955166      3.70e-06   Normal BFGS step
   16    -572.8989955168      1.86e-06   Normal BFGS step
   17    -572.8989955169      7.23e-07   Normal BFGS step
   18    -572.8989955169      2.59e-07   Normal BFGS step
   19    -572.8989955169      2.36e-07   Normal BFGS step
   20    -572.8989955169      1.10e-07   Normal BFGS step
   21    -572.8989955169      5.85e-08  Convergence criterion met
 ---------------------------------------
 SCF time:   CPU 2908.25s  wall 368.00s 
<S^2> =          0.754137191
(3)  G-ENP(liq) elect-nuc-pol free energy of system     -572.898995517 a.u.
(4)  G-CDS(liq) cavity-dispersion-solvent structure 
     free energy                                                2.9823 kcal/mol
(6)  G-S(liq) free energy of system                     -572.894242983 a.u.
 SCF   energy in the final basis set =     -572.8942429827
 Total energy in the final basis set =     -572.8942429827
 
 --------------------------------------------------------------
 
                    Orbital Energies (a.u.)
 --------------------------------------------------------------
 
 Alpha MOs
 -- Occupied --
-19.4634 -19.4163 -19.3435 -19.3402 -10.4126 -10.4067 -10.3890 -10.3539
-10.3533 -10.3495 -10.3492  -1.3433  -1.1684  -1.1528  -1.0234  -0.9676
 -0.8967  -0.8589  -0.8025  -0.7505  -0.7178  -0.6684  -0.6446  -0.6347
 -0.6196  -0.6086  -0.5904  -0.5795  -0.5535  -0.5449  -0.5367  -0.5129
 -0.5039  -0.4721  -0.4539  -0.4414  -0.4298  -0.4095  -0.4032  -0.3910
 -0.3805  -0.3289
 -- Virtual --
  0.0164   0.0267   0.0362   0.0396   0.0454   0.0552   0.0586   0.0745
  0.0791   0.0848   0.0969   0.0997   0.1142   0.1209   0.1310   0.1350
  0.1408   0.1447   0.1514   0.1554   0.1579   0.1616   0.1665   0.1718
  0.1805   0.1813   0.1851   0.1915   0.1941   0.1986   0.2049   0.2052
  0.2094   0.2155   0.2250   0.2321   0.2467   0.2551   0.2597   0.2674
  0.2715   0.2731   0.2786   0.2848   0.2940   0.3047   0.3116   0.3137
  0.3181   0.3300   0.3329   0.3385   0.3426   0.3488   0.3549   0.3670
  0.3711   0.3797   0.3857   0.3905   0.3927   0.3968   0.4046   0.4116
  0.4170   0.4182   0.4381   0.4443   0.4571   0.4590   0.4741   0.4775
  0.5056   0.5321   0.5480   0.5542   0.5794   0.5881   0.5925   0.6015
  0.6152   0.6197   0.6325   0.6453   0.6505   0.6608   0.6652   0.6730
  0.6845   0.6865   0.6947   0.6985   0.7133   0.7165   0.7223   0.7378
  0.7421   0.7568   0.7607   0.7701   0.7885   0.7968   0.8051   0.8120
  0.8308   0.8334   0.8396   0.8504   0.8559   0.8900   0.8943   0.9031
  0.9122   0.9358   0.9669   0.9727   0.9936   1.0056   1.0309   1.0522
  1.0583   1.0610   1.0898   1.1108   1.1142   1.1267   1.1430   1.1466
  1.1577   1.1667   1.1830   1.1897   1.1984   1.2050   1.2151   1.2255
  1.2277   1.2496   1.2519   1.2595   1.2631   1.2718   1.2839   1.3019
  1.3071   1.3183   1.3333   1.3372   1.3578   1.3627   1.3780   1.3961
  1.4088   1.4116   1.4272   1.4319   1.4338   1.4472   1.4564   1.4585
  1.4718   1.4970   1.5061   1.5163   1.5268   1.5370   1.5442   1.5707
  1.5736   1.5854   1.6117   1.6238   1.6319   1.6520   1.6591   1.6792
  1.6876   1.7012   1.7050   1.7255   1.7477   1.7721   1.7889   1.8101
  1.8404   1.8474   1.8621   1.9102   1.9393   1.9562   1.9600   2.0201
  2.0275   2.0553   2.0800   2.1158   2.1365   2.1611   2.1709   2.1960
  2.2367   2.2857   2.3283   2.3406   2.3531   2.3778   2.4264   2.4419
  2.4728   2.5698   2.6245   2.6408   2.6774   2.7026   2.7146   2.7236
  2.7624   2.8095   2.8214   2.8310   2.8361   2.8482   2.8774   2.8885
  2.9011   2.9079   2.9356   2.9567   2.9685   2.9731   2.9825   2.9917
  3.0049   3.0110   3.0406   3.0498   3.0721   3.0876   3.1203   3.1319
  3.1479   3.1767   3.1904   3.2102   3.2290   3.2366   3.2515   3.2761
  3.3020   3.3112   3.3327   3.3515   3.3689   3.3823   3.4000   3.4063
  3.4150   3.4277   3.4305   3.4614   3.4796   3.5048   3.5121   3.5158
  3.5349   3.5475   3.5688   3.5882   3.6077   3.6262   3.6461   3.6633
  3.6696   3.7012   3.7139   3.7313   3.7503   3.7717   3.7746   3.7825
  3.8037   3.8197   3.8322   3.8565   3.8645   3.8752   3.8855   3.8981
  3.9204   3.9314   3.9469   3.9738   3.9791   4.0013   4.0171   4.0279
  4.0386   4.0765   4.0955   4.1275   4.1448   4.1715   4.1842   4.2063
  4.2376   4.2399   4.2530   4.2835   4.3035   4.3262   4.3350   4.3379
  4.3513   4.3694   4.3874   4.4067   4.4176   4.4409   4.4522   4.4715
  4.4905   4.5084   4.5389   4.5599   4.5821   4.6052   4.6250   4.6405
  4.6655   4.7092   4.7179   4.7512   4.7572   4.7892   4.8123   4.8790
  4.8861   4.9065   4.9468   4.9827   5.0270   5.0459   5.0637   5.0866
  5.1086   5.1219   5.1707   5.2148   5.2321   5.2633   5.2731   5.2788
  5.2986   5.3101   5.3334   5.3438   5.3499   5.3912   5.3996   5.4106
  5.4445   5.4690   5.5048   5.5350   5.5414   5.5750   5.6091   5.6664
  5.6719   5.6878   5.6928   5.7225   5.7490   5.7681   5.7997   5.8612
  5.8817   5.9031   5.9535   6.0107   6.0295   6.0998   6.3119   6.4417
  6.4765   6.5878   6.6027   6.6506   6.8837   6.9152   6.9840   7.1051
  7.1168   7.1372   7.2140   7.2545   7.2916   7.3132   7.3545   7.3778
  7.3909   7.4015   7.4327   7.4484   7.6394   7.7058   7.7839   7.8186
  7.8729   8.0277   8.0884  24.3179  24.5886  24.7318  24.7927  24.8065
 25.1586  25.3868  50.4276  50.5528  50.6050  50.6409
 
 Beta MOs
 -- Occupied --
-19.4529 -19.3977 -19.3435 -19.3402 -10.4130 -10.4065 -10.3890 -10.3540
-10.3533 -10.3494 -10.3488  -1.3168  -1.1683  -1.1527  -1.0011  -0.9585
 -0.8949  -0.8515  -0.8020  -0.7459  -0.7152  -0.6610  -0.6407  -0.6209
 -0.6076  -0.5886  -0.5862  -0.5691  -0.5492  -0.5371  -0.5200  -0.5057
 -0.5034  -0.4633  -0.4504  -0.4397  -0.4292  -0.3952  -0.3915  -0.3824
 -0.3278
 -- Virtual --
 -0.0317   0.0177   0.0270   0.0363   0.0401   0.0455   0.0553   0.0587
  0.0747   0.0794   0.0850   0.0974   0.1001   0.1151   0.1217   0.1314
  0.1360   0.1413   0.1452   0.1517   0.1560   0.1583   0.1622   0.1667
  0.1722   0.1808   0.1819   0.1856   0.1927   0.1951   0.1989   0.2052
  0.2062   0.2101   0.2171   0.2275   0.2327   0.2471   0.2579   0.2633
  0.2684   0.2724   0.2750   0.2796   0.2866   0.2947   0.3068   0.3127
  0.3156   0.3205   0.3311   0.3335   0.3392   0.3438   0.3493   0.3554
  0.3672   0.3726   0.3808   0.3875   0.3923   0.3929   0.3973   0.4049
  0.4121   0.4187   0.4195   0.4386   0.4449   0.4575   0.4595   0.4756
  0.4791   0.5058   0.5324   0.5485   0.5546   0.5797   0.5885   0.5929
  0.6016   0.6153   0.6198   0.6327   0.6456   0.6523   0.6612   0.6656
  0.6731   0.6847   0.6868   0.6951   0.6986   0.7134   0.7168   0.7227
  0.7380   0.7424   0.7572   0.7610   0.7708   0.7890   0.7970   0.8057
  0.8122   0.8315   0.8337   0.8397   0.8505   0.8561   0.8901   0.8949
  0.9033   0.9123   0.9362   0.9676   0.9743   0.9944   1.0073   1.0345
  1.0530   1.0587   1.0630   1.0909   1.1117   1.1146   1.1309   1.1462
  1.1491   1.1587   1.1702   1.1849   1.1925   1.2036   1.2132   1.2273
  1.2291   1.2353   1.2536   1.2560   1.2601   1.2659   1.2736   1.2852
  1.3032   1.3082   1.3214   1.3368   1.3396   1.3592   1.3648   1.3793
  1.3970   1.4097   1.4126   1.4312   1.4323   1.4357   1.4481   1.4575
  1.4608   1.4740   1.4981   1.5073   1.5178   1.5280   1.5449   1.5465
  1.5724   1.5753   1.5861   1.6158   1.6256   1.6340   1.6538   1.6629
  1.6823   1.6907   1.7104   1.7141   1.7336   1.7532   1.7807   1.7909
  1.8160   1.8468   1.8496   1.8704   1.9122   1.9467   1.9588   1.9631
  2.0208   2.0279   2.0585   2.0823   2.1192   2.1388   2.1685   2.1741
  2.1974   2.2414   2.2881   2.3388   2.3493   2.3617   2.3804   2.4270
  2.4435   2.4749   2.5713   2.6247   2.6456   2.6776   2.7041   2.7158
  2.7243   2.7628   2.8100   2.8222   2.8310   2.8362   2.8486   2.8785
  2.8887   2.9012   2.9088   2.9360   2.9570   2.9689   2.9736   2.9829
  2.9919   3.0053   3.0113   3.0412   3.0501   3.0722   3.0879   3.1211
  3.1321   3.1483   3.1771   3.1906   3.2103   3.2293   3.2372   3.2518
  3.2765   3.3021   3.3116   3.3332   3.3519   3.3692   3.3824   3.4004
  3.4067   3.4151   3.4278   3.4311   3.4616   3.4797   3.5051   3.5126
  3.5162   3.5349   3.5482   3.5691   3.5884   3.6078   3.6270   3.6463
  3.6634   3.6701   3.7016   3.7138   3.7319   3.7506   3.7719   3.7750
  3.7827   3.8040   3.8202   3.8324   3.8565   3.8650   3.8758   3.8857
  3.8985   3.9206   3.9316   3.9471   3.9741   3.9794   4.0014   4.0175
  4.0280   4.0387   4.0767   4.0958   4.1281   4.1452   4.1716   4.1845
  4.2066   4.2379   4.2402   4.2532   4.2836   4.3037   4.3269   4.3361
  4.3386   4.3516   4.3697   4.3876   4.4070   4.4177   4.4416   4.4526
  4.4719   4.4912   4.5095   4.5397   4.5611   4.5827   4.6258   4.6355
  4.6421   4.6659   4.7145   4.7192   4.7546   4.7671   4.7922   4.8150
  4.8867   4.8936   4.9201   4.9493   4.9846   5.0323   5.0592   5.0777
  5.1422   5.1458   5.1698   5.2037   5.2375   5.2467   5.2759   5.2928
  5.3081   5.3110   5.3186   5.3365   5.3476   5.3533   5.3937   5.4119
  5.4221   5.4588   5.4721   5.5141   5.5366   5.5536   5.5766   5.6137
  5.6683   5.6745   5.6893   5.6941   5.7230   5.7546   5.7756   5.8044
  5.8781   5.8818   5.9050   5.9538   6.0110   6.0298   6.1008   6.3135
  6.4553   6.5233   6.5881   6.6149   6.6510   6.9667   6.9937   7.0471
  7.1057   7.1376   7.1560   7.2412   7.2856   7.3085   7.3137   7.3555
  7.3809   7.3959   7.4214   7.4451   7.4857   7.6398   7.7064   7.7845
  7.8276   7.8767   8.0397   8.1101  24.3179  24.5886  24.7315  24.7927
 24.8067  25.1587  25.3868  50.4399  50.5628  50.6052  50.6408
 --------------------------------------------------------------
 
          Ground-State Mulliken Net Atomic Charges

     Atom                 Charge (a.u.)    Spin (a.u.)
  --------------------------------------------------------
      1 C                    -0.642890       0.012391
      2 C                    -0.043271      -0.010812
      3 C                    -0.332858       0.017889
      4 C                    -0.207409      -0.009885
      5 C                    -0.927609       0.016589
      6 C                     0.902263      -0.009560
      7 C                    -0.353912      -0.004169
      8 H                     0.294166       0.000349
      9 H                     0.242995       0.000954
     10 H                     0.328195      -0.000996
     11 H                     0.294873       0.000977
     12 H                     0.281665      -0.000007
     13 H                     0.239475       0.000074
     14 O                    -0.396834      -0.000275
     15 H                     0.221132       0.000110
     16 H                     0.328683       0.000054
     17 O                    -0.423377      -0.000629
     18 H                     0.333610       0.000213
     19 O                     0.071814       0.317388
     20 O                    -0.210713       0.669345
  --------------------------------------------------------
  Sum of atomic charges =     0.000000
  Sum of spin   charges =     1.000000

 -----------------------------------------------------------------
                    Cartesian Multipole Moments
 -----------------------------------------------------------------
    Charge (ESU x 10^10)
                 0.0000
    Dipole Moment (Debye)
         X      -0.5188      Y      -1.3705      Z      -4.1655
       Tot       4.4158
    Quadrupole Moments (Debye-Ang)
        XX     -69.9657     XY       4.7140     YY     -63.1596
        XZ       9.2883     YZ      -2.3234     ZZ     -63.6310
    Octopole Moments (Debye-Ang^2)
       XXX     205.6450    XXY       2.3031    XYY      44.4559
       YYY      51.4391    XXZ     -52.5553    XYZ      11.7428
       YYZ      -6.6247    XZZ      80.1985    YZZ       6.1486
       ZZZ    -100.3640
    Hexadecapole Moments (Debye-Ang^3)
      XXXX   -1045.4857   XXXY    -122.4923   XXYY    -239.4208
      XYYY    -144.5044   YYYY    -574.0817   XXXZ     252.6103
      XXYZ      46.6118   XYYZ      62.8678   YYYZ     131.8426
      XXZZ    -357.7777   XYZZ     -46.5512   YYZZ    -244.9134
      XZZZ     239.0643   YZZZ     121.0826   ZZZZ    -946.4007
 -----------------------------------------------------------------
 Calculating analytic gradient of the SCF energy
 Gradient of CDS energy
            1           2           3           4           5           6
    1   0.0001734   0.0000892  -0.0000556  -0.0003085   0.0000097   0.0001838
    2  -0.0000575   0.0001498  -0.0002911  -0.0003797   0.0002320  -0.0000646
    3   0.0000539   0.0001841   0.0002500  -0.0000672  -0.0003653   0.0002285
            7           8           9          10          11          12
    1  -0.0002794  -0.0000642   0.0001809  -0.0000544  -0.0001386  -0.0000566
    2   0.0009613   0.0001551  -0.0000639  -0.0001583  -0.0001280   0.0000869
    3  -0.0004481   0.0001131   0.0000930   0.0001118  -0.0000790  -0.0001676
           13          14          15          16          17          18
    1  -0.0000932  -0.0001625   0.0001540   0.0002678  -0.0002747   0.0004340
    2  -0.0002262  -0.0002131  -0.0000296  -0.0000382  -0.0000477  -0.0000185
    3  -0.0000723   0.0002178   0.0002959  -0.0004338   0.0000928  -0.0000243
           19          20
    1  -0.0000470   0.0000421
    2   0.0000820   0.0000492
    3  -0.0000372   0.0000540
 Gradient of SCF Energy
            1           2           3           4           5           6
    1   0.0022852  -0.0065761   0.0023774   0.0058027  -0.0009195   0.0015573
    2  -0.0045703   0.0113588   0.0014775   0.0034935  -0.0113064   0.0114496
    3  -0.0108346   0.0037072  -0.0050309   0.0060069   0.0078085   0.0054629
            7           8           9          10          11          12
    1   0.0117586   0.0007353   0.0011368  -0.0011810  -0.0052084  -0.0045693
    2  -0.0119822   0.0038813  -0.0021909  -0.0049642  -0.0046589   0.0020746
    3   0.0038561   0.0008069   0.0030671   0.0028152  -0.0032670  -0.0091587
           13          14          15          16          17          18
    1  -0.0055721  -0.0013153  -0.0019328   0.0004912   0.0005842   0.0015389
    2   0.0002155   0.0162052   0.0047905  -0.0122253  -0.0048778   0.0022389
    3  -0.0077938   0.0106036   0.0035437  -0.0092100   0.0037167  -0.0060457
           19          20
    1  -0.0005857  -0.0004074
    2   0.0001108  -0.0005203
    3   0.0006908  -0.0007449
 Max gradient component =       1.621E-02
 RMS gradient           =       5.993E-03
 Computing fast CPCM-SWIG gradient
 Updating gradient with PCM contributions...
 -- total gradient after adding PCM contribution --
---------------------------------------------------
  Atom         X              Y              Z     
---------------------------------------------------
   1      -0.000604      -0.000191       0.000564
   2       0.000196      -0.000037      -0.000187
   3      -0.000548       0.000041      -0.000544
   4       0.000424      -0.000145       0.000672
   5       0.000836       0.000510       0.000091
   6      -0.000358      -0.000244      -0.000196
   7      -0.000909       0.000192      -0.000154
   8      -0.000029      -0.000481      -0.000468
   9      -0.000482       0.000383      -0.000058
  10       0.000202       0.000377      -0.000460
  11       0.000338       0.000374       0.000243
  12       0.000316      -0.000030       0.000499
  13       0.000177      -0.000117       0.000607
  14       0.000201      -0.001310      -0.000607
  15       0.000165      -0.000567      -0.000232
  16       0.000142       0.000841       0.001198
  17      -0.000120       0.001607      -0.001180
  18       0.000248      -0.000892       0.000184
  19      -0.000310      -0.000206      -0.000187
  20       0.000113      -0.000106       0.000215
---------------------------------------------------
 Number of fixed atoms: 0
 Gradient time:  CPU 396.10 s  wall 56.62 s
 Geometry Optimization Parameters
   NAtoms,    NIC,     NZ,  NCons,   NDum,   NFix, NCnnct, MaxDiis
       20     141       0       0       0       0       0       0

 Cartesian Hessian Update
 Hessian updated using BFGS update


** GEOMETRY OPTIMIZATION IN DELOCALIZED INTERNAL COORDINATES **
   Searching for a Minimum

   Optimization Cycle:   3

[...]
    1  -0.0000880  -0.0001622   0.0001486   0.0002747  -0.0002758   0.0004362
    2  -0.0002255  -0.0002156  -0.0000256  -0.0000271  -0.0000468  -0.0000185
    3  -0.0000763   0.0002171   0.0003011  -0.0004317   0.0000876  -0.0000210
           19          20
    1  -0.0000469   0.0000426
    2   0.0000827   0.0000492
    3  -0.0000376   0.0000535
 Gradient of SCF Energy
            1           2           3           4           5           6
    1   0.0027541  -0.0068132   0.0029525   0.0053120  -0.0017357   0.0018915
    2  -0.0043942   0.0114347   0.0014027   0.0035637  -0.0117087   0.0114220
    3  -0.0114218   0.0039171  -0.0045883   0.0052763   0.0080584   0.0052725
            7           8           9          10          11          12
    1   0.0128508   0.0008094   0.0015832  -0.0014312  -0.0055216  -0.0048367
    2  -0.0117139   0.0043465  -0.0026099  -0.0052721  -0.0049733   0.0020908
    3   0.0041352   0.0012823   0.0031166   0.0033045  -0.0034797  -0.0095402
           13          14          15          16          17          18
    1  -0.0055909  -0.0019360  -0.0022082   0.0007274   0.0004682   0.0015506
    2   0.0002551   0.0173265   0.0051988  -0.0128620  -0.0067704   0.0034154
    3  -0.0084585   0.0113833   0.0036824  -0.0105737   0.0048791  -0.0061441
           19          20
    1  -0.0002800  -0.0005460
    2   0.0002984  -0.0004499
    3   0.0009031  -0.0010046
 Max gradient component =       1.733E-02
 RMS gradient           =       6.308E-03
 Computing fast CPCM-SWIG gradient
 Updating gradient with PCM contributions...
 -- total gradient after adding PCM contribution --
---------------------------------------------------
  Atom         X              Y              Z     
---------------------------------------------------
   1      -0.000010       0.000024      -0.000002
   2      -0.000067      -0.000006       0.000007
   3      -0.000008       0.000021      -0.000001
   4      -0.000004      -0.000007      -0.000017
   5       0.000020       0.000005      -0.000000
   6      -0.000002      -0.000028       0.000010
   7       0.000071      -0.000003      -0.000009
   8      -0.000017      -0.000002      -0.000001
   9      -0.000021      -0.000017      -0.000005
  10      -0.000018       0.000007      -0.000005
  11       0.000016       0.000000      -0.000025
  12       0.000015       0.000010      -0.000010
  13       0.000009       0.000014       0.000002
  14      -0.000030       0.000026       0.000007
  15       0.000002      -0.000002       0.000013
  16       0.000033      -0.000017       0.000026
  17       0.000012      -0.000005       0.000013
  18       0.000023       0.000009       0.000012
  19      -0.000004      -0.000010       0.000013
  20      -0.000018      -0.000019      -0.000027
---------------------------------------------------
 Number of fixed atoms: 0
 Gradient time:  CPU 397.45 s  wall 56.82 s
 Geometry Optimization Parameters
   NAtoms,    NIC,     NZ,  NCons,   NDum,   NFix, NCnnct, MaxDiis
       20     141       0       0       0       0       0       0

 Cartesian Hessian Update
 Hessian updated using BFGS update


** GEOMETRY OPTIMIZATION IN DELOCALIZED INTERNAL COORDINATES **
   Searching for a Minimum

   Optimization Cycle:   8

                       Coordinates (Angstroms)
     ATOM                X               Y               Z
      1  C        -0.2253534428   -0.1397844562    0.6729784886
      2  C        -0.8962185549   -1.1056838838    1.6481956904
      3  C        -1.9111381252   -2.0273790149    1.0609817773
      4  C        -2.4186674228   -1.8017075940   -0.1485992126
      5  C        -2.0172186874   -0.6438624830   -0.9492583522
      6  C        -1.0222774662    0.1571977686   -0.5706338622
      7  C        -0.6030504200    1.3613803407   -1.3549606604
      8  H        -0.0375569227    0.7947365936    1.2107018004
      9  H        -0.1138878584   -1.6575745243    2.1662229861
     10  H        -2.2186896339   -2.8742727498    1.6588159940
     11  H        -3.1557219310   -2.4767189707   -0.5626930686
     12  H        -2.5567947821   -0.4429850858   -1.8664805983
     13  H        -1.2317475232    1.4810840489   -2.2375104374
     14  O         0.7833353835    1.2935123556   -1.7280546825
     15  H        -0.6944428048    2.2569694126   -0.7398515534
     16  H         0.8689011078    0.6271613359   -2.4195808729
     17  O         1.0263646134   -0.7451276272    0.3216924494
     18  H         1.4125072101   -0.1873596416   -0.3684671293
     19  O        -1.5016542552   -0.3419563325    2.7540906430
     20  O        -2.5056968840    0.3847931077    2.3523852005
   Point Group: c1    Number of degrees of freedom:    54


   Energy is   -572.894284824

 Hessian updated using BFGS update

 54 Hessian modes will be used to form the next step
  Hessian Eigenvalues:
     0.001648    0.005706    0.006357    0.009757    0.011412    0.013889
     0.016386    0.018239    0.021335    0.021681    0.024990    0.043097
     0.047596    0.055607    0.063026    0.064724    0.073872    0.080562
     0.084722    0.116601    0.141824    0.150922    0.159415    0.159855
     0.160021    0.160091    0.173690    0.179283    0.193774    0.217232
     0.226731    0.236693    0.267940    0.284220    0.292794    0.313113
     0.319666    0.336440    0.340978    0.342568    0.344304    0.350043
     0.350783    0.351860    0.352670    0.359831    0.370977    0.390834
     0.437865    0.508437    0.530371    0.548671    0.573467    0.623637

 Minimum search - taking simple RFO step
 Searching for Lamda that Minimizes Along All modes
 Value Taken    Lamda =  -0.00000026
 Step Taken.  Stepsize is  0.007204

                             Maximum     Tolerance    Cnvgd?
         Gradient           0.000037      0.000300     YES
         Displacement       0.002587      0.001200      NO
         Energy change     -0.000000      0.000001     YES

 Final energy is   -572.894284824439     


 ******************************
 **  OPTIMIZATION CONVERGED  **
 ******************************

                       Coordinates (Angstroms)
     ATOM                X               Y               Z
      1  C        -0.2253534428   -0.1397844562    0.6729784886
      2  C        -0.8962185549   -1.1056838838    1.6481956904
      3  C        -1.9111381252   -2.0273790149    1.0609817773
      4  C        -2.4186674228   -1.8017075940   -0.1485992126
      5  C        -2.0172186874   -0.6438624830   -0.9492583522
      6  C        -1.0222774662    0.1571977686   -0.5706338622
      7  C        -0.6030504200    1.3613803407   -1.3549606604
      8  H        -0.0375569227    0.7947365936    1.2107018004
      9  H        -0.1138878584   -1.6575745243    2.1662229861
     10  H        -2.2186896339   -2.8742727498    1.6588159940
     11  H        -3.1557219310   -2.4767189707   -0.5626930686
     12  H        -2.5567947821   -0.4429850858   -1.8664805983
     13  H        -1.2317475232    1.4810840489   -2.2375104374
     14  O         0.7833353835    1.2935123556   -1.7280546825
     15  H        -0.6944428048    2.2569694126   -0.7398515534
     16  H         0.8689011078    0.6271613359   -2.4195808729
     17  O         1.0263646134   -0.7451276272    0.3216924494
     18  H         1.4125072101   -0.1873596416   -0.3684671293
     19  O        -1.5016542552   -0.3419563325    2.7540906430
     20  O        -2.5056968840    0.3847931077    2.3523852005

Z-matrix Print:
$molecule
0 2
O 
O  1 1.302933
C  1 1.474054 2 111.974611
H  3 1.088566 1 101.585800 2 -178.565625 0
C  3 1.491444 1 109.637976 2 -60.744862 0
H  5 1.081306 3 117.379752 1 -70.412288 0
C  5 1.331015 3 120.830607 1 109.134416 0
H  7 1.081833 5 120.122203 3 -179.879754 0
C  7 1.463838 5 121.775522 3 -0.476788 0
H  9 1.082955 7 118.250642 5 -172.169968 0
C  9 1.332277 7 121.664711 5 7.413752 0
C  11 1.496989 9 122.949782 7 -178.946939 0
H  12 1.090176 11 110.547009 9 1.109148 0
H  12 1.090317 11 109.979428 9 120.965535 0
O  12 1.437314 11 111.601150 9 -122.389676 0
H  15 0.964134 12 107.723337 11 72.428044 0
C  11 1.506605 9 120.736013 7 2.920240 0
H  17 1.094415 11 109.148158 9 -139.081718 0
O  17 1.434099 11 110.041233 9 100.941284 0
H  19 0.967746 17 106.240767 11 49.391786 0
$end

 
 --------------------------------------------------------------
 
                    Orbital Energies (a.u.)
 --------------------------------------------------------------
 
 Alpha MOs
 -- Occupied --
-19.4634 -19.4164 -19.3434 -19.3408 -10.4127 -10.4070 -10.3892 -10.3542
-10.3537 -10.3497 -10.3495  -1.3432  -1.1681  -1.1529  -1.0233  -0.9672
 -0.8963  -0.8587  -0.8020  -0.7502  -0.7174  -0.6682  -0.6442  -0.6345
 -0.6193  -0.6086  -0.5900  -0.5794  -0.5537  -0.5447  -0.5364  -0.5126
 -0.5041  -0.4715  -0.4536  -0.4414  -0.4295  -0.4095  -0.4033  -0.3914
 -0.3803  -0.3286
 -- Virtual --
  0.0163   0.0267   0.0362   0.0396   0.0454   0.0551   0.0586   0.0745
  0.0789   0.0846   0.0972   0.0996   0.1141   0.1207   0.1308   0.1350
  0.1407   0.1446   0.1514   0.1553   0.1577   0.1614   0.1664   0.1720
  0.1797   0.1814   0.1851   0.1915   0.1944   0.1986   0.2047   0.2052
  0.2096   0.2154   0.2248   0.2325   0.2466   0.2549   0.2594   0.2669
  0.2719   0.2725   0.2786   0.2841   0.2938   0.3044   0.3111   0.3144
  0.3184   0.3288   0.3327   0.3382   0.3421   0.3482   0.3544   0.3673
  0.3713   0.3796   0.3854   0.3902   0.3926   0.3964   0.4054   0.4115
  0.4166   0.4179   0.4387   0.4440   0.4566   0.4585   0.4749   0.4770
  0.5052   0.5313   0.5476   0.5541   0.5788   0.5873   0.5922   0.6008
  0.6148   0.6201   0.6316   0.6446   0.6506   0.6604   0.6650   0.6729
  0.6844   0.6868   0.6942   0.7003   0.7133   0.7164   0.7220   0.7380
  0.7418   0.7559   0.7604   0.7696   0.7881   0.7947   0.8044   0.8111
  0.8310   0.8328   0.8398   0.8493   0.8552   0.8892   0.8934   0.9029
  0.9129   0.9362   0.9662   0.9712   0.9948   1.0054   1.0305   1.0493
  1.0574   1.0611   1.0889   1.1105   1.1134   1.1271   1.1419   1.1467
  1.1550   1.1659   1.1828   1.1880   1.1985   1.2044   1.2153   1.2246
  1.2272   1.2483   1.2506   1.2587   1.2638   1.2700   1.2826   1.3025
  1.3073   1.3178   1.3345   1.3373   1.3575   1.3630   1.3783   1.3960
  1.4095   1.4122   1.4287   1.4318   1.4333   1.4471   1.4561   1.4585
  1.4727   1.4959   1.5058   1.5180   1.5258   1.5359   1.5473   1.5693
  1.5725   1.5853   1.6094   1.6222   1.6294   1.6504   1.6588   1.6772
  1.6847   1.7006   1.7032   1.7256   1.7460   1.7722   1.7861   1.8097
  1.8409   1.8448   1.8614   1.9049   1.9386   1.9550   1.9590   2.0171
  2.0219   2.0557   2.0826   2.1136   2.1383   2.1589   2.1727   2.1956
  2.2350   2.2807   2.3278   2.3404   2.3533   2.3769   2.4290   2.4411
  2.4732   2.5685   2.6236   2.6413   2.6766   2.7021   2.7144   2.7232
  2.7614   2.8093   2.8219   2.8311   2.8354   2.8468   2.8754   2.8887
  2.9017   2.9076   2.9387   2.9560   2.9682   2.9723   2.9824   2.9897
  3.0043   3.0114   3.0387   3.0498   3.0724   3.0856   3.1186   3.1319
  3.1473   3.1751   3.1901   3.2093   3.2273   3.2367   3.2516   3.2748
  3.3017   3.3113   3.3323   3.3483   3.3654   3.3808   3.3989   3.4056
  3.4135   3.4280   3.4297   3.4595   3.4781   3.5022   3.5102   3.5165
  3.5326   3.5467   3.5667   3.5852   3.6085   3.6257   3.6460   3.6617
  3.6684   3.6999   3.7142   3.7316   3.7489   3.7714   3.7744   3.7813
  3.8034   3.8213   3.8311   3.8545   3.8626   3.8739   3.8853   3.8966
  3.9204   3.9319   3.9467   3.9732   3.9775   3.9978   4.0154   4.0248
  4.0377   4.0760   4.0937   4.1255   4.1443   4.1688   4.1792   4.2054
  4.2354   4.2368   4.2522   4.2823   4.2996   4.3245   4.3354   4.3372
  4.3501   4.3674   4.3856   4.4006   4.4143   4.4380   4.4499   4.4666
  4.4901   4.5057   4.5369   4.5569   4.5796   4.6050   4.6225   4.6387
  4.6627   4.7072   4.7166   4.7473   4.7538   4.7851   4.8092   4.8780
  4.8850   4.9047   4.9465   4.9793   5.0248   5.0447   5.0619   5.0866
  5.1078   5.1211   5.1687   5.2151   5.2289   5.2634   5.2714   5.2785
  5.2990   5.3085   5.3322   5.3445   5.3508   5.3916   5.3999   5.4078
  5.4430   5.4660   5.5029   5.5340   5.5419   5.5723   5.6057   5.6639
  5.6690   5.6855   5.6896   5.7231   5.7479   5.7680   5.7974   5.8594
  5.8818   5.9021   5.9517   6.0061   6.0278   6.0945   6.3073   6.4413
  6.4749   6.5882   6.6007   6.6494   6.8843   6.9150   6.9836   7.1048
  7.1170   7.1358   7.2139   7.2544   7.2908   7.3094   7.3525   7.3740
  7.3896   7.4008   7.4319   7.4445   7.6364   7.7015   7.7839   7.8180
  7.8715   8.0276   8.0876  24.3165  24.5863  24.7294  24.7887  24.8017
 25.1522  25.3799  50.4275  50.5526  50.6022  50.6387
 
 Beta MOs
 -- Occupied --
-19.4529 -19.3978 -19.3434 -19.3408 -10.4131 -10.4067 -10.3892 -10.3543
-10.3537 -10.3497 -10.3492  -1.3167  -1.1680  -1.1529  -1.0009  -0.9582
 -0.8945  -0.8513  -0.8015  -0.7456  -0.7148  -0.6609  -0.6402  -0.6207
 -0.6075  -0.5886  -0.5857  -0.5688  -0.5494  -0.5368  -0.5198  -0.5056
 -0.5035  -0.4628  -0.4499  -0.4397  -0.4289  -0.3956  -0.3916  -0.3821
 -0.3275
 -- Virtual --
 -0.0318   0.0176   0.0270   0.0363   0.0401   0.0455   0.0552   0.0586
  0.0747   0.0792   0.0848   0.0978   0.1000   0.1149   0.1215   0.1312
  0.1359   0.1412   0.1452   0.1517   0.1558   0.1581   0.1620   0.1666
  0.1724   0.1801   0.1820   0.1856   0.1926   0.1953   0.1989   0.2049
  0.2062   0.2103   0.2172   0.2274   0.2331   0.2470   0.2576   0.2631
  0.2678   0.2726   0.2747   0.2796   0.2860   0.2946   0.3061   0.3123
  0.3165   0.3206   0.3300   0.3332   0.3390   0.3434   0.3488   0.3549
  0.3675   0.3729   0.3807   0.3871   0.3918   0.3931   0.3969   0.4057
  0.4119   0.4185   0.4190   0.4393   0.4446   0.4571   0.4590   0.4765
  0.4785   0.5054   0.5317   0.5480   0.5545   0.5791   0.5876   0.5926
  0.6009   0.6148   0.6202   0.6318   0.6450   0.6523   0.6606   0.6656
  0.6730   0.6846   0.6872   0.6946   0.7004   0.7134   0.7167   0.7224
  0.7382   0.7420   0.7564   0.7606   0.7703   0.7887   0.7948   0.8051
  0.8112   0.8314   0.8334   0.8399   0.8494   0.8554   0.8894   0.8939
  0.9032   0.9131   0.9368   0.9667   0.9730   0.9956   1.0068   1.0342
  1.0502   1.0578   1.0631   1.0900   1.1114   1.1137   1.1313   1.1460
  1.1484   1.1561   1.1692   1.1842   1.1909   1.2037   1.2128   1.2263
  1.2290   1.2350   1.2527   1.2551   1.2592   1.2663   1.2723   1.2838
  1.3037   1.3082   1.3209   1.3371   1.3408   1.3588   1.3649   1.3797
  1.3968   1.4105   1.4131   1.4317   1.4332   1.4353   1.4480   1.4572
  1.4608   1.4748   1.4972   1.5070   1.5194   1.5270   1.5445   1.5490
  1.5709   1.5741   1.5860   1.6132   1.6246   1.6310   1.6522   1.6626
  1.6801   1.6879   1.7089   1.7128   1.7339   1.7514   1.7811   1.7879
  1.8157   1.8453   1.8484   1.8704   1.9071   1.9458   1.9573   1.9625
  2.0177   2.0225   2.0589   2.0848   2.1173   2.1403   2.1663   2.1759
  2.1970   2.2396   2.2833   2.3382   2.3493   2.3619   2.3795   2.4294
  2.4427   2.4754   2.5701   2.6238   2.6461   2.6769   2.7036   2.7157
  2.7240   2.7618   2.8098   2.8228   2.8312   2.8355   2.8473   2.8765
  2.8890   2.9018   2.9084   2.9391   2.9563   2.9686   2.9727   2.9828
  2.9899   3.0047   3.0118   3.0392   3.0501   3.0724   3.0858   3.1193
  3.1321   3.1477   3.1756   3.1903   3.2094   3.2275   3.2373   3.2519
  3.2751   3.3018   3.3117   3.3327   3.3486   3.3657   3.3810   3.3992
  3.4061   3.4136   3.4284   3.4300   3.4596   3.4782   3.5026   3.5107
  3.5168   3.5326   3.5473   3.5670   3.5855   3.6087   3.6265   3.6462
  3.6618   3.6690   3.7002   3.7142   3.7322   3.7492   3.7716   3.7747
  3.7815   3.8037   3.8217   3.8313   3.8544   3.8630   3.8745   3.8855
  3.8969   3.9207   3.9321   3.9469   3.9735   3.9778   3.9979   4.0156
  4.0250   4.0379   4.0762   4.0940   4.1262   4.1448   4.1690   4.1795
  4.2058   4.2358   4.2371   4.2524   4.2824   4.2998   4.3251   4.3367
  4.3376   4.3505   4.3677   4.3858   4.4009   4.4145   4.4385   4.4503
  4.4670   4.4909   4.5067   4.5376   4.5582   4.5801   4.6233   4.6352
  4.6402   4.6632   4.7117   4.7185   4.7494   4.7642   4.7891   4.8118
  4.8852   4.8928   4.9185   4.9492   4.9810   5.0303   5.0580   5.0752
  5.1421   5.1433   5.1692   5.2031   5.2361   5.2458   5.2739   5.2933
  5.3071   5.3099   5.3191   5.3356   5.3483   5.3540   5.3942   5.4093
  5.4218   5.4570   5.4697   5.5119   5.5359   5.5538   5.5742   5.6103
  5.6660   5.6717   5.6869   5.6910   5.7234   5.7537   5.7747   5.8027
  5.8765   5.8820   5.9038   5.9520   6.0065   6.0281   6.0956   6.3088
  6.4549   6.5217   6.5886   6.6129   6.6499   6.9672   6.9935   7.0467
  7.1054   7.1363   7.1562   7.2410   7.2845   7.3064   7.3120   7.3532
  7.3767   7.3944   7.4216   7.4412   7.4849   7.6369   7.7021   7.7845
  7.8271   7.8754   8.0395   8.1093  24.3166  24.5863  24.7291  24.7887
 24.8019  25.1523  25.3799  50.4397  50.5626  50.6023  50.6387
 --------------------------------------------------------------
 
          Ground-State Mulliken Net Atomic Charges

     Atom                 Charge (a.u.)    Spin (a.u.)
  --------------------------------------------------------
      1 C                    -0.640011       0.012729
      2 C                    -0.038970      -0.011216
      3 C                    -0.330638       0.018145
      4 C                    -0.209343      -0.010137
      5 C                    -0.935121       0.016721
      6 C                     0.898157      -0.009536
      7 C                    -0.351368      -0.004184
      8 H                     0.294711       0.000353
      9 H                     0.242731       0.000932
     10 H                     0.327783      -0.000981
     11 H                     0.294659       0.000972
     12 H                     0.281291      -0.000011
     13 H                     0.241528       0.000064
     14 O                    -0.396528      -0.000268
     15 H                     0.218199       0.000119
     16 H                     0.328458       0.000053
     17 O                    -0.421408      -0.000636
     18 H                     0.334280       0.000210
     19 O                     0.071771       0.317331
     20 O                    -0.210182       0.669339
  --------------------------------------------------------
  Sum of atomic charges =     0.000000
  Sum of spin   charges =     1.000000

 -----------------------------------------------------------------
                    Cartesian Multipole Moments
 -----------------------------------------------------------------
    Charge (ESU x 10^10)
                 0.0000
    Dipole Moment (Debye)
         X      -0.4855      Y      -1.3664      Z      -4.1500
       Tot       4.3961
    Quadrupole Moments (Debye-Ang)
        XX     -69.6527     XY       4.8063     YY     -63.4401
        XZ       9.1055     YZ      -2.4857     ZZ     -63.5200
    Octopole Moments (Debye-Ang^2)
       XXX     205.0827    XXY       2.2250    XYY      44.1729
       YYY      51.2531    XXZ     -52.2756    XYZ      11.7519
       YYZ      -6.4187    XZZ      80.1516    YZZ       6.4008
       ZZZ    -100.4893
    Hexadecapole Moments (Debye-Ang^3)
      XXXX   -1042.1642   XXXY    -122.0400   XXYY    -239.8327
      XYYY    -145.6072   YYYY    -579.9413   XXXZ     249.5326
      XXYZ      46.1983   XYYZ      62.3467   YYYZ     132.6406
      XXZZ    -355.7773   XYZZ     -45.7256   YYZZ    -245.3019
      XZZZ     235.6990   YZZZ     119.5607   ZZZZ    -943.2417
 -----------------------------------------------------------------
 Total job time:  3736.71s(wall), 29005.81s(cpu) 
 Tue Feb 14 15:06:17 2023

        *************************************************************
        *                                                           *
        *  Thank you very much for using Q-Chem.  Have a nice day.  *
        *                                                           *
        *************************************************************


