
Running Job 1 of 1 Q_in.in
qchem Q_in.in_255424.0 /scratch/ari.fischer/qChem2102993.hpc-mn1/qchem255424/ 0
/usr/local/qchem-5.4.1/exe/qcprog.exe_s Q_in.in_255424.0 /scratch/ari.fischer/qChem2102993.hpc-mn1/qchem255424/
                  Welcome to Q-Chem
     A Quantum Leap Into The Future Of Chemistry


 Q-Chem 5.4, Q-Chem, Inc., Pleasanton, CA (2021)

 License issued to: Nanyang Technological University (site)

 E. Epifanovsky,  A. T. B. Gilbert,  Xintian Feng,  Joonho Lee,  Yuezhi Mao,  
 N. Mardirossian,  P. Pokhilko,  A. White,  M. Wormit,  M. P. Coons,  
 A. L. Dempwolff,  Zhengting Gan,  D. Hait,  P. R. Horn,  L. D. Jacobson,  
 I. Kaliman,  J. Kussmann,  A. W. Lange,  Ka Un Lao,  D. S. Levine,  Jie Liu,  
 S. C. McKenzie,  A. F. Morrison,  K. Nanda,  F. Plasser,  D. R. Rehn,  
 M. L. Vidal,  Zhi-Qiang You,  Ying Zhu,  B. Alam,  B. Albrecht,  
 A. Aldossary,  E. Alguire,  J. H. Andersen,  D. Barton,  K. Begam,  A. Behn,  
 Y. A. Bernard,  E. J. Berquist,  H. Burton,  A. Carreras,  K. Carter-Fenk,  
 R. Chakraborty,  A. D. Chien,  K. D. Closser,  V. Cofer-Shabica,  
 S. Dasgupta,  Jia Deng,  M. de Wergifosse,  M. Diedenhofen,  Hainam Do,  
 S. Ehlert,  Po-Tung Fang,  S. Fatehi,  Qingguo Feng,  T. Friedhoff,  
 J. Gayvert,  Qinghui Ge,  G. Gidofalvi,  M. Goldey,  J. Gomes,  
 C. Gonzalez-Espinoza,  S. Gulania,  A. Gunina,  M. W. D. Hanson-Heine,  
 P. H. P. Harbach,  A. W. Hauser,  M. F. Herbst,  M. Hernandez Vera,  
 M. Hodecker,  Z. C. Holden,  S. Houck,  Xunkun Huang,  Kerwin Hui,  
 B. C. Huynh,  M. Ivanov,  Hyunjun Ji,  Hanjie Jiang,  B. Kaduk,  S. Kaehler,  
 K. Khistyaev,  Jaehoon Kim,  P. Klunzinger,  Z. Koczor-Benda,  
 Joong Hoon Koh,  D. Kosenkov,  L. Koulias,  T. Kowalczyk,  C. M. Krauter,  
 K. Kue,  A. Kunitsa,  T. Kus,  A. Landau,  K. V. Lawler,  D. Lefrancois,  
 S. Lehtola,  Rain Li,  Yi-Pei Li,  Jiashu Liang,  M. Liebenthal,  
 Hung-Hsuan Lin,  You-Sheng Lin,  Fenglai Liu,  Kuan-Yu Liu,  
 M. Loipersberger,  A. Luenser,  A. Manjanath,  P. Manohar,  E. Mansoor,  
 S. F. Manzer,  Shan-Ping Mao,  A. V. Marenich,  T. Markovich,  S. Mason,  
 S. A. Maurer,  P. F. McLaughlin,  M. F. S. J. Menger,  J.-M. Mewes,  
 S. A. Mewes,  P. Morgante,  J. W. Mullinax,  K. J. Oosterbaan,  G. Paran,  
 Alexander C. Paul,  Suranjan K. Paul,  F. Pavosevic,  Zheng Pei,  S. Prager,  
 E. I. Proynov,  E. Ramos,  B. Rana,  A. E. Rask,  A. Rettig,  R. M. Richard,  
 F. Rob,  E. Rossomme,  T. Scheele,  M. Scheurer,  M. Schneider,  
 N. Sergueev,  S. M. Sharada,  W. Skomorowski,  D. W. Small,  C. J. Stein,  
 Yu-Chuan Su,  E. J. Sundstrom,  Zhen Tao,  J. Thirman,  T. Tsuchimochi,  
 N. M. Tubman,  S. P. Veccham,  O. Vydrov,  J. Wenzel,  J. Witte,  A. Yamada,  
 Kun Yao,  S. Yeganeh,  S. R. Yost,  A. Zech,  Igor Ying Zhang,  Xing Zhang,  
 Yu Zhang,  D. Zuev,  A. Aspuru-Guzik,  A. T. Bell,  N. A. Besley,  
 K. B. Bravaya,  B. R. Brooks,  D. Casanova,  Jeng-Da Chai,  S. Coriani,  
 C. J. Cramer,  A. E. DePrince, III,  R. A. DiStasio Jr.,  A. Dreuw,  
 B. D. Dunietz,  T. R. Furlani,  W. A. Goddard III,  S. Grimme,  
 S. Hammes-Schiffer,  T. Head-Gordon,  W. J. Hehre,  Chao-Ping Hsu,  
 T.-C. Jagau,  Yousung Jung,  A. Klamt,  Jing Kong,  D. S. Lambrecht,  
 WanZhen Liang,  N. J. Mayhall,  C. W. McCurdy,  J. B. Neaton,  
 C. Ochsenfeld,  J. A. Parkhill,  R. Peverati,  V. A. Rassolov,  Yihan Shao,  
 L. V. Slipchenko,  T. Stauch,  R. P. Steele,  J. E. Subotnik,  
 A. J. W. Thom,  A. Tkatchenko,  D. G. Truhlar,  T. Van Voorhis,  
 T. A. Wesolowski,  K. B. Whaley,  H. L. Woodcock III,  P. M. Zimmerman,  
 S. Faraji,  P. M. W. Gill,  M. Head-Gordon,  J. M. Herbert,  A. I. Krylov

 Additional authors for Version 5.4.1: 
 S. Kotaru,  Shaozhi Li,  Xiangyuan Li,  F. Matz,  A. Molle,  Haisheng Ren,  
 Yingli Su,  Hung-Yi Tsai,  C. Utku,  Fang Wang

 Contributors to earlier versions of Q-Chem not listed above: 
 R. D. Adamson,  B. Austin,  R. Baer,  J. Baker,  G. J. O. Beran,  
 K. Brandhorst,  S. T. Brown,  E. F. C. Byrd,  A. K. Chakraborty,  
 G. K. L. Chan,  Chun-Min Chang,  Yunqing Chen,  C.-L. Cheng,  
 Siu Hung Chien,  D. M. Chipman,  D. L. Crittenden,  H. Dachsel,  
 R. J. Doerksen,  A. D. Dutoi,  R. G. Edgar,  J. Fosso-Tande,  
 L. Fusti-Molnar,  D. Ghosh,  A. Ghysels,  A. Golubeva-Zadorozhnaya,  
 J. Gonthier,  M. S. Gordon,  S. R. Gwaltney,  G. Hawkins,  J. E. Herr,  
 A. Heyden,  S. Hirata,  E. G. Hohenstein,  G. Kedziora,  F. J. Keil,  
 C. Kelley,  Jihan Kim,  R. A. King,  R. Z. Khaliullin,  P. P. Korambath,  
 W. Kurlancheek,  A. Laurent,  A. M. Lee,  M. S. Lee,  S. V. Levchenko,  
 Ching Yeh Lin,  D. Liotard,  E. Livshits,  R. C. Lochan,  I. Lotan,  
 L. A. Martinez-Martinez,  P. E. Maslen,  N. Nair,  D. P. O'Neill,  
 D. Neuhauser,  E. Neuscamman,  C. M. Oana,  R. Olivares-Amaya,  R. Olson,  
 T. M. Perrine,  B. Peters,  P. A. Pieniazek,  A. Prociuk,  Y. M. Rhee,  
 J. Ritchie,  M. A. Rohrdanz,  E. Rosta,  N. J. Russ,  H. F. Schaefer III,  
 M. W. Schmidt,  N. E. Schultz,  S. Sharma,  N. Shenvi,  C. D. Sherrill,  
 A. C. Simmonett,  A. Sodt,  T. Stein,  D. Stuck,  K. S. Thanthiriwatte,  
 V. Vanovschi,  L. Vogt,  Tao Wang,  A. Warshel,  M. A. Watson,  
 C. F. Williams,  Q. Wu,  X. Xu,  Jun Yang,  W. Zhang,  Yan Zhao

 Please cite Q-Chem as follows:
 Y. Shao et al., Mol. Phys. 113, 184-215 (2015)
 DOI: 10.1080/00268976.2014.952696

 Q-Chem 5.4.1 for Intel X86 EM64T Linux

 Parts of Q-Chem use Armadillo 9.800.1 (Horizon Scraper).
 http://arma.sourceforge.net/

 Q-Chem begins on Wed May 15 13:48:08 2024  

 Host: 
0

     Scratch files written to /scratch/ari.fischer/qChem2102993.hpc-mn1/qchem255424//
 Aug1521 |scratch|qcdevops|jenkins|workspace|build_RNUM 8249   
 Processing $rem in /usr/local/qchem-5.4.1/config/preferences:
 Processing $rem in /home/ari.fischer/.qchemrc:
 Symmetry turned off for PCM/SM12/SMD calculation


!!********************************************.
!!******************Warning*******************.
!!Desired Analytical derivatives not available.
!!Finite difference job might take a long time.
!!********************************************.
!!********************************************.


 2-order derivative to be evaluated numerically with 1-order analytical derivatives

 Checking the input file for inconsistencies... 	...done.

--------------------------------------------------------------
User input:
--------------------------------------------------------------
$molecule
0 2
C        -1.1170613374    0.1523573205    0.8966375857
O        -1.3179571462    1.1078482845   -0.1818832667
O        -0.0210660090    1.7570395897   -0.4405765917
C         0.1053878512    0.7439502289    1.5895595307
O         0.6319348056   -0.1239707648    2.5626672089
C         0.9318189846    1.0277260477    0.3303832178
C         1.3234246525   -0.1979349610   -0.4708674913
O         1.6533304896   -1.3803364189    0.2445245938
C         0.3773374675   -1.3223874023   -0.4836195547
C        -0.8418567471   -1.1850765156    0.3095690843
H        -2.0183744544    0.1912886864    1.5009370126
H        -0.1614453926    1.7049249315    2.0294065564
H         1.2441342314    0.3791544216    3.1099729876
H         1.7640499265    1.7066670383    0.5024068414
H         1.9319028887   -0.0029246966   -1.3460299488
H         0.3649624956   -1.9936378436   -1.3312090354
H        -1.5846568063   -1.9671608466    0.3256583695
$end

$rem
BASIS = 6-311++G(2df,2p)
GUI = 2
JOB_TYPE = Frequency
METHOD = wB97M-V
SOLVENT_METHOD = SMD
SCF_ALGORITHM = DIIS_GDM
MAX_SCF_CYCLES = 400
SCF_CONVERGENCE = 7
THRESH = 12
$end
--------------------------------------------------------------
 ----------------------------------------------------------------
             Standard Nuclear Orientation (Angstroms)
    I     Atom           X                Y                Z
 ----------------------------------------------------------------
    1      C      -1.1170613374     0.1523573205     0.8966375857
    2      O      -1.3179571462     1.1078482845    -0.1818832667
    3      O      -0.0210660090     1.7570395897    -0.4405765917
    4      C       0.1053878512     0.7439502289     1.5895595307
    5      O       0.6319348056    -0.1239707648     2.5626672089
    6      C       0.9318189846     1.0277260477     0.3303832178
    7      C       1.3234246525    -0.1979349610    -0.4708674913
    8      O       1.6533304896    -1.3803364189     0.2445245938
    9      C       0.3773374675    -1.3223874023    -0.4836195547
   10      C      -0.8418567471    -1.1850765156     0.3095690843
   11      H      -2.0183744544     0.1912886864     1.5009370126
   12      H      -0.1614453926     1.7049249315     2.0294065564
   13      H       1.2441342314     0.3791544216     3.1099729876
   14      H       1.7640499265     1.7066670383     0.5024068414
   15      H       1.9319028887    -0.0029246966    -1.3460299488
   16      H       0.3649624956    -1.9936378436    -1.3312090354
   17      H      -1.5846568063    -1.9671608466     0.3256583695
 ----------------------------------------------------------------
 Nuclear Repulsion Energy =         585.44829907 hartrees
 There are       38 alpha and       37 beta electrons
 Requested basis set is 6-311++G(2df,2p)
 There are 122 shells and 410 basis functions

 Total QAlloc Memory Limit 288000 MB
 Mega-Array Size       188 MB
 MEM_STATIC part       192 MB
 
 Citation of the SMD model:
 Marenich, A.V.; Cramer, C.J.; Truhlar, D.G.
 J. Phys. Chem. B 2009, 113, 6378-6396.
 iSolventCode=           1
 Solvent: water                                                           
 
 vradii
            1           2           3           4           5           6
    1   1.8500000   1.5200000   1.5200000   1.8500000   1.5200000   1.8500000
            7           8           9          10          11          12
    1   1.8500000   1.5200000   1.8500000   1.8500000   1.2000000   1.2000000
           13          14          15          16          17
    1   1.2000000   1.2000000   1.2000000   1.2000000   1.2000000
 Changing PCM_VDW_RADII to SMD_RADIUS
 Discretize the solute cavity surface with Lebedev spheres
	Using 110 Lebedev grid points for each H atom
	Using 194 Lebedev grid points for other atoms
	Atomic van der Waals radii will be scaled by 1.20
 Remove points where switching function is < 1.0e-08
 Keep 1245 surface tesserae and discard 1465 interior tesserae
 Molecular Surface Area = 140.876 Angst**2
 A cutoff of  1.0D-12 yielded   7020 shell pairs
 There are     80592 function pairs (    101617 Cartesian)
 Smallest overlap matrix eigenvalue = 4.90E-06
 Guess from superposition of atomic densities
 Warning:  Energy on first SCF cycle will be non-variational
 SAD guess density has 75.000000 electrons

 -----------------------------------------------------------------------
  General SCF calculation program by
  Eric Jon Sundstrom, Paul Horn, Yuezhi Mao, Dmitri Zuev, Alec White,
  David Stuck, Shaama M.S., Shane Yost, Joonho Lee, David Small,
  Daniel Levine, Susi Lehtola, Hugh Burton, Evgeny Epifanovsky,
  Bang C. Huynh
 -----------------------------------------------------------------------
 Exchange:     0.1500 Hartree-Fock + 1.0000 wB97M-V + LR-HF
 Correlation:  1.0000 wB97M-V
 Using SG-2 standard quadrature grid
 Nonlocal Correlation:  VV10 with C = 0.0100 and b = 6.00 and scale = 1.00000
 Grid used for NLC:  SG-1 standard quadrature
 using 16 threads for integral computing
 -------------------------------------------------------
 OpenMP Integral computing Module                
 Release: version 1.0, May 2013, Q-Chem Inc. Pittsburgh 
 -------------------------------------------------------
 
 Citation of the SMD model:
 Marenich, A.V.; Cramer, C.J.; Truhlar, D.G.
 J. Phys. Chem. B 2009, 113, 6378-6396.
 iSolventCode=           1
 Solvent: water                                                           
 
 vradii
            1           2           3           4           5           6
    1   1.8500000   1.5200000   1.5200000   1.8500000   1.5200000   1.8500000
            7           8           9          10          11          12
    1   1.8500000   1.5200000   1.8500000   1.8500000   1.2000000   1.2000000
           13          14          15          16          17
    1   1.2000000   1.2000000   1.2000000   1.2000000   1.2000000
 -------------------------------------------------------
 OpenMP BLAS3 based DFT computing Module                
 Release: version 1.0, May 2013, Q-Chem Inc. Pittsburgh 
 -------------------------------------------------------
 A unrestricted SCF calculation will be
 performed using DIIS, GDM
 SCF converges when RMS gradient is below 1.0e-07
 ---------------------------------------
  Cycle       Energy         DIIS error
 ---------------------------------------
    1    -536.4298546630      1.27e-02  
    2    -533.4676990506      1.14e-03  Done DIIS. Switching to GDM
 ---------------------------------------
  Cycle       Energy        RMS Gradient
 ---------------------------------------
    1    -533.4676990506      3.67e-02   Descent step
    2    -533.5471290153      2.08e-02   Normal BFGS step
    3    -533.5626440416      1.05e-02   Normal BFGS step
    4    -533.5642648273      6.79e-03   Normal BFGS step
    5    -533.5645777519      2.94e-03   Normal BFGS step
    6    -533.5646835472      1.59e-03   Normal BFGS step
    7    -533.5646964650      6.72e-04   Normal BFGS step
    8    -533.5646998579      2.57e-04   Normal BFGS step
    9    -533.5647002732      1.39e-04   Normal BFGS step
   10    -533.5647004947      3.92e-05   Normal BFGS step
   11    -533.5647005220      1.69e-05   Normal BFGS step
   12    -533.5647005288      1.09e-05   Normal BFGS step
   13    -533.5647005306      6.28e-06   Normal BFGS step
   14    -533.5647005311      3.12e-06   Normal BFGS step
   15    -533.5647005313      1.33e-06   Normal BFGS step
   16    -533.5647005313      4.06e-07   Normal BFGS step
   17    -533.5647005313      1.61e-07   Normal BFGS step
   18    -533.5647005313      6.09e-08  Convergence criterion met
 ---------------------------------------
 SCF time:   CPU 2236.75s  wall 154.00s 
<S^2> =          0.755074454
(3)  G-ENP(liq) elect-nuc-pol free energy of system     -533.564700531 a.u.
(4)  G-CDS(liq) cavity-dispersion-solvent structure 
     free energy                                                2.2444 kcal/mol
(6)  G-S(liq) free energy of system                     -533.561123885 a.u.
 SCF   energy in the final basis set =     -533.5611238851
 Total energy in the final basis set =     -533.5611238851
 
 --------------------------------------------------------------
 
                    Orbital Energies (a.u.)
 --------------------------------------------------------------
 
 Alpha MOs
 -- Occupied --
-19.4050 -19.4032 -19.3602 -19.3485 -10.4102 -10.4089 -10.4079 -10.4043
-10.4037 -10.3675  -1.2709  -1.2142  -1.1714  -1.0702  -0.9462  -0.8701
 -0.8250  -0.7613  -0.7274  -0.7023  -0.6686  -0.6370  -0.6113  -0.5851
 -0.5767  -0.5632  -0.5500  -0.5315  -0.5043  -0.4973  -0.4865  -0.4628
 -0.4537  -0.4205  -0.4066  -0.3925  -0.3589  -0.3148
 -- Virtual --
  0.0249   0.0359   0.0372   0.0464   0.0569   0.0590   0.0701   0.0860
  0.0878   0.0959   0.1145   0.1246   0.1337   0.1362   0.1373   0.1408
  0.1448   0.1492   0.1539   0.1574   0.1607   0.1650   0.1716   0.1821
  0.1883   0.1909   0.1935   0.1991   0.2089   0.2259   0.2306   0.2380
  0.2424   0.2464   0.2567   0.2710   0.2831   0.2937   0.2990   0.3088
  0.3160   0.3212   0.3298   0.3350   0.3458   0.3501   0.3602   0.3655
  0.3697   0.3725   0.3817   0.3858   0.3900   0.3973   0.3988   0.4013
  0.4110   0.4163   0.4247   0.4310   0.4373   0.4620   0.4658   0.4810
  0.4931   0.5046   0.5391   0.5456   0.5903   0.5960   0.6075   0.6129
  0.6303   0.6421   0.6539   0.6631   0.6685   0.6773   0.6879   0.6955
  0.7096   0.7173   0.7278   0.7290   0.7422   0.7482   0.7586   0.7678
  0.7830   0.7918   0.8094   0.8298   0.8406   0.8544   0.8783   0.9126
  0.9333   0.9438   0.9570   0.9967   1.0338   1.0439   1.0499   1.0812
  1.0854   1.1158   1.1233   1.1398   1.1420   1.1600   1.1682   1.1819
  1.1906   1.2062   1.2083   1.2189   1.2261   1.2387   1.2524   1.2558
  1.2700   1.2772   1.2916   1.2963   1.3102   1.3164   1.3204   1.3317
  1.3375   1.3489   1.3609   1.3815   1.3959   1.4025   1.4129   1.4164
  1.4350   1.4756   1.4784   1.4929   1.5046   1.5219   1.5262   1.5503
  1.5527   1.5771   1.5838   1.6061   1.6246   1.6375   1.6562   1.6666
  1.7057   1.7108   1.7424   1.7723   1.8053   1.8140   1.8319   1.8514
  1.8929   1.9094   1.9389   1.9512   1.9927   2.0072   2.0506   2.0777
  2.0978   2.1062   2.1533   2.1657   2.1837   2.2477   2.2626   2.2667
  2.3119   2.3394   2.3828   2.4069   2.4301   2.4506   2.5304   2.6321
  2.6657   2.7037   2.7120   2.7301   2.7630   2.7912   2.8034   2.8269
  2.8487   2.8557   2.8792   2.8960   2.9017   2.9164   2.9387   2.9734
  2.9838   3.0155   3.0304   3.0349   3.0492   3.0753   3.1114   3.1249
  3.1528   3.1657   3.1939   3.2436   3.2631   3.2668   3.2948   3.3038
  3.3390   3.3553   3.3814   3.3919   3.4001   3.4327   3.4420   3.4565
  3.4697   3.5062   3.5137   3.5415   3.5737   3.5855   3.5916   3.6063
  3.6167   3.6527   3.6612   3.6760   3.6986   3.7123   3.7182   3.7367
  3.7459   3.7567   3.7892   3.8245   3.8298   3.8463   3.8561   3.8646
  3.8843   3.8918   3.9224   3.9229   3.9558   3.9757   4.0098   4.0210
  4.0606   4.0639   4.0854   4.1048   4.1415   4.1855   4.1987   4.2260
  4.2607   4.2853   4.3008   4.3222   4.3308   4.3367   4.3657   4.3841
  4.3861   4.3972   4.4281   4.4473   4.4653   4.4803   4.4986   4.5124
  4.5514   4.5712   4.5950   4.6099   4.6201   4.6806   4.6969   4.7257
  4.7442   4.7716   4.8104   4.8685   4.9403   5.0014   5.0626   5.1421
  5.1897   5.2270   5.2660   5.2751   5.2897   5.3017   5.3224   5.3286
  5.3403   5.3538   5.3607   5.4019   5.4115   5.4451   5.4544   5.4802
  5.5045   5.5107   5.5220   5.5882   5.6070   5.6103   5.6290   5.6374
  5.6946   5.7153   5.7536   5.7688   5.8003   5.8177   5.8788   5.9082
  5.9489   5.9777   6.0058   6.0346   6.0581   6.1162   6.2529   6.4692
  6.5579   6.6256   6.6718   6.7221   6.7583   7.0227   7.1196   7.1736
  7.2759   7.2867   7.3187   7.3391   7.3798   7.4244   7.4337   7.4594
  7.4963   7.5177   7.6201   7.7146   7.7446   7.8332   7.8483   7.8958
  7.9247   8.2297  24.4830  24.7078  24.7319  24.7941  24.8861  24.9417
 50.5805  50.6363  50.6488  50.7019
 
 Beta MOs
 -- Occupied --
-19.4050 -19.4011 -19.3572 -19.3484 -10.4098 -10.4096 -10.4079 -10.4054
-10.4032 -10.3551  -1.2688  -1.2087  -1.1710  -1.0672  -0.9388  -0.8561
 -0.8220  -0.7574  -0.7232  -0.6981  -0.6633  -0.6334  -0.6073  -0.5795
 -0.5742  -0.5586  -0.5430  -0.5253  -0.4993  -0.4934  -0.4818  -0.4596
 -0.4476  -0.4129  -0.4044  -0.3883  -0.3551
 -- Virtual --
 -0.0180   0.0249   0.0357   0.0368   0.0476   0.0568   0.0588   0.0721
  0.0872   0.0913   0.0960   0.1142   0.1241   0.1331   0.1358   0.1367
  0.1422   0.1447   0.1486   0.1541   0.1577   0.1605   0.1649   0.1716
  0.1831   0.1880   0.1902   0.1951   0.1992   0.2094   0.2255   0.2306
  0.2371   0.2423   0.2464   0.2639   0.2735   0.2844   0.2946   0.3016
  0.3106   0.3163   0.3226   0.3306   0.3414   0.3469   0.3518   0.3603
  0.3666   0.3716   0.3738   0.3830   0.3863   0.3904   0.3980   0.4001
  0.4022   0.4112   0.4183   0.4259   0.4302   0.4404   0.4642   0.4691
  0.4838   0.4931   0.5058   0.5412   0.5475   0.5996   0.6005   0.6105
  0.6183   0.6310   0.6442   0.6551   0.6690   0.6746   0.6795   0.6911
  0.6966   0.7126   0.7209   0.7280   0.7314   0.7442   0.7542   0.7608
  0.7741   0.7855   0.7924   0.8152   0.8353   0.8425   0.8582   0.8818
  0.9134   0.9355   0.9446   0.9580   0.9992   1.0354   1.0462   1.0516
  1.0812   1.0872   1.1173   1.1275   1.1417   1.1449   1.1620   1.1689
  1.1831   1.1927   1.2088   1.2108   1.2230   1.2278   1.2428   1.2545
  1.2569   1.2709   1.2820   1.2929   1.2983   1.3127   1.3188   1.3220
  1.3332   1.3404   1.3504   1.3632   1.3850   1.3995   1.4051   1.4159
  1.4216   1.4400   1.4779   1.4819   1.4961   1.5078   1.5246   1.5303
  1.5533   1.5557   1.5823   1.5900   1.6094   1.6256   1.6403   1.6620
  1.6692   1.7089   1.7201   1.7461   1.7756   1.8077   1.8183   1.8344
  1.8550   1.8977   1.9126   1.9410   1.9536   1.9960   2.0110   2.0523
  2.0806   2.1005   2.1096   2.1594   2.1701   2.1872   2.2497   2.2664
  2.2691   2.3135   2.3410   2.3852   2.4095   2.4327   2.4521   2.5329
  2.6411   2.6784   2.7068   2.7151   2.7338   2.7673   2.7974   2.8156
  2.8397   2.8574   2.8664   2.8906   2.9033   2.9202   2.9288   2.9748
  2.9914   3.0139   3.0276   3.0396   3.0500   3.0641   3.0858   3.1160
  3.1316   3.1619   3.1731   3.2089   3.2509   3.2751   3.2783   3.3009
  3.3129   3.3439   3.3704   3.3940   3.4035   3.4146   3.4454   3.4601
  3.4666   3.4818   3.5138   3.5193   3.5516   3.5824   3.5975   3.6015
  3.6171   3.6274   3.6634   3.6691   3.6922   3.7102   3.7200   3.7303
  3.7423   3.7537   3.7615   3.7969   3.8299   3.8376   3.8545   3.8633
  3.8718   3.8880   3.8961   3.9292   3.9304   3.9609   3.9851   4.0176
  4.0264   4.0683   4.0714   4.0974   4.1148   4.1544   4.1902   4.2079
  4.2363   4.2680   4.2953   4.3046   4.3276   4.3389   4.3449   4.3726
  4.3889   4.3981   4.4045   4.4388   4.4566   4.4738   4.4895   4.5099
  4.5189   4.5622   4.5797   4.6057   4.6175   4.6258   4.6830   4.7024
  4.7320   4.7514   4.7748   4.8182   4.8744   4.9542   5.0171   5.0689
  5.1519   5.2061   5.2340   5.2686   5.2791   5.2918   5.3044   5.3285
  5.3342   5.3423   5.3573   5.3640   5.4041   5.4199   5.4473   5.4612
  5.4835   5.5079   5.5129   5.5338   5.5940   5.6102   5.6176   5.6310
  5.6552   5.6960   5.7252   5.7582   5.7794   5.8069   5.8276   5.8814
  5.9165   5.9525   5.9888   6.0097   6.0391   6.0595   6.1179   6.2547
  6.4773   6.5626   6.6282   6.6726   6.7239   6.7593   7.0251   7.1202
  7.1818   7.2826   7.2912   7.3208   7.3394   7.3833   7.4275   7.4349
  7.4622   7.5017   7.5195   7.6235   7.7150   7.7543   7.8383   7.8524
  7.8991   7.9274   8.2312  24.4885  24.7098  24.7321  24.7945  24.8877
 24.9451  50.5815  50.6368  50.6495  50.7038
 --------------------------------------------------------------
 
          Ground-State Mulliken Net Atomic Charges

     Atom                 Charge (a.u.)    Spin (a.u.)
  --------------------------------------------------------
      1 C                    -0.043157      -0.016306
      2 O                    -0.146816       0.039729
      3 O                    -0.122545       0.003134
      4 C                    -0.118551       0.015670
      5 O                    -0.432599      -0.001145
      6 C                    -0.226995      -0.005662
      7 C                    -0.221224       0.041401
      8 O                    -0.278100       0.074502
      9 C                    -0.143899      -0.013618
     10 C                    -0.308746       0.861844
     11 H                     0.296337       0.006916
     12 H                     0.289793      -0.001183
     13 H                     0.343666       0.000394
     14 H                     0.271297       0.000717
     15 H                     0.274345       0.001948
     16 H                     0.242875       0.009222
     17 H                     0.324320      -0.017563
  --------------------------------------------------------
  Sum of atomic charges =     0.000000
  Sum of spin   charges =     1.000000

 -----------------------------------------------------------------
                    Cartesian Multipole Moments
 -----------------------------------------------------------------
    Charge (ESU x 10^10)
                 0.0000
    Dipole Moment (Debye)
         X       0.6127      Y       0.9837      Z       1.5139
       Tot       1.9066
    Quadrupole Moments (Debye-Ang)
        XX     -55.5790     XY      11.5587     YY     -60.9069
        XZ      -1.9706     YZ      11.5453     ZZ     -52.6402
    Octopole Moments (Debye-Ang^2)
       XXX     -31.8537    XXY       6.7402    XYY     -12.6430
       YYY     -16.6311    XXZ     -17.2606    XYZ       6.9899
       YYZ     -24.0439    XZZ       3.6594    YZZ      12.3500
       ZZZ     -63.5113
    Hexadecapole Moments (Debye-Ang^3)
      XXXX    -417.5724   XXXY      75.6640   XXYY    -157.0537
      XYYY      67.5299   YYYY    -483.0950   XXXZ     -16.1115
      XXYZ       4.6564   XYYZ      -4.6552   YYYZ       5.6466
      XXZZ    -117.8813   XYZZ      24.6432   YYZZ    -150.7906
      XZZZ      35.8413   YZZZ      35.1514   ZZZZ    -418.4011
 -----------------------------------------------------------------
 Calculating analytic gradient of the SCF energy
 Gradient of CDS energy
            1           2           3           4           5           6
    1  -0.0001905   0.0001027  -0.0001140   0.0008190  -0.0009213  -0.0000019
    2   0.0002727   0.0000711  -0.0000263  -0.0014573   0.0013641   0.0002363
    3   0.0000464  -0.0000026   0.0000547   0.0017934  -0.0018312  -0.0000476
            7           8           9          10          11          12
    1   0.0004218  -0.0001073   0.0002093  -0.0003446  -0.0001937  -0.0000812
    2  -0.0000125   0.0000986  -0.0003988  -0.0003338   0.0000418   0.0002071
    3  -0.0001369   0.0000743  -0.0002370   0.0001113   0.0000831  -0.0000251
           13          14          15          16          17
    1   0.0002907   0.0001345   0.0001079  -0.0000022  -0.0001291
    2  -0.0000269   0.0001681   0.0000517  -0.0001198  -0.0001360
    3   0.0004156   0.0000020  -0.0001521  -0.0001512   0.0000028
 Gradient of SCF Energy
            1           2           3           4           5           6
    1   0.0042944  -0.0024833  -0.0000078   0.0035709  -0.0083251  -0.0138962
    2   0.0037835   0.0011442   0.0021023  -0.0107213  -0.0147804  -0.0025783
    3  -0.0084377  -0.0015119  -0.0011794  -0.0015250  -0.0075738  -0.0063407
            7           8           9          10          11          12
    1   0.0008104   0.0014248   0.0003228   0.0049441  -0.0059428  -0.0005959
    2  -0.0012097  -0.0043047   0.0032206   0.0030592  -0.0001760   0.0078683
    3   0.0063053   0.0019942   0.0027653   0.0037145   0.0042328   0.0059894
           13          14          15          16          17
    1   0.0090367   0.0088094   0.0037083  -0.0007591  -0.0049118
    2   0.0119155   0.0065286   0.0018027  -0.0029711  -0.0046834
    3   0.0080189   0.0025317  -0.0047979  -0.0040808  -0.0001050
 Max gradient component =       1.478E-02
 RMS gradient           =       5.679E-03
 Computing fast CPCM-SWIG gradient
 Updating gradient with PCM contributions...
 -- total gradient after adding PCM contribution --
---------------------------------------------------
  Atom         X              Y              Z     
---------------------------------------------------
   1       0.000031      -0.000048       0.000042
   2      -0.000047       0.000005      -0.000062
   3       0.000017       0.000000       0.000006
   4      -0.000027       0.000026      -0.000037
   5       0.000003       0.000001       0.000013
   6       0.000008       0.000002       0.000017
   7      -0.000000      -0.000031       0.000028
   8       0.000077       0.000011       0.000053
   9      -0.000099       0.000027      -0.000053
  10      -0.000002       0.000018      -0.000021
  11      -0.000005       0.000001      -0.000031
  12      -0.000007      -0.000008      -0.000007
  13      -0.000012      -0.000004       0.000000
  14      -0.000005       0.000001       0.000004
  15       0.000002       0.000008       0.000017
  16       0.000034       0.000008       0.000012
  17       0.000032      -0.000017       0.000019
---------------------------------------------------
 Number of fixed atoms: 0
 Gradient time:  CPU 359.73 s  wall 28.04 s
 ######################################################
 ######################################################
 # Starting finite difference calculation for IDERIV  #
 Finite diff step size:  1.88973e-03 a.u.
 ----------------------------------------------------------------
             Standard Nuclear Orientation (Angstroms)
    I     Atom           X                Y                Z
 ----------------------------------------------------------------
    1      C      -1.1160613374     0.1523573205     0.8966375857
    2      O      -1.3179571462     1.1078482845    -0.1818832667
    3      O      -0.0210660090     1.7570395897    -0.4405765917
    4      C       0.1053878512     0.7439502289     1.5895595307
    5      O       0.6319348056    -0.1239707648     2.5626672089
    6      C       0.9318189846     1.0277260477     0.3303832178
    7      C       1.3234246525    -0.1979349610    -0.4708674913
    8      O       1.6533304896    -1.3803364189     0.2445245938
    9      C       0.3773374675    -1.3223874023    -0.4836195547
   10      C      -0.8418567471    -1.1850765156     0.3095690843
   11      H      -2.0183744544     0.1912886864     1.5009370126
   12      H      -0.1614453926     1.7049249315     2.0294065564
   13      H       1.2441342314     0.3791544216     3.1099729876
   14      H       1.7640499265     1.7066670383     0.5024068414
   15      H       1.9319028887    -0.0029246966    -1.3460299488
   16      H       0.3649624956    -1.9936378436    -1.3312090354
   17      H      -1.5846568063    -1.9671608466     0.3256583695
 ----------------------------------------------------------------
 Nuclear Repulsion Energy =         585.46789640 hartrees
 There are       38 alpha and       37 beta electrons
 Discretize the solute cavity surface with Lebedev spheres
	Using 110 Lebedev grid points for each H atom
	Using 194 Lebedev grid points for other atoms
	Atomic van der Waals radii will be scaled by 1.20
 Remove points where switching function is < 1.0e-08
 Keep 1245 surface tesserae and discard 1465 interior tesserae
 Molecular Surface Area = 140.874 Angst**2
 Requested basis set is 6-311++G(2df,2p)
 There are 122 shells and 410 basis functions
 A cutoff of  1.0D-12 yielded   7020 shell pairs
 There are     80592 function pairs (    101617 Cartesian)
 Smallest overlap matrix eigenvalue = 4.90E-06
 Guess MOs from SCF MO coefficient file

 -----------------------------------------------------------------------
  General SCF calculation program by
  Eric Jon Sundstrom, Paul Horn, Yuezhi Mao, Dmitri Zuev, Alec White,
  David Stuck, Shaama M.S., Shane Yost, Joonho Lee, David Small,
  Daniel Levine, Susi Lehtola, Hugh Burton, Evgeny Epifanovsky,
  Bang C. Huynh
 -----------------------------------------------------------------------
 Exchange:     0.1500 Hartree-Fock + 1.0000 wB97M-V + LR-HF
 Correlation:  1.0000 wB97M-V
 Using SG-2 standard quadrature grid
 Nonlocal Correlation:  VV10 with C = 0.0100 and b = 6.00 and scale = 1.00000
 Grid used for NLC:  SG-1 standard quadrature
 
 Citation of the SMD model:
 Marenich, A.V.; Cramer, C.J.; Truhlar, D.G.
 J. Phys. Chem. B 2009, 113, 6378-6396.
 iSolventCode=           1
 Solvent: water                                                           
 
 vradii
            1           2           3           4           5           6
    1   1.8500000   1.5200000   1.5200000   1.8500000   1.5200000   1.8500000
            7           8           9          10          11          12
    1   1.8500000   1.5200000   1.8500000   1.8500000   1.2000000   1.2000000
           13          14          15          16          17
    1   1.2000000   1.2000000   1.2000000   1.2000000   1.2000000
 -------------------------------------------------------
 OpenMP BLAS3 based DFT computing Module                
 Release: version 1.0, May 2013, Q-Chem Inc. Pittsburgh 
 -------------------------------------------------------
 A unrestricted SCF calculation will be
 performed using Roothaan-Hall, DIIS, GDM
 SCF converges when RMS gradient is below 1.0e-07
 ---------------------------------------
  Cycle       Energy         DIIS error
 ---------------------------------------
    1    -533.5280851880      2.17e-04  Roothaan Step
 ---------------------------------------
  Cycle       Energy         DIIS error
 ---------------------------------------
    1    -533.5570769736      2.47e-04  
    2    -533.5619349445      2.17e-04  Done DIIS. Switching to GDM
 ---------------------------------------
  Cycle       Energy        RMS Gradient
 ---------------------------------------
    1    -533.5619349445      6.25e-03   Normal BFGS step
    2    -533.5616154767      8.74e-03  Line search: overstep
    3    -533.5645167174      1.68e-03   Normal BFGS step
    4    -533.5646617531      5.21e-04   Normal BFGS step
    5    -533.5646943089      2.58e-04   Normal BFGS step
    6    -533.5646979219      1.40e-04   Normal BFGS step
    7    -533.5646988093      8.24e-05   Normal BFGS step
    8    -533.5646989655      6.17e-05   Normal BFGS step
    9    -533.5646989943      2.93e-05   Normal BFGS step
   10    -533.5646990035      1.79e-05   Normal BFGS step
   11    -533.5646990052      8.38e-06   Normal BFGS step
   12    -533.5646990056      1.83e-06   Normal BFGS step
   13    -533.5646990057      1.20e-06   Normal BFGS step
   14    -533.5646990057      5.52e-07   Normal BFGS step
   15    -533.5646990057      2.92e-07   Normal BFGS step
   16    -533.5646990057      1.43e-07   Normal BFGS step
   17    -533.5646990057      7.73e-08  Convergence criterion met
 ---------------------------------------
 SCF time:   CPU 2188.54s  wall 148.00s 
<S^2> =          0.755075005
(3)  G-ENP(liq) elect-nuc-pol free energy of system     -533.564699006 a.u.
(4)  G-CDS(liq) cavity-dispersion-solvent structure 
     free energy                                                2.2442 kcal/mol
(6)  G-S(liq) free energy of system                     -533.561122717 a.u.
 SCF   energy in the final basis set =     -533.5611227168
 Total energy in the final basis set =     -533.5611227168
 
 --------------------------------------------------------------
 
                    Orbital Energies (a.u.)
 --------------------------------------------------------------
 
 Alpha MOs
 -- Occupied --
-19.4050 -19.4032 -19.3602 -19.3485 -10.4102 -10.4089 -10.4079 -10.4043
-10.4037 -10.3675  -1.2709  -1.2142  -1.1714  -1.0701  -0.9463  -0.8701
 -0.8250  -0.7613  -0.7274  -0.7023  -0.6687  -0.6370  -0.6112  -0.5850
 -0.5767  -0.5632  -0.5500  -0.5315  -0.5043  -0.4973  -0.4865  -0.4629
 -0.4536  -0.4205  -0.4066  -0.3925  -0.3589  -0.3148
 -- Virtual --
  0.0249   0.0359   0.0372   0.0464   0.0569   0.0590   0.0701   0.0860
  0.0878   0.0959   0.1145   0.1246   0.1337   0.1362   0.1373   0.1408
  0.1448   0.1492   0.1539   0.1574   0.1607   0.1650   0.1716   0.1821
  0.1883   0.1909   0.1935   0.1991   0.2089   0.2259   0.2306   0.2380
  0.2424   0.2464   0.2567   0.2711   0.2830   0.2937   0.2990   0.3088
  0.3159   0.3212   0.3298   0.3351   0.3457   0.3501   0.3602   0.3655
  0.3697   0.3725   0.3817   0.3859   0.3901   0.3973   0.3988   0.4013
  0.4110   0.4163   0.4248   0.4310   0.4373   0.4620   0.4658   0.4810
  0.4931   0.5046   0.5391   0.5456   0.5903   0.5960   0.6075   0.6129
  0.6303   0.6421   0.6539   0.6631   0.6686   0.6773   0.6879   0.6955
  0.7095   0.7173   0.7278   0.7290   0.7421   0.7482   0.7586   0.7678
  0.7830   0.7918   0.8095   0.8298   0.8407   0.8545   0.8783   0.9126
  0.9333   0.9438   0.9570   0.9967   1.0338   1.0440   1.0500   1.0812
  1.0854   1.1159   1.1232   1.1398   1.1420   1.1601   1.1682   1.1819
  1.1906   1.2063   1.2083   1.2189   1.2261   1.2387   1.2524   1.2558
  1.2700   1.2773   1.2916   1.2963   1.3102   1.3164   1.3204   1.3317
  1.3375   1.3489   1.3609   1.3815   1.3959   1.4025   1.4129   1.4164
  1.4350   1.4757   1.4785   1.4930   1.5046   1.5219   1.5262   1.5503
  1.5527   1.5771   1.5837   1.6061   1.6246   1.6375   1.6562   1.6665
  1.7057   1.7108   1.7425   1.7723   1.8055   1.8141   1.8319   1.8514
  1.8930   1.9094   1.9389   1.9512   1.9927   2.0073   2.0506   2.0777
  2.0978   2.1063   2.1533   2.1657   2.1837   2.2477   2.2625   2.2668
  2.3119   2.3394   2.3829   2.4069   2.4301   2.4506   2.5305   2.6322
  2.6658   2.7039   2.7121   2.7301   2.7631   2.7912   2.8034   2.8270
  2.8490   2.8557   2.8794   2.8960   2.9017   2.9167   2.9387   2.9736
  2.9837   3.0155   3.0304   3.0348   3.0493   3.0753   3.1115   3.1250
  3.1528   3.1658   3.1940   3.2436   3.2631   3.2668   3.2948   3.3037
  3.3390   3.3554   3.3815   3.3919   3.4001   3.4327   3.4420   3.4564
  3.4698   3.5062   3.5138   3.5416   3.5737   3.5855   3.5916   3.6063
  3.6168   3.6526   3.6612   3.6759   3.6985   3.7125   3.7184   3.7368
  3.7459   3.7565   3.7892   3.8246   3.8300   3.8464   3.8561   3.8648
  3.8843   3.8917   3.9224   3.9229   3.9559   3.9757   4.0099   4.0210
  4.0607   4.0641   4.0856   4.1047   4.1417   4.1854   4.1987   4.2260
  4.2607   4.2853   4.3009   4.3222   4.3308   4.3367   4.3659   4.3841
  4.3861   4.3972   4.4281   4.4472   4.4655   4.4801   4.4987   4.5126
  4.5514   4.5712   4.5950   4.6101   4.6205   4.6806   4.6970   4.7256
  4.7444   4.7716   4.8104   4.8687   4.9403   5.0014   5.0625   5.1422
  5.1900   5.2270   5.2660   5.2751   5.2897   5.3016   5.3224   5.3286
  5.3404   5.3539   5.3607   5.4019   5.4115   5.4453   5.4544   5.4803
  5.5044   5.5107   5.5222   5.5880   5.6070   5.6103   5.6287   5.6375
  5.6946   5.7153   5.7536   5.7689   5.8002   5.8175   5.8786   5.9080
  5.9490   5.9776   6.0058   6.0346   6.0581   6.1164   6.2525   6.4692
  6.5576   6.6256   6.6718   6.7221   6.7584   7.0227   7.1196   7.1736
  7.2759   7.2869   7.3187   7.3392   7.3798   7.4244   7.4337   7.4593
  7.4963   7.5174   7.6202   7.7147   7.7446   7.8332   7.8483   7.8958
  7.9246   8.2297  24.4828  24.7079  24.7318  24.7949  24.8862  24.9418
 50.5805  50.6363  50.6488  50.7019
 
 Beta MOs
 -- Occupied --
-19.4050 -19.4011 -19.3572 -19.3484 -10.4098 -10.4096 -10.4079 -10.4054
-10.4032 -10.3551  -1.2688  -1.2087  -1.1710  -1.0672  -0.9389  -0.8562
 -0.8220  -0.7573  -0.7233  -0.6981  -0.6633  -0.6334  -0.6073  -0.5794
 -0.5742  -0.5586  -0.5429  -0.5253  -0.4993  -0.4935  -0.4818  -0.4597
 -0.4476  -0.4129  -0.4044  -0.3884  -0.3551
 -- Virtual --
 -0.0180   0.0249   0.0357   0.0368   0.0476   0.0568   0.0588   0.0721
  0.0872   0.0913   0.0960   0.1142   0.1241   0.1331   0.1358   0.1367
  0.1422   0.1447   0.1486   0.1541   0.1577   0.1605   0.1649   0.1715
  0.1831   0.1880   0.1902   0.1950   0.1992   0.2094   0.2255   0.2306
  0.2372   0.2423   0.2464   0.2639   0.2735   0.2844   0.2946   0.3017
  0.3106   0.3163   0.3225   0.3306   0.3414   0.3468   0.3518   0.3603
  0.3666   0.3716   0.3738   0.3829   0.3864   0.3904   0.3980   0.4001
  0.4022   0.4113   0.4184   0.4259   0.4303   0.4404   0.4642   0.4691
  0.4838   0.4931   0.5057   0.5412   0.5475   0.5996   0.6005   0.6105
  0.6183   0.6310   0.6442   0.6552   0.6691   0.6746   0.6795   0.6911
  0.6966   0.7125   0.7209   0.7281   0.7314   0.7442   0.7542   0.7608
  0.7742   0.7855   0.7924   0.8152   0.8353   0.8425   0.8583   0.8818
  0.9135   0.9355   0.9447   0.9580   0.9992   1.0355   1.0462   1.0516
  1.0812   1.0872   1.1173   1.1275   1.1417   1.1450   1.1620   1.1689
  1.1831   1.1927   1.2088   1.2109   1.2230   1.2279   1.2428   1.2545
  1.2569   1.2709   1.2821   1.2928   1.2983   1.3127   1.3188   1.3220
  1.3332   1.3404   1.3504   1.3633   1.3849   1.3995   1.4051   1.4160
  1.4217   1.4400   1.4780   1.4820   1.4962   1.5078   1.5247   1.5303
  1.5533   1.5557   1.5823   1.5899   1.6094   1.6255   1.6402   1.6620
  1.6691   1.7089   1.7201   1.7462   1.7756   1.8079   1.8183   1.8344
  1.8550   1.8978   1.9125   1.9410   1.9537   1.9960   2.0110   2.0523
  2.0806   2.1006   2.1097   2.1594   2.1701   2.1872   2.2497   2.2663
  2.2692   2.3135   2.3410   2.3853   2.4094   2.4327   2.4521   2.5330
  2.6412   2.6785   2.7069   2.7152   2.7338   2.7675   2.7975   2.8156
  2.8398   2.8576   2.8665   2.8908   2.9032   2.9202   2.9291   2.9746
  2.9915   3.0139   3.0277   3.0395   3.0500   3.0642   3.0858   3.1161
  3.1317   3.1619   3.1732   3.2091   3.2509   3.2751   3.2783   3.3010
  3.3128   3.3438   3.3705   3.3940   3.4036   3.4146   3.4454   3.4600
  3.4666   3.4819   3.5138   3.5193   3.5516   3.5824   3.5974   3.6015
  3.6171   3.6275   3.6634   3.6691   3.6922   3.7102   3.7201   3.7305
  3.7424   3.7537   3.7614   3.7970   3.8300   3.8378   3.8546   3.8633
  3.8720   3.8880   3.8961   3.9292   3.9304   3.9610   3.9852   4.0179
  4.0264   4.0684   4.0716   4.0976   4.1148   4.1546   4.1901   4.2079
  4.2364   4.2680   4.2953   4.3046   4.3275   4.3389   4.3449   4.3727
  4.3888   4.3981   4.4045   4.4388   4.4566   4.4741   4.4893   4.5100
  4.5190   4.5622   4.5797   4.6056   4.6178   4.6260   4.6829   4.7024
  4.7319   4.7516   4.7748   4.8181   4.8746   4.9543   5.0171   5.0688
  5.1520   5.2064   5.2341   5.2686   5.2792   5.2918   5.3044   5.3285
  5.3342   5.3423   5.3574   5.3640   5.4040   5.4199   5.4474   5.4612
  5.4836   5.5078   5.5129   5.5340   5.5938   5.6102   5.6175   5.6310
  5.6553   5.6960   5.7251   5.7583   5.7794   5.8068   5.8274   5.8812
  5.9163   5.9525   5.9887   6.0097   6.0391   6.0595   6.1181   6.2543
  6.4773   6.5623   6.6282   6.6726   6.7239   6.7593   7.0251   7.1202
  7.1818   7.2826   7.2913   7.3208   7.3394   7.3832   7.4275   7.4350
  7.4622   7.5017   7.5193   7.6237   7.7150   7.7543   7.8383   7.8524
  7.8992   7.9273   8.2312  24.4883  24.7099  24.7320  24.7952  24.8879
 24.9452  50.5815  50.6369  50.6495  50.7038
 --------------------------------------------------------------
 
          Ground-State Mulliken Net Atomic Charges

     Atom                 Charge (a.u.)    Spin (a.u.)
  --------------------------------------------------------
      1 C                    -0.042453      -0.016316
      2 O                    -0.146788       0.039784
      3 O                    -0.122638       0.003144
      4 C                    -0.118369       0.015633
      5 O                    -0.432621      -0.001151
      6 C                    -0.227120      -0.005657
      7 C                    -0.221297       0.041420
      8 O                    -0.278094       0.074518
      9 C                    -0.143658      -0.013658
     10 C                    -0.309343       0.861838
     11 H                     0.296032       0.006908
     12 H                     0.289804      -0.001186
     13 H                     0.343671       0.000397
     14 H                     0.271287       0.000717
     15 H                     0.274348       0.001948
     16 H                     0.242879       0.009212
     17 H                     0.324360      -0.017549
  --------------------------------------------------------
  Sum of atomic charges =     0.000000
  Sum of spin   charges =     1.000000

 -----------------------------------------------------------------
                    Cartesian Multipole Moments
 -----------------------------------------------------------------
    Charge (ESU x 10^10)
                 0.0000
    Dipole Moment (Debye)
         X       0.6136      Y       0.9828      Z       1.5137
       Tot       1.9062
    Quadrupole Moments (Debye-Ang)
        XX     -55.5826     XY      11.5593     YY     -60.9049
        XZ      -1.9667     YZ      11.5452     ZZ     -52.6407
    Octopole Moments (Debye-Ang^2)
       XXX     -31.8584    XXY       6.7369    XYY     -12.6534
       YYY     -16.6373    XXZ     -17.2687    XYZ       6.9914
       YYZ     -24.0407    XZZ       3.6613    YZZ      12.3516
       ZZZ     -63.5111
    Hexadecapole Moments (Debye-Ang^3)
      XXXX    -417.5349   XXXY      75.6646   XXYY    -157.0369
      XYYY      67.5336   YYYY    -483.0790   XXXZ     -16.1041
      XXYZ       4.6533   XYYZ      -4.6553   YYYZ       5.6479
      XXZZ    -117.8830   XYZZ      24.6427   YYZZ    -150.7866
      XZZZ      35.8480   YZZZ      35.1553   ZZZZ    -418.3996
 -----------------------------------------------------------------
 Calculating analytic gradient of the SCF energy
 Gradient of CDS energy
            1           2           3           4           5           6
    1  -0.0001877   0.0001023  -0.0001140   0.0008185  -0.0009214  -0.0000019
    2   0.0002724   0.0000711  -0.0000263  -0.0014576   0.0013641   0.0002363
    3   0.0000459  -0.0000024   0.0000547   0.0017930  -0.0018312  -0.0000476
            7           8           9          10          11          12
    1   0.0004218  -0.0001073   0.0002094  -0.0003452  -0.0001949  -0.0000812
    2  -0.0000125   0.0000986  -0.0003988  -0.0003334   0.0000420   0.0002071
    3  -0.0001369   0.0000743  -0.0002370   0.0001115   0.0000834  -0.0000250
           13          14          15          16          17
    1   0.0002907   0.0001345   0.0001079  -0.0000022  -0.0001292
    2  -0.0000269   0.0001681   0.0000517  -0.0001198  -0.0001360
    3   0.0004156   0.0000021  -0.0001521  -0.0001512   0.0000028
 Gradient of SCF Energy
            1           2           3           4           5           6
    1   0.0054591  -0.0026566  -0.0000247   0.0033064  -0.0083392  -0.0139684
    2   0.0038334   0.0011929   0.0020624  -0.0108161  -0.0147783  -0.0026330
    3  -0.0086815  -0.0015922  -0.0011257  -0.0015833  -0.0075900  -0.0063219
            7           8           9          10          11          12
    1   0.0008110   0.0014242   0.0003211   0.0047562  -0.0063943  -0.0005868
    2  -0.0012076  -0.0043046   0.0032744   0.0030987  -0.0001463   0.0078739
    3   0.0063040   0.0019917   0.0027968   0.0037770   0.0044639   0.0059976
           13          14          15          16          17
    1   0.0090372   0.0088071   0.0037096  -0.0007657  -0.0048962
    2   0.0119168   0.0065286   0.0018015  -0.0029727  -0.0047240
    3   0.0080219   0.0025390  -0.0047987  -0.0040780  -0.0001205
 Max gradient component =       1.478E-02
 RMS gradient           =       5.726E-03
 Computing fast CPCM-SWIG gradient
 Updating gradient with PCM contributions...
 -- total gradient after adding PCM contribution --
---------------------------------------------------
  Atom         X              Y              Z     
---------------------------------------------------
   1       0.001206      -0.000005      -0.000205
   2      -0.000222       0.000056      -0.000147
   3       0.000002      -0.000042       0.000062
   4      -0.000292      -0.000060      -0.000093
   5      -0.000009       0.000003      -0.000003
   6      -0.000066      -0.000051       0.000034
   7       0.000001      -0.000029       0.000027
   8       0.000077       0.000010       0.000050
   9      -0.000104       0.000080      -0.000021
  10      -0.000190       0.000049       0.000036
  11      -0.000464       0.000032       0.000210
  12       0.000001      -0.000004       0.000000
  13      -0.000013      -0.000003       0.000002
  14      -0.000007       0.000002       0.000011
  15       0.000003       0.000007       0.000016
  16       0.000028       0.000008       0.000015
  17       0.000049      -0.000052       0.000005
---------------------------------------------------
 Number of fixed atoms: 0
 Gradient time:  CPU 359.85 s  wall 27.87 s
 ----------------------------------------------------------------
             Standard Nuclear Orientation (Angstroms)
    I     Atom           X                Y                Z
 ----------------------------------------------------------------
    1      C      -1.1180613374     0.1523573205     0.8966375857
    2      O      -1.3179571462     1.1078482845    -0.1818832667
    3      O      -0.0210660090     1.7570395897    -0.4405765917
    4      C       0.1053878512     0.7439502289     1.5895595307
    5      O       0.6319348056    -0.1239707648     2.5626672089
    6      C       0.9318189846     1.0277260477     0.3303832178
    7      C       1.3234246525    -0.1979349610    -0.4708674913
    8      O       1.6533304896    -1.3803364189     0.2445245938
    9      C       0.3773374675    -1.3223874023    -0.4836195547
   10      C      -0.8418567471    -1.1850765156     0.3095690843
   11      H      -2.0183744544     0.1912886864     1.5009370126
   12      H      -0.1614453926     1.7049249315     2.0294065564
   13      H       1.2441342314     0.3791544216     3.1099729876
   14      H       1.7640499265     1.7066670383     0.5024068414
   15      H       1.9319028887    -0.0029246966    -1.3460299488
   16      H       0.3649624956    -1.9936378436    -1.3312090354
   17      H      -1.5846568063    -1.9671608466     0.3256583695
 ----------------------------------------------------------------
 Nuclear Repulsion Energy =         585.42870071 hartrees
 There are       38 alpha and       37 beta electrons
 Discretize the solute cavity surface with Lebedev spheres
	Using 110 Lebedev grid points for each H atom
	Using 194 Lebedev grid points for other atoms
	Atomic van der Waals radii will be scaled by 1.20
 Remove points where switching function is < 1.0e-08
 Keep 1245 surface tesserae and discard 1465 interior tesserae
 Molecular Surface Area = 140.878 Angst**2
 Requested basis set is 6-311++G(2df,2p)
 There are 122 shells and 410 basis functions
 A cutoff of  1.0D-12 yielded   7020 shell pairs
 There are     80592 function pairs (    101617 Cartesian)
 Smallest overlap matrix eigenvalue = 4.90E-06
 Guess MOs from SCF MO coefficient file

 -----------------------------------------------------------------------
  General SCF calculation program by
  Eric Jon Sundstrom, Paul Horn, Yuezhi Mao, Dmitri Zuev, Alec White,
  David Stuck, Shaama M.S., Shane Yost, Joonho Lee, David Small,
  Daniel Levine, Susi Lehtola, Hugh Burton, Evgeny Epifanovsky,
  Bang C. Huynh
 -----------------------------------------------------------------------
 Exchange:     0.1500 Hartree-Fock + 1.0000 wB97M-V + LR-HF
 Correlation:  1.0000 wB97M-V
 Using SG-2 standard quadrature grid
 Nonlocal Correlation:  VV10 with C = 0.0100 and b = 6.00 and scale = 1.00000
 Grid used for NLC:  SG-1 standard quadrature
 
 Citation of the SMD model:
 Marenich, A.V.; Cramer, C.J.; Truhlar, D.G.
 J. Phys. Chem. B 2009, 113, 6378-6396.
 iSolventCode=           1
 Solvent: water                                                           
 
 vradii
            1           2           3           4           5           6
    1   1.8500000   1.5200000   1.5200000   1.8500000   1.5200000   1.8500000
            7           8           9          10          11          12
    1   1.8500000   1.5200000   1.8500000   1.8500000   1.2000000   1.2000000
           13          14          15          16          17
    1   1.2000000   1.2000000   1.2000000   1.2000000   1.2000000
 -------------------------------------------------------
 OpenMP BLAS3 based DFT computing Module                
 Release: version 1.0, May 2013, Q-Chem Inc. Pittsburgh 
 -------------------------------------------------------
 A unrestricted SCF calculation will be
 performed using Roothaan-Hall, DIIS, GDM
 SCF converges when RMS gradient is below 1.0e-07
 ---------------------------------------
  Cycle       Energy         DIIS error
 ---------------------------------------
    1    -533.5280894932      2.17e-04  Roothaan Step
 ---------------------------------------
  Cycle       Energy         DIIS error
 ---------------------------------------
    1    -533.5570847672      2.47e-04  
    2    -533.5619495414      2.16e-04  Done DIIS. Switching to GDM
 ---------------------------------------
  Cycle       Energy        RMS Gradient
 ---------------------------------------
    1    -533.5619495414      6.21e-03   Normal BFGS step
    2    -533.5616365350      8.75e-03  Line search: overstep
    3    -533.5645173998      1.68e-03   Normal BFGS step
    4    -533.5646626664      5.19e-04   Normal BFGS step
    5    -533.5646951397      2.68e-04   Normal BFGS step
    6    -533.5646987607      1.39e-04   Normal BFGS step
    7    -533.5646996408      8.95e-05   Normal BFGS step
    8    -533.5646997995      6.41e-05   Normal BFGS step
    9    -533.5646998290      3.21e-05   Normal BFGS step
   10    -533.5646998388      1.93e-05   Normal BFGS step
   11    -533.5646998407      8.56e-06   Normal BFGS step
   12    -533.5646998412      1.58e-06   Normal BFGS step
   13    -533.5646998412      1.29e-06   Normal BFGS step
   14    -533.5646998412      5.92e-07   Normal BFGS step
   15    -533.5646998412      3.16e-07   Normal BFGS step
   16    -533.5646998412      1.43e-07   Normal BFGS step
   17    -533.5646998412      8.14e-08  Convergence criterion met
 ---------------------------------------
 SCF time:   CPU 2194.79s  wall 149.00s 
<S^2> =          0.755073915
(3)  G-ENP(liq) elect-nuc-pol free energy of system     -533.564699841 a.u.
(4)  G-CDS(liq) cavity-dispersion-solvent structure 
     free energy                                                2.2446 kcal/mol
(6)  G-S(liq) free energy of system                     -533.561122832 a.u.
 SCF   energy in the final basis set =     -533.5611228324
 Total energy in the final basis set =     -533.5611228324
 
 --------------------------------------------------------------
 
                    Orbital Energies (a.u.)
 --------------------------------------------------------------
 
 Alpha MOs
 -- Occupied --
-19.4050 -19.4032 -19.3602 -19.3485 -10.4102 -10.4089 -10.4079 -10.4043
-10.4037 -10.3675  -1.2709  -1.2142  -1.1713  -1.0702  -0.9461  -0.8700
 -0.8250  -0.7613  -0.7274  -0.7023  -0.6686  -0.6370  -0.6113  -0.5851
 -0.5767  -0.5632  -0.5500  -0.5316  -0.5043  -0.4973  -0.4865  -0.4628
 -0.4537  -0.4205  -0.4066  -0.3924  -0.3589  -0.3148
 -- Virtual --
  0.0249   0.0359   0.0372   0.0464   0.0569   0.0590   0.0701   0.0860
  0.0878   0.0959   0.1145   0.1246   0.1337   0.1362   0.1373   0.1408
  0.1448   0.1491   0.1539   0.1574   0.1608   0.1650   0.1716   0.1821
  0.1883   0.1909   0.1935   0.1991   0.2089   0.2259   0.2306   0.2380
  0.2424   0.2465   0.2568   0.2710   0.2831   0.2937   0.2990   0.3087
  0.3160   0.3212   0.3298   0.3350   0.3458   0.3502   0.3602   0.3655
  0.3697   0.3725   0.3817   0.3858   0.3900   0.3973   0.3988   0.4013
  0.4110   0.4162   0.4247   0.4309   0.4373   0.4620   0.4658   0.4810
  0.4931   0.5046   0.5391   0.5456   0.5903   0.5959   0.6075   0.6129
  0.6303   0.6421   0.6539   0.6631   0.6685   0.6773   0.6879   0.6955
  0.7096   0.7173   0.7278   0.7290   0.7423   0.7482   0.7586   0.7677
  0.7830   0.7917   0.8094   0.8298   0.8406   0.8544   0.8783   0.9125
  0.9333   0.9437   0.9570   0.9967   1.0337   1.0439   1.0499   1.0813
  1.0854   1.1158   1.1233   1.1398   1.1420   1.1600   1.1682   1.1818
  1.1906   1.2062   1.2083   1.2189   1.2261   1.2387   1.2524   1.2558
  1.2700   1.2772   1.2916   1.2963   1.3102   1.3164   1.3204   1.3316
  1.3375   1.3489   1.3609   1.3815   1.3959   1.4025   1.4129   1.4163
  1.4349   1.4755   1.4783   1.4928   1.5046   1.5218   1.5261   1.5504
  1.5527   1.5771   1.5839   1.6060   1.6246   1.6375   1.6562   1.6667
  1.7058   1.7108   1.7424   1.7723   1.8051   1.8140   1.8319   1.8513
  1.8928   1.9094   1.9389   1.9511   1.9927   2.0072   2.0506   2.0777
  2.0977   2.1061   2.1532   2.1656   2.1838   2.2476   2.2626   2.2665
  2.3120   2.3393   2.3827   2.4069   2.4301   2.4506   2.5304   2.6320
  2.6656   2.7035   2.7120   2.7301   2.7629   2.7911   2.8034   2.8269
  2.8484   2.8557   2.8790   2.8960   2.9017   2.9162   2.9387   2.9732
  2.9838   3.0154   3.0304   3.0349   3.0491   3.0753   3.1112   3.1248
  3.1528   3.1656   3.1938   3.2436   3.2630   3.2667   3.2947   3.3039
  3.3391   3.3552   3.3814   3.3920   3.4002   3.4328   3.4419   3.4565
  3.4696   3.5062   3.5137   3.5414   3.5737   3.5855   3.5916   3.6063
  3.6167   3.6528   3.6611   3.6760   3.6986   3.7122   3.7181   3.7366
  3.7460   3.7569   3.7891   3.8244   3.8296   3.8462   3.8562   3.8643
  3.8843   3.8918   3.9224   3.9229   3.9557   3.9756   4.0096   4.0209
  4.0605   4.0637   4.0852   4.1048   4.1412   4.1856   4.1986   4.2260
  4.2606   4.2853   4.3007   4.3223   4.3308   4.3367   4.3656   4.3842
  4.3862   4.3973   4.4281   4.4474   4.4650   4.4805   4.4986   4.5123
  4.5513   4.5712   4.5950   4.6098   4.6198   4.6807   4.6969   4.7258
  4.7441   4.7717   4.8104   4.8683   4.9402   5.0015   5.0626   5.1420
  5.1894   5.2269   5.2660   5.2751   5.2897   5.3017   5.3223   5.3286
  5.3403   5.3538   5.3607   5.4020   5.4115   5.4450   5.4544   5.4801
  5.5045   5.5107   5.5218   5.5884   5.6069   5.6102   5.6293   5.6373
  5.6946   5.7153   5.7536   5.7687   5.8003   5.8179   5.8789   5.9084
  5.9489   5.9778   6.0058   6.0346   6.0580   6.1161   6.2533   6.4692
  6.5582   6.6256   6.6718   6.7221   6.7583   7.0227   7.1196   7.1736
  7.2759   7.2866   7.3187   7.3390   7.3799   7.4243   7.4336   7.4595
  7.4963   7.5179   7.6200   7.7146   7.7446   7.8331   7.8483   7.8957
  7.9248   8.2297  24.4831  24.7077  24.7321  24.7934  24.8859  24.9416
 50.5805  50.6363  50.6488  50.7019
 
 Beta MOs
 -- Occupied --
-19.4050 -19.4011 -19.3572 -19.3484 -10.4098 -10.4096 -10.4079 -10.4054
-10.4032 -10.3551  -1.2688  -1.2087  -1.1710  -1.0673  -0.9387  -0.8561
 -0.8219  -0.7574  -0.7232  -0.6981  -0.6633  -0.6334  -0.6073  -0.5795
 -0.5742  -0.5586  -0.5430  -0.5253  -0.4993  -0.4934  -0.4818  -0.4596
 -0.4476  -0.4129  -0.4044  -0.3883  -0.3551
 -- Virtual --
 -0.0180   0.0249   0.0357   0.0368   0.0476   0.0568   0.0588   0.0720
  0.0872   0.0913   0.0960   0.1142   0.1241   0.1331   0.1358   0.1367
  0.1422   0.1447   0.1486   0.1541   0.1578   0.1605   0.1649   0.1716
  0.1831   0.1880   0.1902   0.1951   0.1992   0.2094   0.2255   0.2306
  0.2371   0.2423   0.2465   0.2638   0.2735   0.2844   0.2946   0.3016
  0.3106   0.3163   0.3226   0.3306   0.3413   0.3469   0.3518   0.3603
  0.3666   0.3716   0.3738   0.3830   0.3863   0.3904   0.3979   0.4001
  0.4022   0.4112   0.4183   0.4259   0.4302   0.4404   0.4642   0.4690
  0.4838   0.4931   0.5058   0.5412   0.5475   0.5995   0.6005   0.6105
  0.6182   0.6311   0.6442   0.6551   0.6690   0.6746   0.6794   0.6911
  0.6966   0.7126   0.7209   0.7280   0.7314   0.7443   0.7542   0.7608
  0.7741   0.7855   0.7923   0.8152   0.8353   0.8424   0.8582   0.8817
  0.9134   0.9355   0.9446   0.9580   0.9992   1.0354   1.0461   1.0516
  1.0812   1.0872   1.1172   1.1275   1.1417   1.1449   1.1619   1.1689
  1.1830   1.1927   1.2088   1.2108   1.2230   1.2278   1.2429   1.2545
  1.2569   1.2709   1.2820   1.2929   1.2984   1.3127   1.3188   1.3219
  1.3332   1.3405   1.3504   1.3632   1.3850   1.3995   1.4051   1.4159
  1.4216   1.4400   1.4778   1.4818   1.4960   1.5078   1.5245   1.5303
  1.5533   1.5558   1.5823   1.5901   1.6094   1.6256   1.6403   1.6620
  1.6693   1.7090   1.7201   1.7461   1.7756   1.8076   1.8182   1.8343
  1.8549   1.8976   1.9126   1.9410   1.9536   1.9960   2.0110   2.0523
  2.0806   2.1004   2.1095   2.1593   2.1701   2.1873   2.2497   2.2664
  2.2689   2.3136   2.3409   2.3851   2.4095   2.4328   2.4521   2.5328
  2.6410   2.6782   2.7066   2.7150   2.7338   2.7672   2.7974   2.8156
  2.8397   2.8571   2.8663   2.8904   2.9033   2.9201   2.9286   2.9749
  2.9912   3.0140   3.0274   3.0396   3.0500   3.0640   3.0857   3.1159
  3.1315   3.1619   3.1730   3.2088   3.2509   3.2751   3.2783   3.3008
  3.3130   3.3439   3.3703   3.3940   3.4035   3.4146   3.4453   3.4601
  3.4666   3.4817   3.5138   3.5192   3.5515   3.5823   3.5976   3.6015
  3.6171   3.6273   3.6634   3.6691   3.6923   3.7102   3.7200   3.7301
  3.7422   3.7538   3.7617   3.7969   3.8298   3.8375   3.8543   3.8633
  3.8716   3.8880   3.8962   3.9292   3.9304   3.9609   3.9851   4.0174
  4.0263   4.0682   4.0712   4.0971   4.1148   4.1542   4.1904   4.2079
  4.2363   4.2680   4.2953   4.3045   4.3276   4.3389   4.3448   4.3725
  4.3890   4.3981   4.4045   4.4389   4.4566   4.4736   4.4897   4.5099
  4.5188   4.5622   4.5796   4.6057   4.6173   4.6255   4.6831   4.7024
  4.7321   4.7512   4.7749   4.8182   4.8742   4.9542   5.0172   5.0689
  5.1518   5.2058   5.2339   5.2686   5.2791   5.2917   5.3045   5.3285
  5.3342   5.3422   5.3573   5.3640   5.4041   5.4198   5.4472   5.4612
  5.4834   5.5079   5.5129   5.5336   5.5943   5.6101   5.6177   5.6311
  5.6552   5.6960   5.7253   5.7581   5.7794   5.8070   5.8278   5.8816
  5.9166   5.9525   5.9888   6.0097   6.0392   6.0595   6.1178   6.2552
  6.4773   6.5630   6.6282   6.6726   6.7239   6.7592   7.0250   7.1202
  7.1818   7.2826   7.2911   7.3207   7.3393   7.3833   7.4274   7.4348
  7.4623   7.5017   7.5198   7.6234   7.7149   7.7543   7.8382   7.8524
  7.8990   7.9275   8.2312  24.4886  24.7097  24.7322  24.7937  24.8876
 24.9449  50.5815  50.6368  50.6495  50.7037
 --------------------------------------------------------------
 
          Ground-State Mulliken Net Atomic Charges

     Atom                 Charge (a.u.)    Spin (a.u.)
  --------------------------------------------------------
      1 C                    -0.043859      -0.016297
      2 O                    -0.146844       0.039675
      3 O                    -0.122451       0.003124
      4 C                    -0.118735       0.015708
      5 O                    -0.432578      -0.001140
      6 C                    -0.226870      -0.005667
      7 C                    -0.221151       0.041382
      8 O                    -0.278106       0.074487
      9 C                    -0.144141      -0.013578
     10 C                    -0.308151       0.861850
     11 H                     0.296641       0.006925
     12 H                     0.289782      -0.001179
     13 H                     0.343660       0.000391
     14 H                     0.271307       0.000716
     15 H                     0.274342       0.001949
     16 H                     0.242872       0.009231
     17 H                     0.324280      -0.017576
  --------------------------------------------------------
  Sum of atomic charges =     0.000000
  Sum of spin   charges =     1.000000

 -----------------------------------------------------------------
                    Cartesian Multipole Moments
 -----------------------------------------------------------------
    Charge (ESU x 10^10)
                 0.0000
    Dipole Moment (Debye)
         X       0.6118      Y       0.9847      Z       1.5142
       Tot       1.9070
    Quadrupole Moments (Debye-Ang)
        XX     -55.5755     XY      11.5580     YY     -60.9090
        XZ      -1.9745     YZ      11.5454     ZZ     -52.6397
    Octopole Moments (Debye-Ang^2)
       XXX     -31.8490    XXY       6.7436    XYY     -12.6327
       YYY     -16.6249    XXZ     -17.2526    XYZ       6.9884
       YYZ     -24.0471    XZZ       3.6575    YZZ      12.3483
       ZZZ     -63.5114
    Hexadecapole Moments (Debye-Ang^3)
      XXXX    -417.6099   XXXY      75.6635   XXYY    -157.0705
      XYYY      67.5263   YYYY    -483.1109   XXXZ     -16.1188
      XXYZ       4.6595   XYYZ      -4.6552   YYYZ       5.6454
      XXZZ    -117.8796   XYZZ      24.6437   YYZZ    -150.7945
      XZZZ      35.8347   YZZZ      35.1476   ZZZZ    -418.4025
 -----------------------------------------------------------------
 Calculating analytic gradient of the SCF energy
 Gradient of CDS energy
            1           2           3           4           5           6
    1  -0.0001933   0.0001032  -0.0001140   0.0008195  -0.0009212  -0.0000019
    2   0.0002730   0.0000711  -0.0000263  -0.0014570   0.0013641   0.0002363
    3   0.0000469  -0.0000027   0.0000547   0.0017937  -0.0018313  -0.0000476
            7           8           9          10          11          12
    1   0.0004218  -0.0001073   0.0002093  -0.0003441  -0.0001925  -0.0000811
    2  -0.0000125   0.0000986  -0.0003988  -0.0003342   0.0000417   0.0002071
    3  -0.0001369   0.0000743  -0.0002369   0.0001110   0.0000828  -0.0000252
           13          14          15          16          17
    1   0.0002906   0.0001345   0.0001079  -0.0000022  -0.0001291
    2  -0.0000270   0.0001681   0.0000517  -0.0001198  -0.0001360
    3   0.0004156   0.0000020  -0.0001521  -0.0001512   0.0000028
 Gradient of SCF Energy
            1           2           3           4           5           6
    1   0.0031290  -0.0023100   0.0000090   0.0038343  -0.0083110  -0.0138241
    2   0.0037345   0.0010957   0.0021421  -0.0106270  -0.0147826  -0.0025237
    3  -0.0081910  -0.0014316  -0.0012331  -0.0014675  -0.0075576  -0.0063594
            7           8           9          10          11          12
    1   0.0008097   0.0014254   0.0003245   0.0051322  -0.0054892  -0.0006049
    2  -0.0012117  -0.0043048   0.0031669   0.0030195  -0.0002060   0.0078627
    3   0.0063066   0.0019968   0.0027340   0.0036519   0.0039999   0.0059812
           13          14          15          16          17
    1   0.0090362   0.0088117   0.0037071  -0.0007526  -0.0049274
    2   0.0119143   0.0065286   0.0018038  -0.0029695  -0.0046427
    3   0.0080159   0.0025243  -0.0047971  -0.0040836  -0.0000895
 Max gradient component =       1.478E-02
 RMS gradient           =       5.638E-03
 Computing fast CPCM-SWIG gradient
 Updating gradient with PCM contributions...
 -- total gradient after adding PCM contribution --
---------------------------------------------------
  Atom         X              Y              Z     
---------------------------------------------------
   1      -0.001145      -0.000089       0.000292
   2       0.000128      -0.000047       0.000023
   3       0.000031       0.000042      -0.000050
   4       0.000237       0.000111       0.000018
   5       0.000015      -0.000001       0.000028
   6       0.000081       0.000055       0.000001
   7      -0.000002      -0.000033       0.000029
   8       0.000078       0.000011       0.000056
   9      -0.000094      -0.000026      -0.000085
  10       0.000186      -0.000012      -0.000078
  11       0.000457      -0.000030      -0.000274
  12      -0.000016      -0.000012      -0.000013
  13      -0.000011      -0.000005      -0.000002
  14      -0.000003       0.000000      -0.000003
  15       0.000001       0.000009       0.000017
  16       0.000040       0.000009       0.000008
  17       0.000014       0.000018       0.000033
---------------------------------------------------
 Number of fixed atoms: 0
 Gradient time:  CPU 357.75 s  wall 27.84 s
 ----------------------------------------------------------------
             Standard Nuclear Orientation (Angstroms)
    I     Atom           X                Y                Z
 ----------------------------------------------------------------
    1      C      -1.1170613374     0.1533573205     0.8966375857
    2      O      -1.3179571462     1.1078482845    -0.1818832667
    3      O      -0.0210660090     1.7570395897    -0.4405765917
    4      C       0.1053878512     0.7439502289     1.5895595307
    5      O       0.6319348056    -0.1239707648     2.5626672089
    6      C       0.9318189846     1.0277260477     0.3303832178
    7      C       1.3234246525    -0.1979349610    -0.4708674913
    8      O       1.6533304896    -1.3803364189     0.2445245938
    9      C       0.3773374675    -1.3223874023    -0.4836195547
   10      C      -0.8418567471    -1.1850765156     0.3095690843
   11      H      -2.0183744544     0.1912886864     1.5009370126
   12      H      -0.1614453926     1.7049249315     2.0294065564
   13      H       1.2441342314     0.3791544216     3.1099729876
   14      H       1.7640499265     1.7066670383     0.5024068414
   15      H       1.9319028887    -0.0029246966    -1.3460299488
   16      H       0.3649624956    -1.9936378436    -1.3312090354
   17      H      -1.5846568063    -1.9671608466     0.3256583695
 ----------------------------------------------------------------
 Nuclear Repulsion Energy =         585.45235150 hartrees
 There are       38 alpha and       37 beta electrons
 Discretize the solute cavity surface with Lebedev spheres
	Using 110 Lebedev grid points for each H atom
	Using 194 Lebedev grid points for other atoms
	Atomic van der Waals radii will be scaled by 1.20
 Remove points where switching function is < 1.0e-08
 Keep 1245 surface tesserae and discard 1465 interior tesserae
 Molecular Surface Area = 140.875 Angst**2
 Requested basis set is 6-311++G(2df,2p)
 There are 122 shells and 410 basis functions
 A cutoff of  1.0D-12 yielded   7020 shell pairs
 There are     80592 function pairs (    101617 Cartesian)
 Smallest overlap matrix eigenvalue = 4.90E-06
 Guess MOs from SCF MO coefficient file

 -----------------------------------------------------------------------
  General SCF calculation program by
  Eric Jon Sundstrom, Paul Horn, Yuezhi Mao, Dmitri Zuev, Alec White,
  David Stuck, Shaama M.S., Shane Yost, Joonho Lee, David Small,
  Daniel Levine, Susi Lehtola, Hugh Burton, Evgeny Epifanovsky,
  Bang C. Huynh
 -----------------------------------------------------------------------
 Exchange:     0.1500 Hartree-Fock + 1.0000 wB97M-V + LR-HF
 Correlation:  1.0000 wB97M-V
 Using SG-2 standard quadrature grid
 Nonlocal Correlation:  VV10 with C = 0.0100 and b = 6.00 and scale = 1.00000
 Grid used for NLC:  SG-1 standard quadrature
 
 Citation of the SMD model:
 Marenich, A.V.; Cramer, C.J.; Truhlar, D.G.
 J. Phys. Chem. B 2009, 113, 6378-6396.
 iSolventCode=           1
 Solvent: water                                                           
 
 vradii
            1           2           3           4           5           6
    1   1.8500000   1.5200000   1.5200000   1.8500000   1.5200000   1.8500000
            7           8           9          10          11          12
    1   1.8500000   1.5200000   1.8500000   1.8500000   1.2000000   1.2000000
           13          14          15          16          17
    1   1.2000000   1.2000000   1.2000000   1.2000000   1.2000000
 -------------------------------------------------------
 OpenMP BLAS3 based DFT computing Module                
 Release: version 1.0, May 2013, Q-Chem Inc. Pittsburgh 
 -------------------------------------------------------
 A unrestricted SCF calculation will be
 performed using Roothaan-Hall, DIIS, GDM
 SCF converges when RMS gradient is below 1.0e-07
 ---------------------------------------
  Cycle       Energy         DIIS error
 ---------------------------------------
    1    -533.5280828940      2.17e-04  Roothaan Step
 ---------------------------------------
  Cycle       Energy         DIIS error
 ---------------------------------------
    1    -533.5570813761      2.47e-04  
    2    -533.5619409904      2.17e-04  Done DIIS. Switching to GDM
 ---------------------------------------
  Cycle       Energy        RMS Gradient
 ---------------------------------------
    1    -533.5619409904      6.22e-03   Normal BFGS step
    2    -533.5616250843      8.74e-03  Line search: overstep
    3    -533.5645181893      1.67e-03   Normal BFGS step
    4    -533.5646631900      5.19e-04   Normal BFGS step
    5    -533.5646956877      2.60e-04   Normal BFGS step
    6    -533.5646992861      1.40e-04   Normal BFGS step
    7    -533.5647001656      8.33e-05   Normal BFGS step
    8    -533.5647003211      6.17e-05   Normal BFGS step
    9    -533.5647003498      2.97e-05   Normal BFGS step
   10    -533.5647003591      1.81e-05   Normal BFGS step
   11    -533.5647003608      8.41e-06   Normal BFGS step
   12    -533.5647003612      1.80e-06   Normal BFGS step
   13    -533.5647003613      1.21e-06   Normal BFGS step
   14    -533.5647003613      5.54e-07   Normal BFGS step
   15    -533.5647003613      2.94e-07   Normal BFGS step
   16    -533.5647003613      1.42e-07   Normal BFGS step
   17    -533.5647003613      7.77e-08  Convergence criterion met
 ---------------------------------------
 SCF time:   CPU 2186.04s  wall 147.00s 
<S^2> =          0.755074056
(3)  G-ENP(liq) elect-nuc-pol free energy of system     -533.564700361 a.u.
(4)  G-CDS(liq) cavity-dispersion-solvent structure 
     free energy                                                2.2447 kcal/mol
(6)  G-S(liq) free energy of system                     -533.561123198 a.u.
 SCF   energy in the final basis set =     -533.5611231983
 Total energy in the final basis set =     -533.5611231983
 
 --------------------------------------------------------------
 
                    Orbital Energies (a.u.)
 --------------------------------------------------------------
 
 Alpha MOs
 -- Occupied --
-19.4050 -19.4032 -19.3602 -19.3485 -10.4102 -10.4089 -10.4079 -10.4043
-10.4037 -10.3675  -1.2710  -1.2142  -1.1714  -1.0703  -0.9461  -0.8700
 -0.8250  -0.7612  -0.7274  -0.7023  -0.6686  -0.6370  -0.6113  -0.5851
 -0.5767  -0.5632  -0.5500  -0.5315  -0.5043  -0.4974  -0.4865  -0.4628
 -0.4536  -0.4205  -0.4066  -0.3924  -0.3589  -0.3148
 -- Virtual --
  0.0249   0.0359   0.0372   0.0464   0.0569   0.0590   0.0701   0.0860
  0.0878   0.0959   0.1145   0.1246   0.1337   0.1362   0.1373   0.1408
  0.1448   0.1491   0.1539   0.1574   0.1607   0.1650   0.1716   0.1821
  0.1883   0.1909   0.1935   0.1991   0.2089   0.2260   0.2306   0.2381
  0.2424   0.2464   0.2568   0.2710   0.2831   0.2937   0.2990   0.3087
  0.3160   0.3212   0.3298   0.3350   0.3458   0.3502   0.3602   0.3655
  0.3697   0.3725   0.3817   0.3859   0.3900   0.3973   0.3988   0.4013
  0.4110   0.4163   0.4247   0.4310   0.4373   0.4620   0.4657   0.4810
  0.4931   0.5046   0.5391   0.5456   0.5903   0.5960   0.6075   0.6129
  0.6303   0.6421   0.6539   0.6631   0.6686   0.6773   0.6879   0.6955
  0.7096   0.7173   0.7279   0.7290   0.7421   0.7482   0.7586   0.7677
  0.7830   0.7917   0.8095   0.8298   0.8407   0.8545   0.8783   0.9126
  0.9333   0.9438   0.9570   0.9967   1.0338   1.0439   1.0499   1.0812
  1.0854   1.1158   1.1232   1.1398   1.1420   1.1600   1.1682   1.1818
  1.1906   1.2062   1.2083   1.2189   1.2261   1.2386   1.2524   1.2558
  1.2700   1.2773   1.2915   1.2963   1.3101   1.3164   1.3204   1.3316
  1.3375   1.3488   1.3608   1.3815   1.3959   1.4025   1.4129   1.4164
  1.4350   1.4756   1.4784   1.4929   1.5046   1.5218   1.5262   1.5504
  1.5527   1.5771   1.5839   1.6061   1.6245   1.6374   1.6561   1.6666
  1.7058   1.7109   1.7424   1.7723   1.8053   1.8140   1.8319   1.8512
  1.8929   1.9094   1.9389   1.9513   1.9928   2.0073   2.0506   2.0777
  2.0978   2.1062   2.1533   2.1657   2.1838   2.2478   2.2626   2.2668
  2.3121   2.3393   2.3830   2.4070   2.4301   2.4507   2.5307   2.6321
  2.6657   2.7037   2.7119   2.7301   2.7630   2.7911   2.8034   2.8269
  2.8488   2.8557   2.8794   2.8960   2.9018   2.9165   2.9388   2.9734
  2.9838   3.0155   3.0304   3.0349   3.0492   3.0753   3.1115   3.1248
  3.1527   3.1657   3.1938   3.2437   3.2630   3.2667   3.2948   3.3037
  3.3390   3.3552   3.3815   3.3920   3.4002   3.4328   3.4419   3.4564
  3.4698   3.5062   3.5138   3.5414   3.5738   3.5855   3.5918   3.6061
  3.6167   3.6525   3.6612   3.6761   3.6986   3.7123   3.7182   3.7367
  3.7460   3.7567   3.7892   3.8244   3.8297   3.8462   3.8563   3.8645
  3.8843   3.8920   3.9225   3.9229   3.9558   3.9757   4.0097   4.0209
  4.0607   4.0638   4.0854   4.1047   4.1415   4.1855   4.1984   4.2259
  4.2607   4.2853   4.3008   4.3223   4.3306   4.3368   4.3657   4.3843
  4.3861   4.3972   4.4276   4.4473   4.4652   4.4803   4.4985   4.5123
  4.5514   4.5710   4.5950   4.6099   4.6199   4.6807   4.6968   4.7256
  4.7443   4.7717   4.8103   4.8682   4.9400   5.0013   5.0624   5.1421
  5.1899   5.2268   5.2660   5.2751   5.2898   5.3017   5.3223   5.3286
  5.3403   5.3538   5.3607   5.4021   5.4114   5.4452   5.4546   5.4803
  5.5046   5.5108   5.5218   5.5883   5.6070   5.6103   5.6292   5.6373
  5.6946   5.7156   5.7537   5.7689   5.8003   5.8181   5.8788   5.9083
  5.9490   5.9777   6.0058   6.0346   6.0581   6.1163   6.2532   6.4692
  6.5599   6.6256   6.6718   6.7221   6.7583   7.0227   7.1195   7.1736
  7.2759   7.2868   7.3187   7.3391   7.3800   7.4245   7.4337   7.4594
  7.4963   7.5179   7.6203   7.7147   7.7446   7.8332   7.8483   7.8958
  7.9249   8.2298  24.4830  24.7077  24.7319  24.7947  24.8858  24.9413
 50.5805  50.6363  50.6489  50.7019
 
 Beta MOs
 -- Occupied --
-19.4050 -19.4011 -19.3572 -19.3484 -10.4098 -10.4096 -10.4079 -10.4053
-10.4032 -10.3551  -1.2689  -1.2087  -1.1710  -1.0674  -0.9387  -0.8561
 -0.8220  -0.7573  -0.7233  -0.6982  -0.6633  -0.6334  -0.6073  -0.5795
 -0.5742  -0.5586  -0.5429  -0.5253  -0.4993  -0.4935  -0.4819  -0.4596
 -0.4475  -0.4129  -0.4044  -0.3883  -0.3551
 -- Virtual --
 -0.0180   0.0249   0.0357   0.0368   0.0476   0.0568   0.0588   0.0720
  0.0872   0.0913   0.0960   0.1142   0.1241   0.1331   0.1358   0.1367
  0.1422   0.1447   0.1486   0.1541   0.1577   0.1605   0.1649   0.1715
  0.1831   0.1880   0.1902   0.1951   0.1992   0.2094   0.2256   0.2306
  0.2372   0.2423   0.2464   0.2639   0.2735   0.2844   0.2946   0.3017
  0.3106   0.3163   0.3226   0.3306   0.3413   0.3469   0.3518   0.3603
  0.3666   0.3716   0.3738   0.3830   0.3863   0.3904   0.3979   0.4001
  0.4022   0.4113   0.4183   0.4259   0.4302   0.4404   0.4642   0.4690
  0.4838   0.4931   0.5057   0.5412   0.5475   0.5996   0.6004   0.6105
  0.6183   0.6310   0.6442   0.6551   0.6691   0.6746   0.6795   0.6911
  0.6966   0.7126   0.7208   0.7281   0.7314   0.7441   0.7542   0.7608
  0.7741   0.7855   0.7924   0.8152   0.8353   0.8425   0.8583   0.8818
  0.9134   0.9355   0.9446   0.9580   0.9992   1.0354   1.0462   1.0516
  1.0812   1.0871   1.1173   1.1275   1.1417   1.1449   1.1619   1.1689
  1.1831   1.1927   1.2088   1.2109   1.2230   1.2279   1.2428   1.2545
  1.2568   1.2709   1.2821   1.2928   1.2983   1.3127   1.3188   1.3220
  1.3332   1.3405   1.3504   1.3631   1.3849   1.3994   1.4052   1.4159
  1.4217   1.4400   1.4779   1.4819   1.4961   1.5078   1.5246   1.5303
  1.5533   1.5557   1.5823   1.5900   1.6094   1.6255   1.6402   1.6619
  1.6692   1.7090   1.7201   1.7461   1.7755   1.8077   1.8183   1.8343
  1.8548   1.8977   1.9126   1.9410   1.9537   1.9962   2.0111   2.0523
  2.0806   2.1005   2.1096   2.1594   2.1701   2.1873   2.2498   2.2664
  2.2692   2.3137   2.3410   2.3854   2.4096   2.4328   2.4522   2.5331
  2.6411   2.6783   2.7068   2.7150   2.7338   2.7673   2.7974   2.8155
  2.8397   2.8574   2.8664   2.8907   2.9032   2.9202   2.9290   2.9748
  2.9914   3.0140   3.0276   3.0397   3.0500   3.0641   3.0857   3.1162
  3.1315   3.1618   3.1731   3.2088   3.2510   3.2750   3.2783   3.3009
  3.3129   3.3438   3.3703   3.3940   3.4035   3.4147   3.4454   3.4600
  3.4666   3.4819   3.5138   3.5192   3.5515   3.5825   3.5976   3.6017
  3.6169   3.6273   3.6635   3.6690   3.6924   3.7102   3.7201   3.7303
  3.7423   3.7538   3.7615   3.7970   3.8299   3.8376   3.8543   3.8635
  3.8718   3.8880   3.8964   3.9291   3.9305   3.9610   3.9852   4.0176
  4.0263   4.0684   4.0714   4.0974   4.1147   4.1544   4.1902   4.2077
  4.2362   4.2680   4.2953   4.3045   4.3276   4.3387   4.3450   4.3726
  4.3891   4.3980   4.4045   4.4383   4.4566   4.4738   4.4894   4.5098
  4.5188   4.5623   4.5794   4.6056   4.6174   4.6256   4.6830   4.7022
  4.7319   4.7514   4.7749   4.8180   4.8741   4.9540   5.0170   5.0686
  5.1519   5.2063   5.2339   5.2686   5.2791   5.2918   5.3044   5.3285
  5.3341   5.3423   5.3573   5.3640   5.4043   5.4198   5.4473   5.4613
  5.4835   5.5080   5.5129   5.5337   5.5941   5.6103   5.6178   5.6312
  5.6550   5.6960   5.7255   5.7583   5.7794   5.8070   5.8278   5.8814
  5.9166   5.9526   5.9887   6.0097   6.0391   6.0595   6.1180   6.2550
  6.4773   6.5646   6.6282   6.6726   6.7239   6.7593   7.0250   7.1202
  7.1818   7.2827   7.2912   7.3208   7.3394   7.3834   7.4276   7.4349
  7.4622   7.5017   7.5197   7.6237   7.7150   7.7543   7.8383   7.8524
  7.8991   7.9276   8.2312  24.4885  24.7098  24.7320  24.7950  24.8875
[...]
 Frequency:       936.35                 990.53                1012.75
 Force Cnst:      2.8047                 2.7814                 2.0594
 Red. Mass:       5.4294                 4.8115                 3.4079
 IR Active:          YES                    YES                    YES
 IR Intens:      104.728                 31.466                  2.163
 Raman Active:       YES                    YES                    YES
               X      Y      Z        X      Y      Z        X      Y      Z
 C         -0.160  0.296 -0.220   -0.226  0.054  0.187   -0.115 -0.093  0.010
 O          0.009 -0.248  0.254    0.036  0.038 -0.049   -0.010 -0.005  0.003
 O          0.089  0.071 -0.041   -0.049 -0.070  0.013    0.151 -0.059  0.099
 C          0.014 -0.065 -0.041   -0.015 -0.121 -0.107    0.044 -0.009 -0.039
 O          0.017 -0.012  0.045   -0.010 -0.006  0.008   -0.002 -0.010  0.025
 C         -0.047  0.020 -0.085    0.241  0.240  0.079   -0.088  0.092 -0.201
 C         -0.072  0.050  0.052   -0.122 -0.010 -0.016   -0.013 -0.013  0.201
 O          0.013 -0.019  0.011    0.038 -0.030  0.068   -0.029  0.061 -0.094
 C          0.090 -0.060 -0.064    0.025 -0.138 -0.192   -0.055 -0.038  0.043
 C         -0.019 -0.035  0.033    0.086  0.047  0.016    0.096  0.104 -0.026
 H         -0.174  0.475 -0.221   -0.170  0.159  0.276   -0.200 -0.263 -0.103
 H          0.312  0.003 -0.011   -0.029 -0.174  0.004   -0.001 -0.031 -0.021
 H          0.015  0.139 -0.086   -0.051  0.268 -0.193    0.014 -0.039  0.035
 H         -0.008 -0.072  0.096    0.151  0.372  0.045   -0.056  0.178 -0.646
 H          0.047  0.080  0.147   -0.255 -0.174 -0.146    0.061  0.004  0.262
 H          0.190  0.211 -0.289    0.104 -0.229 -0.135   -0.194 -0.192  0.173
 H         -0.096  0.028 -0.044    0.129  0.000 -0.100    0.201  0.014 -0.084
 TransDip  -0.048  0.279 -0.165   -0.081  0.131 -0.092   -0.031 -0.035 -0.002

 Mode:                22                     23                     24
 Frequency:      1026.37                1043.21                1075.49
 Force Cnst:      1.6953                 1.0182                 0.9772
 Red. Mass:       2.7315                 1.5880                 1.4339
 IR Active:          YES                    YES                    YES
 IR Intens:       72.007                 27.205                  5.666
 Raman Active:       YES                    YES                    YES
               X      Y      Z        X      Y      Z        X      Y      Z
 C          0.100  0.038  0.006    0.011 -0.020  0.022    0.011  0.041  0.024
 O         -0.058  0.019 -0.042   -0.007 -0.001 -0.004    0.006  0.004 -0.005
 O          0.143 -0.094  0.103   -0.026  0.020 -0.004    0.014 -0.003  0.007
 C         -0.056 -0.027  0.023   -0.076 -0.002  0.031    0.028 -0.002 -0.014
 O         -0.002 -0.007  0.004    0.008 -0.011 -0.001   -0.006  0.007  0.002
 C         -0.144  0.108 -0.085    0.090 -0.046 -0.048   -0.085  0.030 -0.001
 C         -0.002  0.025 -0.111    0.052 -0.048  0.068    0.092 -0.060  0.051
 O          0.035 -0.050  0.064   -0.025  0.078 -0.026   -0.036  0.034 -0.021
 C          0.061  0.000 -0.054    0.045 -0.078  0.013   -0.038 -0.022  0.015
 C         -0.077 -0.028  0.046   -0.020  0.043  0.016    0.048 -0.035 -0.048
 H          0.328  0.185  0.329   -0.096 -0.159 -0.126    0.007  0.060  0.016
 H         -0.343 -0.144  0.110   -0.096 -0.011  0.036    0.275  0.075 -0.034
 H         -0.014  0.095 -0.074   -0.015  0.067 -0.046    0.002 -0.020  0.017
 H         -0.271  0.283 -0.129    0.113 -0.044 -0.157   -0.312  0.181  0.488
 H         -0.022 -0.069 -0.152   -0.189 -0.220 -0.142   -0.474 -0.271 -0.397
 H          0.127  0.218 -0.234    0.088  0.550 -0.491    0.028  0.036 -0.032
 H         -0.269  0.151  0.189   -0.229  0.248  0.271    0.149 -0.133 -0.093
 TransDip  -0.173  0.182 -0.105    0.105 -0.124 -0.038    0.030 -0.030  0.063

 Mode:                25                     26                     27
 Frequency:      1101.34                1163.22                1192.68
 Force Cnst:      0.9954                 0.9943                 1.1980
 Red. Mass:       1.3929                 1.2472                 1.4295
 IR Active:          YES                    YES                    YES
 IR Intens:        4.785                  2.927                 33.051
 Raman Active:       YES                    YES                    YES
               X      Y      Z        X      Y      Z        X      Y      Z
 C          0.022  0.093  0.006   -0.001  0.005 -0.009    0.096  0.042  0.053
 O          0.002 -0.003 -0.004    0.003  0.004 -0.004   -0.031  0.007 -0.014
 O         -0.016  0.016 -0.006   -0.002 -0.015  0.003    0.009 -0.018  0.017
 C         -0.072 -0.013  0.030    0.016  0.007 -0.002   -0.065 -0.024  0.037
 O          0.005 -0.015  0.002    0.001  0.006  0.001   -0.022 -0.024 -0.012
 C          0.029 -0.050 -0.003   -0.009  0.034  0.016    0.038  0.021 -0.048
 C          0.020 -0.045  0.045   -0.053 -0.043 -0.054   -0.033  0.029  0.005
 O         -0.033  0.033 -0.038    0.028  0.041 -0.000    0.010 -0.009 -0.009
 C          0.001  0.019  0.036   -0.029 -0.058  0.056   -0.031  0.022  0.033
 C          0.032 -0.042 -0.036    0.021  0.012 -0.023    0.001 -0.059 -0.042
 H          0.294  0.331  0.394    0.057  0.046  0.073   -0.112 -0.116 -0.249
 H         -0.340 -0.130  0.124   -0.037 -0.005 -0.004    0.529  0.053  0.223
 H         -0.032  0.169 -0.121    0.021 -0.079  0.055   -0.146  0.551 -0.390
 H          0.127 -0.077 -0.370   -0.063  0.041  0.250    0.038  0.002  0.033
 H         -0.082 -0.033 -0.022    0.471 -0.267  0.264    0.173 -0.070  0.130
 H          0.024 -0.022  0.072   -0.459  0.374 -0.284   -0.005 -0.027  0.076
 H          0.300 -0.303 -0.262    0.206 -0.165 -0.163   -0.001 -0.058  0.010
 TransDip   0.066  0.014  0.017    0.005 -0.005  0.054   -0.081  0.150 -0.070

 Mode:                28                     29                     30
 Frequency:      1241.79                1263.21                1280.67
 Force Cnst:      1.3589                 1.2534                 1.7258
 Red. Mass:       1.4957                 1.3332                 1.7860
 IR Active:          YES                    YES                    YES
 IR Intens:       11.869                 10.090                 64.631
 Raman Active:       YES                    YES                    YES
               X      Y      Z        X      Y      Z        X      Y      Z
 C          0.056  0.023  0.033   -0.078 -0.003 -0.074    0.007  0.012 -0.008
 O         -0.028  0.008 -0.013    0.052  0.008 -0.003    0.008  0.006 -0.003
 O         -0.020 -0.041  0.034   -0.014 -0.007 -0.004   -0.015 -0.018  0.021
 C         -0.050  0.012 -0.010   -0.049  0.058 -0.009   -0.105  0.087 -0.041
 O          0.025 -0.011  0.021    0.020 -0.035  0.032    0.043 -0.074  0.059
 C          0.045  0.041 -0.121   -0.000  0.008 -0.019    0.052 -0.003 -0.107
 C         -0.060  0.008  0.054   -0.035 -0.008  0.007    0.052  0.077  0.018
 O         -0.003 -0.002 -0.039    0.000  0.001 -0.025    0.010 -0.021  0.053
 C          0.020  0.045 -0.003    0.003  0.039  0.011   -0.028 -0.065 -0.015
 C         -0.003 -0.007 -0.001    0.008 -0.005  0.008    0.007 -0.020 -0.023
 H         -0.084  0.262 -0.196    0.333 -0.473  0.573    0.112 -0.020  0.150
 H         -0.287  0.033 -0.193    0.242  0.131  0.014    0.009  0.210 -0.234
 H          0.071 -0.250  0.185    0.004  0.053 -0.024    0.018  0.017  0.013
 H          0.199 -0.303  0.480    0.005 -0.043  0.138    0.059 -0.094  0.232
 H          0.100 -0.308  0.107    0.119 -0.278  0.061   -0.206  0.588 -0.062
 H          0.331 -0.124  0.135    0.279 -0.027  0.067   -0.580 -0.018 -0.059
 H          0.004 -0.013 -0.002   -0.115  0.113  0.069    0.011 -0.027  0.001
 TransDip  -0.016 -0.020  0.107   -0.032  0.093 -0.024   -0.113  0.134 -0.189

 Mode:                31                     32                     33
 Frequency:      1302.15                1326.95                1332.88
 Force Cnst:      1.3322                 2.8648                 1.3259
 Red. Mass:       1.3336                 2.7615                 1.2667
 IR Active:          YES                    YES                    YES
 IR Intens:        1.332                155.902                  1.785
 Raman Active:       YES                    YES                    YES
               X      Y      Z        X      Y      Z        X      Y      Z
 C          0.036  0.042  0.033    0.003 -0.062  0.021   -0.005 -0.091 -0.028
 O         -0.007 -0.005  0.003   -0.004 -0.007  0.020   -0.007  0.000  0.008
 O          0.019  0.029 -0.009    0.013  0.001  0.002    0.001  0.003 -0.004
 C         -0.088 -0.019 -0.004    0.047  0.202 -0.166   -0.043  0.005  0.015
 O          0.029 -0.017  0.010    0.032 -0.162  0.096    0.007 -0.011  0.002
 C          0.057 -0.074  0.025   -0.069  0.025  0.102   -0.022  0.007  0.050
 C         -0.047  0.019 -0.004   -0.003 -0.106 -0.048   -0.006  0.032  0.028
 O          0.008 -0.006 -0.004   -0.014  0.018 -0.016    0.006  0.011 -0.004
 C         -0.031  0.002  0.011    0.019  0.023  0.013    0.067  0.025 -0.036
 C          0.015 -0.016 -0.015   -0.021  0.038  0.025    0.009 -0.001 -0.016
 H         -0.036 -0.024 -0.068   -0.170  0.198 -0.258    0.085  0.537  0.059
 H          0.025  0.245 -0.505   -0.286  0.156 -0.255    0.297  0.186 -0.173
 H          0.048 -0.171  0.127   -0.120  0.538 -0.339   -0.003  0.017 -0.010
 H         -0.419  0.571 -0.212   -0.012 -0.005 -0.057    0.096 -0.073 -0.203
 H          0.105 -0.068  0.091    0.053  0.008  0.014   -0.025 -0.454 -0.085
 H          0.172 -0.014  0.026    0.312  0.100 -0.043   -0.404 -0.136  0.093
 H          0.015 -0.014 -0.004    0.078 -0.053 -0.068   -0.144  0.151  0.143
 TransDip  -0.024  0.001  0.028   -0.099  0.205 -0.329    0.035 -0.025  0.003

 Mode:                34                     35                     36
 Frequency:      1370.57                1392.90                1396.81
 Force Cnst:      1.9290                 2.1190                 1.8906
 Red. Mass:       1.7430                 1.8537                 1.6447
 IR Active:          YES                    YES                    YES
 IR Intens:       19.402                  5.907                  3.103
 Raman Active:       YES                    YES                    YES
               X      Y      Z        X      Y      Z        X      Y      Z
 C          0.016  0.146  0.061   -0.068  0.041  0.050   -0.013 -0.047 -0.001
 O         -0.000 -0.007 -0.007    0.008 -0.000  0.002   -0.007  0.005 -0.001
 O          0.008 -0.014 -0.001   -0.002  0.011 -0.004   -0.000 -0.013  0.007
 C         -0.010 -0.046 -0.053    0.059  0.050 -0.051   -0.069 -0.040 -0.020
 O          0.014 -0.007  0.011   -0.003 -0.008  0.013    0.009  0.021  0.003
 C         -0.084  0.080  0.090    0.021 -0.069 -0.018   -0.018  0.086  0.027
 C          0.051  0.026 -0.021   -0.020  0.011 -0.002    0.028 -0.077 -0.056
 O          0.001 -0.002  0.004   -0.003 -0.000 -0.005   -0.010 -0.003 -0.003
 C         -0.015  0.008  0.020   -0.024  0.049  0.052   -0.104 -0.009  0.080
 C          0.018 -0.084 -0.045    0.129 -0.124 -0.124    0.094 -0.012 -0.053
 H         -0.118 -0.485 -0.087   -0.087  0.141  0.028    0.065  0.415  0.079
 H         -0.104  0.090 -0.390   -0.348 -0.232  0.307    0.364  0.082 -0.029
 H          0.034 -0.119  0.091   -0.008  0.047 -0.028    0.054 -0.186  0.134
 H          0.366 -0.365 -0.324   -0.195  0.155  0.117    0.198 -0.135 -0.114
 H          0.019 -0.219 -0.106    0.077 -0.040  0.061    0.086  0.444  0.082
 H         -0.180  0.019  0.010   -0.196 -0.016  0.117    0.419  0.222 -0.093
 H         -0.101  0.020  0.083   -0.412  0.403  0.388   -0.079  0.172  0.120
 TransDip  -0.057  0.122 -0.041   -0.058  0.051  0.001    0.030  0.013  0.046

 Mode:                37                     38                     39
 Frequency:      1454.64                1478.37                3091.11
 Force Cnst:      3.5630                 2.7792                 6.1162
 Red. Mass:       2.8580                 2.1582                 1.0864
 IR Active:          YES                    YES                    YES
 IR Intens:       20.364                 56.366                 32.870
 Raman Active:       YES                    YES                    YES
               X      Y      Z        X      Y      Z        X      Y      Z
 C         -0.060 -0.043 -0.023   -0.039  0.010 -0.015   -0.004  0.000  0.003
 O          0.005  0.005 -0.003    0.003  0.004 -0.009   -0.000 -0.000 -0.000
 O         -0.005  0.001 -0.009   -0.008 -0.002 -0.004    0.000  0.000 -0.000
 C          0.113  0.003  0.150    0.092 -0.064  0.188    0.019 -0.073 -0.036
 O         -0.024 -0.023 -0.038   -0.027 -0.005 -0.052    0.001  0.001  0.001
 C         -0.024 -0.041 -0.027    0.012  0.063 -0.035    0.005  0.003  0.001
 C          0.063  0.230 -0.009   -0.034 -0.164  0.002    0.000  0.000  0.000
 O          0.037 -0.051  0.028   -0.026  0.029 -0.019    0.000 -0.000 -0.000
 C         -0.194 -0.114  0.025    0.089  0.068  0.009   -0.000 -0.000 -0.000
 C          0.069  0.028 -0.018    0.008 -0.033 -0.015    0.000  0.000  0.000
 H          0.026  0.187  0.096    0.023 -0.044  0.097    0.050 -0.001 -0.037
 H         -0.312  0.161 -0.409   -0.180  0.268 -0.637   -0.236  0.868  0.415
 H         -0.108  0.331 -0.254   -0.097  0.265 -0.212   -0.003 -0.005  0.003
 H          0.074 -0.173  0.026   -0.001  0.035  0.186   -0.065 -0.050 -0.015
 H          0.083 -0.297 -0.118   -0.039  0.360  0.113   -0.003 -0.001  0.004
 H          0.366  0.086 -0.144   -0.157  0.000  0.073    0.000  0.001  0.002
 H          0.068  0.040 -0.023   -0.141  0.107  0.104    0.001  0.001 -0.000
 TransDip  -0.044  0.119  0.070    0.095 -0.055  0.214    0.058 -0.171 -0.034

 Mode:                40                     41                     42
 Frequency:      3135.20                3152.59                3168.04
 Force Cnst:      6.2993                 6.3786                 6.4468
 Red. Mass:       1.0877                 1.0893                 1.0902
 IR Active:          YES                    YES                    YES
 IR Intens:        5.769                  9.264                 20.220
 Raman Active:       YES                    YES                    YES
               X      Y      Z        X      Y      Z        X      Y      Z
 C         -0.007  0.001  0.005   -0.071  0.005  0.046   -0.003  0.000  0.002
 O          0.001  0.000  0.000   -0.000 -0.001  0.001   -0.000 -0.000  0.000
 O         -0.001  0.000 -0.001    0.001  0.001 -0.000    0.000 -0.000  0.000
 C          0.002 -0.005 -0.004   -0.001  0.005  0.003   -0.001  0.001  0.001
 O          0.000 -0.000  0.000   -0.000 -0.000 -0.000    0.000  0.000 -0.000
 C         -0.064 -0.053 -0.013    0.007  0.006  0.001    0.008  0.009  0.002
 C          0.006  0.003 -0.009   -0.003 -0.001  0.004    0.049  0.013 -0.068
 O          0.000 -0.000  0.000   -0.000  0.000 -0.000    0.000  0.001  0.001
 C         -0.000  0.000 -0.000    0.001 -0.000 -0.000   -0.003  0.007  0.010
 C          0.000 -0.000 -0.000    0.004  0.003 -0.001    0.000 -0.001 -0.000
 H          0.091 -0.005 -0.061    0.818 -0.040 -0.549    0.035 -0.002 -0.023
 H         -0.018  0.064  0.033    0.015 -0.060 -0.031    0.005 -0.016 -0.008
 H          0.000 -0.000  0.002    0.000  0.001 -0.001   -0.000 -0.000 -0.001
 H          0.749  0.610  0.157   -0.074 -0.060 -0.015   -0.099 -0.086 -0.022
 H         -0.074 -0.025  0.106    0.032  0.010 -0.046   -0.553 -0.164  0.785
 H         -0.000  0.001  0.001   -0.000  0.002  0.003   -0.000 -0.094 -0.124
 H         -0.001 -0.001  0.000   -0.041 -0.040  0.003   -0.001  0.001  0.000
 TransDip  -0.047 -0.050 -0.035   -0.064  0.024  0.070    0.068  0.080 -0.099

 Mode:                43                     44                     45
 Frequency:      3192.47                3235.43                3833.57
 Force Cnst:      6.5507                 6.7338                 9.2388
 Red. Mass:       1.0909                 1.0918                 1.0670
 IR Active:          YES                    YES                    YES
 IR Intens:       13.066                  6.126                155.466
 Raman Active:       YES                    YES                    YES
               X      Y      Z        X      Y      Z        X      Y      Z
 C          0.000  0.000 -0.000   -0.004  0.003  0.003    0.000 -0.000  0.000
 O         -0.000 -0.000  0.000   -0.000  0.000 -0.000    0.000 -0.000  0.000
 O          0.000 -0.000  0.000    0.000 -0.000 -0.000   -0.000 -0.000  0.000
 C         -0.000  0.000  0.000    0.000  0.001  0.001   -0.000 -0.002  0.000
 O          0.000 -0.000 -0.000   -0.000  0.000 -0.000   -0.040 -0.031 -0.037
 C          0.002  0.002  0.001    0.000  0.001  0.000    0.000 -0.000 -0.000
 C          0.009  0.005 -0.011    0.001  0.001 -0.001    0.000 -0.000 -0.000
 O         -0.000 -0.000  0.001    0.000  0.000  0.000   -0.000  0.000  0.000
 C          0.001 -0.054 -0.066    0.002 -0.007 -0.009   -0.000 -0.000 -0.000
 C          0.005  0.008  0.001   -0.059 -0.063  0.002   -0.000 -0.000 -0.000
 H         -0.004 -0.000  0.002    0.046 -0.006 -0.031   -0.000 -0.000 -0.000
 H          0.001 -0.004 -0.002    0.000 -0.004 -0.002    0.002  0.001  0.005
 H         -0.000 -0.000 -0.000   -0.000 -0.000 -0.000    0.635  0.511  0.577
 H         -0.015 -0.013 -0.003   -0.005 -0.004 -0.001   -0.001 -0.000 -0.001
 H         -0.089 -0.026  0.119   -0.009 -0.003  0.011   -0.000  0.000  0.001
 H          0.001  0.610  0.763   -0.003  0.071  0.090   -0.000  0.000  0.000
 H         -0.079 -0.088  0.001    0.681  0.715 -0.016    0.000  0.000  0.000
 TransDip   0.001 -0.038 -0.109   -0.053 -0.059 -0.006    0.254  0.124  0.282

 STANDARD THERMODYNAMIC QUANTITIES AT   298.15 K  AND     1.00 ATM

   This Molecule has  0 Imaginary Frequencies
   Zero point vibrational energy:       80.864 kcal/mol

   Atom    1 Element C  Has Mass   12.00000
   Atom    2 Element O  Has Mass   15.99491
   Atom    3 Element O  Has Mass   15.99491
   Atom    4 Element C  Has Mass   12.00000
   Atom    5 Element O  Has Mass   15.99491
   Atom    6 Element C  Has Mass   12.00000
   Atom    7 Element C  Has Mass   12.00000
   Atom    8 Element O  Has Mass   15.99491
   Atom    9 Element C  Has Mass   12.00000
   Atom   10 Element C  Has Mass   12.00000
   Atom   11 Element H  Has Mass    1.00783
   Atom   12 Element H  Has Mass    1.00783
   Atom   13 Element H  Has Mass    1.00783
   Atom   14 Element H  Has Mass    1.00783
   Atom   15 Element H  Has Mass    1.00783
   Atom   16 Element H  Has Mass    1.00783
   Atom   17 Element H  Has Mass    1.00783
   Molecular Mass:   143.034450 amu
   Principal axes and moments of inertia in amu*Bohr^2:
                             1           2           3
    Eigenvalues --      921.17486  1126.80111  1259.20938
          X              -0.60522     0.04056     0.79502
          Y               0.79560     0.06450     0.60237
          Z              -0.02685     0.99709    -0.07130
   Rotational Symmetry Number is   1
   The Molecule is an Asymmetric Top
   Translational Enthalpy:        0.889 kcal/mol
   Rotational Enthalpy:           0.889 kcal/mol
   Vibrational Enthalpy:         84.243 kcal/mol
   gas constant (RT):             0.592 kcal/mol
   Translational Entropy:        40.785  cal/mol.K
   Rotational Entropy:           28.659  cal/mol.K
   Vibrational Entropy:          18.703  cal/mol.K

   Total Enthalpy:               86.613 kcal/mol
   Total Entropy:                88.147  cal/mol.K
 Total job time:  19741.96s(wall), 285627.31s(cpu) 
 Wed May 15 19:17:10 2024

        *************************************************************
        *                                                           *
        *  Thank you very much for using Q-Chem.  Have a nice day.  *
        *                                                           *
        *************************************************************


