
Running Job 1 of 1 Q_in.in
qchem Q_in.in_457872.0 /scratch/ari.fischer/qChem2102889.hpc-mn1/qchem457872/ 0
/usr/local/qchem-5.4.1/exe/qcprog.exe_s Q_in.in_457872.0 /scratch/ari.fischer/qChem2102889.hpc-mn1/qchem457872/
                  Welcome to Q-Chem
     A Quantum Leap Into The Future Of Chemistry


 Q-Chem 5.4, Q-Chem, Inc., Pleasanton, CA (2021)

 License issued to: Nanyang Technological University (site)

 E. Epifanovsky,  A. T. B. Gilbert,  Xintian Feng,  Joonho Lee,  Yuezhi Mao,  
 N. Mardirossian,  P. Pokhilko,  A. White,  M. Wormit,  M. P. Coons,  
 A. L. Dempwolff,  Zhengting Gan,  D. Hait,  P. R. Horn,  L. D. Jacobson,  
 I. Kaliman,  J. Kussmann,  A. W. Lange,  Ka Un Lao,  D. S. Levine,  Jie Liu,  
 S. C. McKenzie,  A. F. Morrison,  K. Nanda,  F. Plasser,  D. R. Rehn,  
 M. L. Vidal,  Zhi-Qiang You,  Ying Zhu,  B. Alam,  B. Albrecht,  
 A. Aldossary,  E. Alguire,  J. H. Andersen,  D. Barton,  K. Begam,  A. Behn,  
 Y. A. Bernard,  E. J. Berquist,  H. Burton,  A. Carreras,  K. Carter-Fenk,  
 R. Chakraborty,  A. D. Chien,  K. D. Closser,  V. Cofer-Shabica,  
 S. Dasgupta,  Jia Deng,  M. de Wergifosse,  M. Diedenhofen,  Hainam Do,  
 S. Ehlert,  Po-Tung Fang,  S. Fatehi,  Qingguo Feng,  T. Friedhoff,  
 J. Gayvert,  Qinghui Ge,  G. Gidofalvi,  M. Goldey,  J. Gomes,  
 C. Gonzalez-Espinoza,  S. Gulania,  A. Gunina,  M. W. D. Hanson-Heine,  
 P. H. P. Harbach,  A. W. Hauser,  M. F. Herbst,  M. Hernandez Vera,  
 M. Hodecker,  Z. C. Holden,  S. Houck,  Xunkun Huang,  Kerwin Hui,  
 B. C. Huynh,  M. Ivanov,  Hyunjun Ji,  Hanjie Jiang,  B. Kaduk,  S. Kaehler,  
 K. Khistyaev,  Jaehoon Kim,  P. Klunzinger,  Z. Koczor-Benda,  
 Joong Hoon Koh,  D. Kosenkov,  L. Koulias,  T. Kowalczyk,  C. M. Krauter,  
 K. Kue,  A. Kunitsa,  T. Kus,  A. Landau,  K. V. Lawler,  D. Lefrancois,  
 S. Lehtola,  Rain Li,  Yi-Pei Li,  Jiashu Liang,  M. Liebenthal,  
 Hung-Hsuan Lin,  You-Sheng Lin,  Fenglai Liu,  Kuan-Yu Liu,  
 M. Loipersberger,  A. Luenser,  A. Manjanath,  P. Manohar,  E. Mansoor,  
 S. F. Manzer,  Shan-Ping Mao,  A. V. Marenich,  T. Markovich,  S. Mason,  
 S. A. Maurer,  P. F. McLaughlin,  M. F. S. J. Menger,  J.-M. Mewes,  
 S. A. Mewes,  P. Morgante,  J. W. Mullinax,  K. J. Oosterbaan,  G. Paran,  
 Alexander C. Paul,  Suranjan K. Paul,  F. Pavosevic,  Zheng Pei,  S. Prager,  
 E. I. Proynov,  E. Ramos,  B. Rana,  A. E. Rask,  A. Rettig,  R. M. Richard,  
 F. Rob,  E. Rossomme,  T. Scheele,  M. Scheurer,  M. Schneider,  
 N. Sergueev,  S. M. Sharada,  W. Skomorowski,  D. W. Small,  C. J. Stein,  
 Yu-Chuan Su,  E. J. Sundstrom,  Zhen Tao,  J. Thirman,  T. Tsuchimochi,  
 N. M. Tubman,  S. P. Veccham,  O. Vydrov,  J. Wenzel,  J. Witte,  A. Yamada,  
 Kun Yao,  S. Yeganeh,  S. R. Yost,  A. Zech,  Igor Ying Zhang,  Xing Zhang,  
 Yu Zhang,  D. Zuev,  A. Aspuru-Guzik,  A. T. Bell,  N. A. Besley,  
 K. B. Bravaya,  B. R. Brooks,  D. Casanova,  Jeng-Da Chai,  S. Coriani,  
 C. J. Cramer,  A. E. DePrince, III,  R. A. DiStasio Jr.,  A. Dreuw,  
 B. D. Dunietz,  T. R. Furlani,  W. A. Goddard III,  S. Grimme,  
 S. Hammes-Schiffer,  T. Head-Gordon,  W. J. Hehre,  Chao-Ping Hsu,  
 T.-C. Jagau,  Yousung Jung,  A. Klamt,  Jing Kong,  D. S. Lambrecht,  
 WanZhen Liang,  N. J. Mayhall,  C. W. McCurdy,  J. B. Neaton,  
 C. Ochsenfeld,  J. A. Parkhill,  R. Peverati,  V. A. Rassolov,  Yihan Shao,  
 L. V. Slipchenko,  T. Stauch,  R. P. Steele,  J. E. Subotnik,  
 A. J. W. Thom,  A. Tkatchenko,  D. G. Truhlar,  T. Van Voorhis,  
 T. A. Wesolowski,  K. B. Whaley,  H. L. Woodcock III,  P. M. Zimmerman,  
 S. Faraji,  P. M. W. Gill,  M. Head-Gordon,  J. M. Herbert,  A. I. Krylov

 Additional authors for Version 5.4.1: 
 S. Kotaru,  Shaozhi Li,  Xiangyuan Li,  F. Matz,  A. Molle,  Haisheng Ren,  
 Yingli Su,  Hung-Yi Tsai,  C. Utku,  Fang Wang

 Contributors to earlier versions of Q-Chem not listed above: 
 R. D. Adamson,  B. Austin,  R. Baer,  J. Baker,  G. J. O. Beran,  
 K. Brandhorst,  S. T. Brown,  E. F. C. Byrd,  A. K. Chakraborty,  
 G. K. L. Chan,  Chun-Min Chang,  Yunqing Chen,  C.-L. Cheng,  
 Siu Hung Chien,  D. M. Chipman,  D. L. Crittenden,  H. Dachsel,  
 R. J. Doerksen,  A. D. Dutoi,  R. G. Edgar,  J. Fosso-Tande,  
 L. Fusti-Molnar,  D. Ghosh,  A. Ghysels,  A. Golubeva-Zadorozhnaya,  
 J. Gonthier,  M. S. Gordon,  S. R. Gwaltney,  G. Hawkins,  J. E. Herr,  
 A. Heyden,  S. Hirata,  E. G. Hohenstein,  G. Kedziora,  F. J. Keil,  
 C. Kelley,  Jihan Kim,  R. A. King,  R. Z. Khaliullin,  P. P. Korambath,  
 W. Kurlancheek,  A. Laurent,  A. M. Lee,  M. S. Lee,  S. V. Levchenko,  
 Ching Yeh Lin,  D. Liotard,  E. Livshits,  R. C. Lochan,  I. Lotan,  
 L. A. Martinez-Martinez,  P. E. Maslen,  N. Nair,  D. P. O'Neill,  
 D. Neuhauser,  E. Neuscamman,  C. M. Oana,  R. Olivares-Amaya,  R. Olson,  
 T. M. Perrine,  B. Peters,  P. A. Pieniazek,  A. Prociuk,  Y. M. Rhee,  
 J. Ritchie,  M. A. Rohrdanz,  E. Rosta,  N. J. Russ,  H. F. Schaefer III,  
 M. W. Schmidt,  N. E. Schultz,  S. Sharma,  N. Shenvi,  C. D. Sherrill,  
 A. C. Simmonett,  A. Sodt,  T. Stein,  D. Stuck,  K. S. Thanthiriwatte,  
 V. Vanovschi,  L. Vogt,  Tao Wang,  A. Warshel,  M. A. Watson,  
 C. F. Williams,  Q. Wu,  X. Xu,  Jun Yang,  W. Zhang,  Yan Zhao

 Please cite Q-Chem as follows:
 Y. Shao et al., Mol. Phys. 113, 184-215 (2015)
 DOI: 10.1080/00268976.2014.952696

 Q-Chem 5.4.1 for Intel X86 EM64T Linux

 Parts of Q-Chem use Armadillo 9.800.1 (Horizon Scraper).
 http://arma.sourceforge.net/

 Q-Chem begins on Wed May 15 10:53:35 2024  

 Host: 
0

     Scratch files written to /scratch/ari.fischer/qChem2102889.hpc-mn1/qchem457872//
 Aug1521 |scratch|qcdevops|jenkins|workspace|build_RNUM 8249   
 Processing $rem in /usr/local/qchem-5.4.1/config/preferences:
 Processing $rem in /home/ari.fischer/.qchemrc:
 Symmetry turned off for PCM/SM12/SMD calculation

 Checking the input file for inconsistencies... 	...done.

--------------------------------------------------------------
User input:
--------------------------------------------------------------
$molecule
0 2
C        -1.1291214218    0.1580436380    0.8954406153
O        -1.3300956827    1.1097394171   -0.1879289554
O        -0.0241093936    1.7603104363   -0.4472611495
C         0.0920327490    0.7504620500    1.5972359755
O         0.6087586941   -0.1298678923    2.5649063385
C         0.9248387844    1.0359991080    0.3385539111
C         1.3309732334   -0.1962499315   -0.4530823765
O         1.6570370003   -1.3763130676    0.2728039755
C         0.3858331772   -1.3279854772   -0.4650129452
C        -0.8478489872   -1.1870045676    0.3156896637
H        -2.0391346026    0.1968659922    1.4958760877
H        -0.1770405523    1.7168150157    2.0391762323
H         1.3344023562    0.3352918147    3.0121732664
H         1.7556728003    1.7241229581    0.5121298462
H         1.9468170725   -0.0050834812   -1.3307241206
H         0.3813715934   -2.0053949866   -1.3148986545
H        -1.6045209206   -1.9622239263    0.3024593895
$end

$rem
BASIS = 6-311++G(2df,2p)
GUI = 2
JOB_TYPE = Optimization
METHOD = wB97M-V
SCF_ALGORITHM = DIIS_GDM
MAX_SCF_CYCLES = 400
GEOM_OPT_MAX_CYCLES = 150
SCF_CONVERGENCE = 7
THRESH = 12
Solvent_method = SMD
$end
--------------------------------------------------------------
 ----------------------------------------------------------------
             Standard Nuclear Orientation (Angstroms)
    I     Atom           X                Y                Z
 ----------------------------------------------------------------
    1      C      -1.1291214218     0.1580436380     0.8954406153
    2      O      -1.3300956827     1.1097394171    -0.1879289554
    3      O      -0.0241093936     1.7603104363    -0.4472611495
    4      C       0.0920327490     0.7504620500     1.5972359755
    5      O       0.6087586941    -0.1298678923     2.5649063385
    6      C       0.9248387844     1.0359991080     0.3385539111
    7      C       1.3309732334    -0.1962499315    -0.4530823765
    8      O       1.6570370003    -1.3763130676     0.2728039755
    9      C       0.3858331772    -1.3279854772    -0.4650129452
   10      C      -0.8478489872    -1.1870045676     0.3156896637
   11      H      -2.0391346026     0.1968659922     1.4958760877
   12      H      -0.1770405523     1.7168150157     2.0391762323
   13      H       1.3344023562     0.3352918147     3.0121732664
   14      H       1.7556728003     1.7241229581     0.5121298462
   15      H       1.9468170725    -0.0050834812    -1.3307241206
   16      H       0.3813715934    -2.0053949866    -1.3148986545
   17      H      -1.6045209206    -1.9622239263     0.3024593895
 ----------------------------------------------------------------
 Nuclear Repulsion Energy =         584.30021406 hartrees
 There are       38 alpha and       37 beta electrons
 Requested basis set is 6-311++G(2df,2p)
 There are 122 shells and 410 basis functions

 Total QAlloc Memory Limit 288000 MB
 Mega-Array Size       188 MB
 MEM_STATIC part       192 MB
 
 Citation of the SMD model:
 Marenich, A.V.; Cramer, C.J.; Truhlar, D.G.
 J. Phys. Chem. B 2009, 113, 6378-6396.
 iSolventCode=           1
 Solvent: water                                                           
 
 vradii
            1           2           3           4           5           6
    1   1.8500000   1.5200000   1.5200000   1.8500000   1.5200000   1.8500000
            7           8           9          10          11          12
    1   1.8500000   1.5200000   1.8500000   1.8500000   1.2000000   1.2000000
           13          14          15          16          17
    1   1.2000000   1.2000000   1.2000000   1.2000000   1.2000000
 Changing PCM_VDW_RADII to SMD_RADIUS
 Discretize the solute cavity surface with Lebedev spheres
	Using 110 Lebedev grid points for each H atom
	Using 194 Lebedev grid points for other atoms
	Atomic van der Waals radii will be scaled by 1.20
 Remove points where switching function is < 1.0e-08
 Keep 1249 surface tesserae and discard 1461 interior tesserae
 Molecular Surface Area = 141.362 Angst**2
 A cutoff of  1.0D-12 yielded   7025 shell pairs
 There are     80608 function pairs (    101629 Cartesian)
 Smallest overlap matrix eigenvalue = 5.19E-06

 Scale SEOQF with 1.000000e-01/1.000000e-01/1.000000e-01

 Standard Electronic Orientation quadrupole field applied
 Nucleus-field energy     =    -0.0000000009 hartrees
 Guess from superposition of atomic densities
 Warning:  Energy on first SCF cycle will be non-variational
 SAD guess density has 75.000000 electrons

 -----------------------------------------------------------------------
  General SCF calculation program by
  Eric Jon Sundstrom, Paul Horn, Yuezhi Mao, Dmitri Zuev, Alec White,
  David Stuck, Shaama M.S., Shane Yost, Joonho Lee, David Small,
  Daniel Levine, Susi Lehtola, Hugh Burton, Evgeny Epifanovsky,
  Bang C. Huynh
 -----------------------------------------------------------------------
 Exchange:     0.1500 Hartree-Fock + 1.0000 wB97M-V + LR-HF
 Correlation:  1.0000 wB97M-V
 Using SG-2 standard quadrature grid
 Nonlocal Correlation:  VV10 with C = 0.0100 and b = 6.00 and scale = 1.00000
 Grid used for NLC:  SG-1 standard quadrature
 
 Citation of the SMD model:
 Marenich, A.V.; Cramer, C.J.; Truhlar, D.G.
 J. Phys. Chem. B 2009, 113, 6378-6396.
 iSolventCode=           1
 Solvent: water                                                           
 
 vradii
            1           2           3           4           5           6
    1   1.8500000   1.5200000   1.5200000   1.8500000   1.5200000   1.8500000
            7           8           9          10          11          12
    1   1.8500000   1.5200000   1.8500000   1.8500000   1.2000000   1.2000000
           13          14          15          16          17
    1   1.2000000   1.2000000   1.2000000   1.2000000   1.2000000
 using 8 threads for integral computing
 -------------------------------------------------------
 OpenMP Integral computing Module                
 Release: version 1.0, May 2013, Q-Chem Inc. Pittsburgh 
 -------------------------------------------------------
 -------------------------------------------------------
 OpenMP BLAS3 based DFT computing Module                
 Release: version 1.0, May 2013, Q-Chem Inc. Pittsburgh 
 -------------------------------------------------------
 A unrestricted SCF calculation will be
 performed using DIIS, GDM
 SCF converges when RMS gradient is below 1.0e-07
 ---------------------------------------
  Cycle       Energy         DIIS error
 ---------------------------------------
    1    -536.3442817592      1.26e-02  
    2    -533.4672319379      1.14e-03  Done DIIS. Switching to GDM
 ---------------------------------------
  Cycle       Energy        RMS Gradient
 ---------------------------------------
    1    -533.4672319379      3.80e-02   Descent step
    2    -533.5467022219      2.04e-02   Normal BFGS step
    3    -533.5622632193      1.04e-02   Normal BFGS step
    4    -533.5638730674      6.84e-03   Normal BFGS step
    5    -533.5641882726      2.85e-03   Normal BFGS step
    6    -533.5642940143      1.53e-03   Normal BFGS step
    7    -533.5643069037      6.58e-04   Normal BFGS step
    8    -533.5643103307      2.41e-04   Normal BFGS step
    9    -533.5643107394      1.22e-04   Normal BFGS step
   10    -533.5643109956      3.90e-05   Normal BFGS step
   11    -533.5643110219      1.82e-05   Normal BFGS step
   12    -533.5643110293      1.19e-05   Normal BFGS step
   13    -533.5643110311      6.62e-06   Normal BFGS step
   14    -533.5643110317      3.14e-06   Normal BFGS step
   15    -533.5643110319      1.02e-06   Normal BFGS step
   16    -533.5643110319      5.28e-07   Normal BFGS step
   17    -533.5643110319      1.80e-07   Normal BFGS step
   18    -533.5643110320      6.45e-08  Convergence criterion met
 ---------------------------------------
 SCF time:   CPU 2301.94s  wall 291.00s 
<S^2> =          0.755109792
(3)  G-ENP(liq) elect-nuc-pol free energy of system     -533.564311032 a.u.
(4)  G-CDS(liq) cavity-dispersion-solvent structure 
     free energy                                                2.2567 kcal/mol
(6)  G-S(liq) free energy of system                     -533.560714720 a.u.
 SCF   energy in the final basis set =     -533.5607147197
 Total energy in the final basis set =     -533.5607147197
 
 --------------------------------------------------------------
 
                    Orbital Energies (a.u.)
 --------------------------------------------------------------
 
 Alpha MOs
 -- Occupied --
-19.4057 -19.4038 -19.3604 -19.3494 -10.4114 -10.4104 -10.4098 -10.4057
-10.4052 -10.3690  -1.2671  -1.2129  -1.1705  -1.0704  -0.9439  -0.8683
 -0.8240  -0.7596  -0.7270  -0.6995  -0.6670  -0.6345  -0.6100  -0.5836
 -0.5742  -0.5626  -0.5486  -0.5322  -0.5057  -0.4972  -0.4860  -0.4600
 -0.4534  -0.4199  -0.4087  -0.3903  -0.3601  -0.3150
 -- Virtual --
  0.0250   0.0360   0.0372   0.0458   0.0571   0.0589   0.0685   0.0863
  0.0871   0.0953   0.1127   0.1248   0.1334   0.1359   0.1371   0.1413
  0.1448   0.1481   0.1537   0.1568   0.1608   0.1648   0.1702   0.1830
  0.1882   0.1904   0.1936   0.1991   0.2090   0.2239   0.2301   0.2384
  0.2415   0.2466   0.2572   0.2701   0.2805   0.2915   0.2995   0.3071
  0.3140   0.3205   0.3279   0.3358   0.3454   0.3495   0.3595   0.3642
  0.3689   0.3714   0.3815   0.3839   0.3898   0.3979   0.3996   0.4005
  0.4104   0.4149   0.4248   0.4337   0.4362   0.4589   0.4659   0.4803
  0.4910   0.5027   0.5383   0.5455   0.5894   0.5936   0.6057   0.6122
  0.6287   0.6412   0.6542   0.6622   0.6673   0.6767   0.6860   0.6932
  0.7067   0.7154   0.7201   0.7301   0.7420   0.7459   0.7554   0.7653
  0.7828   0.7938   0.8127   0.8329   0.8430   0.8537   0.8752   0.9080
  0.9252   0.9344   0.9623   0.9913   1.0322   1.0417   1.0518   1.0749
  1.0848   1.1159   1.1261   1.1346   1.1418   1.1584   1.1642   1.1783
  1.1942   1.2021   1.2096   1.2166   1.2272   1.2398   1.2489   1.2550
  1.2706   1.2768   1.2885   1.2950   1.3110   1.3159   1.3236   1.3326
  1.3331   1.3466   1.3614   1.3811   1.3953   1.4034   1.4083   1.4134
  1.4333   1.4710   1.4803   1.4905   1.4970   1.5188   1.5219   1.5456
  1.5492   1.5723   1.5823   1.6038   1.6211   1.6316   1.6525   1.6632
  1.7050   1.7089   1.7442   1.7673   1.8030   1.8141   1.8246   1.8442
  1.8892   1.9017   1.9370   1.9454   1.9845   2.0072   2.0474   2.0742
  2.0941   2.0983   2.1479   2.1677   2.1823   2.2388   2.2586   2.2684
  2.3049   2.3374   2.3860   2.4058   2.4257   2.4465   2.5341   2.6316
  2.6736   2.6944   2.7119   2.7274   2.7733   2.7915   2.8001   2.8223
  2.8447   2.8567   2.8753   2.8910   2.9009   2.9151   2.9368   2.9746
  2.9804   3.0092   3.0249   3.0356   3.0455   3.0714   3.1113   3.1121
  3.1443   3.1651   3.1927   3.2416   3.2539   3.2615   3.2831   3.2983
  3.3432   3.3505   3.3821   3.3874   3.4009   3.4277   3.4405   3.4538
  3.4671   3.5001   3.5105   3.5358   3.5698   3.5786   3.5881   3.6000
  3.6161   3.6484   3.6541   3.6719   3.6967   3.7093   3.7175   3.7421
  3.7454   3.7557   3.7817   3.8159   3.8248   3.8468   3.8526   3.8572
  3.8817   3.8904   3.9163   3.9204   3.9448   3.9696   3.9997   4.0101
  4.0526   4.0612   4.0782   4.0971   4.1299   4.1723   4.2032   4.2185
  4.2560   4.2751   4.2910   4.3119   4.3251   4.3276   4.3571   4.3716
  4.3804   4.3899   4.4220   4.4370   4.4605   4.4694   4.4902   4.5100
  4.5438   4.5653   4.5794   4.5984   4.6137   4.6741   4.6864   4.7178
  4.7326   4.7605   4.8020   4.8592   4.9283   4.9880   5.0598   5.1374
  5.1862   5.2229   5.2634   5.2700   5.2858   5.2913   5.3136   5.3214
  5.3377   5.3478   5.3588   5.4015   5.4047   5.4322   5.4504   5.4759
  5.4979   5.5021   5.5105   5.5794   5.6034   5.6107   5.6131   5.6526
  5.6805   5.7006   5.7375   5.7507   5.7757   5.8033   5.8658   5.8993
  5.9322   5.9610   5.9952   6.0247   6.0437   6.0941   6.2288   6.4656
  6.5518   6.6116   6.6588   6.6956   6.7478   7.0145   7.1159   7.1715
  7.2712   7.2730   7.2950   7.3385   7.3762   7.4204   7.4266   7.4510
  7.4958   7.5005   7.6145   7.6989   7.7439   7.8295   7.8407   7.8833
  7.9167   8.2297  24.4683  24.6899  24.7180  24.7754  24.8648  24.9120
 50.5743  50.6337  50.6485  50.6995
 
 Beta MOs
 -- Occupied --
-19.4056 -19.4017 -19.3575 -19.3493 -10.4112 -10.4109 -10.4098 -10.4068
-10.4046 -10.3566  -1.2651  -1.2075  -1.1701  -1.0675  -0.9365  -0.8544
 -0.8211  -0.7557  -0.7229  -0.6952  -0.6616  -0.6310  -0.6061  -0.5782
 -0.5716  -0.5582  -0.5415  -0.5267  -0.5000  -0.4932  -0.4815  -0.4558
 -0.4484  -0.4124  -0.4064  -0.3862  -0.3562
 -- Virtual --
 -0.0180   0.0251   0.0358   0.0369   0.0469   0.0569   0.0586   0.0711
  0.0870   0.0907   0.0954   0.1126   0.1244   0.1328   0.1355   0.1365
  0.1424   0.1448   0.1477   0.1538   0.1571   0.1606   0.1648   0.1701
  0.1841   0.1879   0.1897   0.1950   0.1995   0.2097   0.2233   0.2301
  0.2375   0.2416   0.2465   0.2638   0.2733   0.2813   0.2932   0.3014
  0.3090   0.3147   0.3223   0.3281   0.3423   0.3462   0.3511   0.3596
  0.3659   0.3709   0.3722   0.3824   0.3841   0.3904   0.3990   0.4007
  0.4015   0.4111   0.4167   0.4259   0.4333   0.4393   0.4616   0.4689
  0.4830   0.4909   0.5040   0.5404   0.5473   0.5964   0.5994   0.6086
  0.6187   0.6301   0.6430   0.6555   0.6679   0.6724   0.6787   0.6885
  0.6945   0.7104   0.7169   0.7226   0.7321   0.7446   0.7526   0.7577
  0.7705   0.7857   0.7953   0.8168   0.8392   0.8447   0.8575   0.8790
  0.9088   0.9265   0.9360   0.9633   0.9942   1.0342   1.0436   1.0536
  1.0747   1.0866   1.1183   1.1290   1.1387   1.1434   1.1604   1.1646
  1.1794   1.1957   1.2052   1.2115   1.2209   1.2285   1.2444   1.2509
  1.2564   1.2721   1.2813   1.2898   1.2972   1.3130   1.3179   1.3259
  1.3339   1.3359   1.3485   1.3636   1.3844   1.3986   1.4061   1.4116
  1.4190   1.4383   1.4746   1.4823   1.4937   1.5003   1.5223   1.5252
  1.5477   1.5530   1.5795   1.5865   1.6074   1.6217   1.6349   1.6581
  1.6660   1.7096   1.7175   1.7475   1.7705   1.8052   1.8178   1.8275
  1.8478   1.8943   1.9044   1.9394   1.9479   1.9877   2.0112   2.0492
  2.0771   2.0963   2.1018   2.1545   2.1732   2.1846   2.2409   2.2621
  2.2707   2.3066   2.3390   2.3882   2.4088   2.4282   2.4480   2.5361
  2.6411   2.6867   2.6972   2.7149   2.7311   2.7786   2.7989   2.8099
  2.8353   2.8540   2.8662   2.8868   2.8987   2.9161   2.9281   2.9752
  2.9930   3.0097   3.0232   3.0333   3.0525   3.0596   3.0822   3.1153
  3.1194   3.1527   3.1725   3.2069   3.2502   3.2633   3.2745   3.2921
  3.3059   3.3483   3.3646   3.3962   3.4005   3.4125   3.4394   3.4580
  3.4642   3.4808   3.5089   3.5143   3.5460   3.5768   3.5892   3.5974
  3.6130   3.6264   3.6614   3.6690   3.6841   3.7074   3.7214   3.7254
  3.7469   3.7517   3.7611   3.7911   3.8230   3.8317   3.8532   3.8592
  3.8651   3.8865   3.8935   3.9226   3.9281   3.9507   3.9791   4.0082
  4.0148   4.0609   4.0674   4.0881   4.1068   4.1449   4.1770   4.2134
  4.2278   4.2642   4.2837   4.2980   4.3164   4.3329   4.3367   4.3625
  4.3785   4.3924   4.3969   4.4318   4.4451   4.4686   4.4791   4.5019
  4.5159   4.5540   4.5756   4.5904   4.6062   4.6192   4.6766   4.6917
  4.7248   4.7391   4.7634   4.8090   4.8654   4.9426   5.0042   5.0658
  5.1479   5.2015   5.2294   5.2661   5.2740   5.2885   5.2953   5.3199
  5.3258   5.3401   5.3521   5.3612   5.4037   5.4124   5.4345   5.4565
  5.4783   5.5013   5.5050   5.5214   5.5863   5.6078   5.6147   5.6311
  5.6563   5.6814   5.7112   5.7406   5.7617   5.7830   5.8131   5.8681
  5.9080   5.9350   5.9724   5.9990   6.0288   6.0451   6.0957   6.2306
  6.4735   6.5565   6.6143   6.6595   6.6975   6.7485   7.0168   7.1165
  7.1793   7.2729   7.2793   7.2994   7.3395   7.3800   7.4230   7.4280
  7.4539   7.5001   7.5032   7.6179   7.6995   7.7531   7.8336   7.8452
  7.8872   7.9194   8.2312  24.4738  24.6919  24.7181  24.7758  24.8664
 24.9153  50.5753  50.6342  50.6492  50.7013
 --------------------------------------------------------------
 
          Ground-State Mulliken Net Atomic Charges

     Atom                 Charge (a.u.)    Spin (a.u.)
  --------------------------------------------------------
      1 C                    -0.037668      -0.016792
      2 O                    -0.148439       0.039570
      3 O                    -0.125442       0.003288
      4 C                    -0.110562       0.015615
      5 O                    -0.429372      -0.001217
      6 C                    -0.233375      -0.006015
      7 C                    -0.229583       0.044016
      8 O                    -0.277149       0.072620
      9 C                    -0.129037      -0.016138
     10 C                    -0.321699       0.865780
     11 H                     0.295765       0.006879
     12 H                     0.291226      -0.001352
     13 H                     0.343520       0.000395
     14 H                     0.272391       0.000723
     15 H                     0.274253       0.001861
     16 H                     0.240954       0.008956
     17 H                     0.324216      -0.018190
  --------------------------------------------------------
  Sum of atomic charges =     0.000000
  Sum of spin   charges =     1.000000

 -----------------------------------------------------------------
                    Cartesian Multipole Moments
 -----------------------------------------------------------------
    Charge (ESU x 10^10)
                 0.0000
    Dipole Moment (Debye)
         X       0.8649      Y       0.8811      Z       1.2990
       Tot       1.7922
    Quadrupole Moments (Debye-Ang)
        XX     -54.8651     XY      11.4887     YY     -61.0150
        XZ      -1.5688     YZ      11.2667     ZZ     -54.1979
    Octopole Moments (Debye-Ang^2)
       XXX     -29.9150    XXY       6.5023    XYY     -12.2029
       YYY     -16.9761    XXZ     -16.1122    XYZ       6.7211
       YYZ     -24.8610    XZZ       4.3948    YZZ      10.7730
       ZZZ     -71.3301
    Hexadecapole Moments (Debye-Ang^3)
      XXXX    -418.3284   XXXY      76.8119   XXYY    -157.9444
      XYYY      68.2448   YYYY    -485.7734   XXXZ     -13.2240
      XXYZ       5.4147   XYYZ      -4.9693   YYYZ       7.1443
      XXZZ    -114.8892   XYZZ      23.4733   YYZZ    -152.4731
      XZZZ      34.2649   YZZZ      30.3464   ZZZZ    -447.4060
 -----------------------------------------------------------------
 Calculating analytic gradient of the SCF energy
 Gradient of CDS energy
            1           2           3           4           5           6
    1  -0.0001865   0.0001020  -0.0001141   0.0007894  -0.0008794  -0.0000314
    2   0.0002768   0.0000719  -0.0000250  -0.0014275   0.0013450   0.0002355
    3   0.0000432  -0.0000027   0.0000540   0.0017665  -0.0017706  -0.0000685
            7           8           9          10          11          12
    1   0.0004205  -0.0001040   0.0002171  -0.0003480  -0.0002004  -0.0000867
    2   0.0000102   0.0000814  -0.0004037  -0.0003361   0.0000425   0.0002186
    3  -0.0001397   0.0000853  -0.0002293   0.0001148   0.0000836  -0.0000279
           13          14          15          16          17
    1   0.0003075   0.0001373   0.0001125  -0.0000008  -0.0001349
    2  -0.0000526   0.0001742   0.0000514  -0.0001245  -0.0001382
    3   0.0004063   0.0000013  -0.0001577  -0.0001563  -0.0000024
 Gradient of SCF Energy
            1           2           3           4           5           6
    1   0.0056253  -0.0065655   0.0022265   0.0066055  -0.0161701  -0.0157165
    2   0.0046304   0.0004697   0.0053649  -0.0118737  -0.0206301  -0.0033426
    3  -0.0091289  -0.0021571  -0.0036635   0.0015939  -0.0082112  -0.0059571
            7           8           9          10          11          12
    1   0.0011799   0.0020153   0.0011452   0.0042733  -0.0086264  -0.0014765
    2  -0.0005357  -0.0058230   0.0033905   0.0023607  -0.0001077   0.0109594
    3   0.0075509   0.0032564   0.0042292   0.0053894   0.0057116   0.0064184
           13          14          15          16          17
    1   0.0159000   0.0116563   0.0058920  -0.0007367  -0.0072276
    2   0.0159274   0.0089983   0.0024446  -0.0052824  -0.0069508
    3   0.0080461   0.0030244  -0.0082438  -0.0073214  -0.0005374
 Max gradient component =       2.063E-02
 RMS gradient           =       7.691E-03
 Computing fast CPCM-SWIG gradient
 Updating gradient with PCM contributions...
 -- total gradient after adding PCM contribution --
---------------------------------------------------
  Atom         X              Y              Z     
---------------------------------------------------
   1       0.001390       0.000885      -0.000782
   2      -0.004217      -0.000678      -0.000690
   3       0.002246       0.003418      -0.002556
   4       0.002999      -0.001644       0.002761
   5      -0.005945      -0.006783      -0.002971
   6      -0.001331      -0.000425       0.000500
   7       0.000794       0.001052       0.001272
   8       0.001174      -0.001362       0.001747
   9       0.000246      -0.000312       0.000857
  10      -0.000629      -0.000500       0.001452
  11      -0.002792       0.000103       0.001650
  12      -0.000997       0.003377       0.000966
  13       0.005113       0.004607       0.001900
  14       0.002269       0.002151       0.000311
  15       0.001940       0.000579      -0.003096
  16      -0.000015      -0.002182      -0.003064
  17      -0.002246      -0.002284      -0.000256
---------------------------------------------------
 Number of fixed atoms: 0
 Gradient time:  CPU 407.57 s  wall 57.88 s
 Geometry Optimization Parameters
   NAtoms,    NIC,     NZ,  NCons,   NDum,   NFix, NCnnct, MaxDiis
       17     151       0       0       0       0       0       0


** GEOMETRY OPTIMIZATION IN DELOCALIZED INTERNAL COORDINATES **
   Searching for a Minimum

   Optimization Cycle:   1

                       Coordinates (Angstroms)
     ATOM                X               Y               Z
      1  C        -1.1291214218    0.1580436380    0.8954406153
      2  O        -1.3300956827    1.1097394171   -0.1879289554
      3  O        -0.0241093936    1.7603104363   -0.4472611495
      4  C         0.0920327490    0.7504620500    1.5972359755
      5  O         0.6087586941   -0.1298678923    2.5649063385
      6  C         0.9248387844    1.0359991080    0.3385539111
      7  C         1.3309732334   -0.1962499315   -0.4530823765
      8  O         1.6570370003   -1.3763130676    0.2728039755
      9  C         0.3858331772   -1.3279854772   -0.4650129452
     10  C        -0.8478489872   -1.1870045676    0.3156896637
     11  H        -2.0391346026    0.1968659922    1.4958760877
     12  H        -0.1770405523    1.7168150157    2.0391762323
     13  H         1.3344023562    0.3352918147    3.0121732664
     14  H         1.7556728003    1.7241229581    0.5121298462
     15  H         1.9468170725   -0.0050834812   -1.3307241206
     16  H         0.3813715934   -2.0053949866   -1.3148986545
     17  H        -1.6045209206   -1.9622239263    0.3024593895
   Point Group: c1    Number of degrees of freedom:    45


   Energy is   -533.560714720


 Attempting to generate delocalized internal coordinates
 Initial Hessian constructed with Jon Baker's OPTIMIZE code

 45 Hessian modes will be used to form the next step
  Hessian Eigenvalues:
     0.010097    0.012283    0.014779    0.017452    0.020064    0.021484
     0.024486    0.032600    0.035464    0.041184    0.050713    0.056219
     0.072475    0.076006    0.077916    0.080914    0.086591    0.097092
     0.103026    0.104921    0.115963    0.126556    0.154095    0.157777
     0.160000    0.174574    0.224555    0.241988    0.252517    0.275960
     0.292385    0.323264    0.324289    0.341112    0.345059    0.346485
     0.347040    0.349209    0.350906    0.351810    0.355901    0.378818
     0.395298    0.445526    0.531586

 Minimum search - taking simple RFO step
 Searching for Lamda that Minimizes Along All modes
 Value Taken    Lamda =  -0.00072021
 Step Taken.  Stepsize is  0.087490

                             Maximum     Tolerance    Cnvgd?
         Gradient           0.005633      0.000300      NO
         Displacement       0.044788      0.001200      NO
         Energy change     *********      0.000001      NO


 New Cartesian Coordinates Obtained by Inverse Iteration

 Displacement from previous Coordinates is:  0.121741
 ----------------------------------------------------------------
             Standard Nuclear Orientation (Angstroms)
    I     Atom           X                Y                Z
 ----------------------------------------------------------------
    1      C      -1.1227400832     0.1525788660     0.8963739393
    2      O      -1.3213603048     1.1049320452    -0.1833306533
    3      O      -0.0202838951     1.7534625402    -0.4388833614
    4      C       0.0929036144     0.7499747714     1.5948348841
    5      O       0.6081700651    -0.1099779809     2.5808830689
    6      C       0.9279637328     1.0270927654     0.3397881416
    7      C       1.3258305449    -0.1979882292    -0.4594653143
    8      O       1.6555324177    -1.3810861886     0.2549724290
    9      C       0.3816707084    -1.3247138635    -0.4737499382
   10      C      -0.8419257657    -1.1860189976     0.3129066982
   11      H      -2.0283812532     0.1901249653     1.4945505338
   12      H      -0.1793268648     1.7141616044     2.0256025492
   13      H       1.3177602994     0.3527215546     3.0413954260
   14      H       1.7576821193     1.7089398517     0.5134033546
   15      H       1.9359315631    -0.0024781527    -1.3332356800
   16      H       0.3710841988    -1.9957034096    -1.3214797281
   17      H      -1.5946451971    -1.9584950424     0.3029707505
 ----------------------------------------------------------------
 Nuclear Repulsion Energy =         585.27696591 hartrees
 There are       38 alpha and       37 beta electrons
 Discretize the solute cavity surface with Lebedev spheres
	Using 110 Lebedev grid points for each H atom
	Using 194 Lebedev grid points for other atoms
	Atomic van der Waals radii will be scaled by 1.20
 Remove points where switching function is < 1.0e-08
 Keep 1248 surface tesserae and discard 1462 interior tesserae
 Molecular Surface Area = 141.061 Angst**2
 Applying Cartesian multipole field
    Component          Value
    ---------          -----
     (2,0,0)        1.00000E-11
     (0,2,0)        2.00000E-11
     (0,0,2)       -3.00000E-11
 Nucleus-field energy     =    -0.0000000010 hartrees
 Requested basis set is 6-311++G(2df,2p)
 There are 122 shells and 410 basis functions
 A cutoff of  1.0D-12 yielded   7027 shell pairs
 There are     80649 function pairs (    101687 Cartesian)
 Smallest overlap matrix eigenvalue = 5.10E-06
 Guess MOs from SCF MO coefficient file

 -----------------------------------------------------------------------
  General SCF calculation program by
  Eric Jon Sundstrom, Paul Horn, Yuezhi Mao, Dmitri Zuev, Alec White,
  David Stuck, Shaama M.S., Shane Yost, Joonho Lee, David Small,
  Daniel Levine, Susi Lehtola, Hugh Burton, Evgeny Epifanovsky,
  Bang C. Huynh
 -----------------------------------------------------------------------
 Exchange:     0.1500 Hartree-Fock + 1.0000 wB97M-V + LR-HF
 Correlation:  1.0000 wB97M-V
 Using SG-2 standard quadrature grid
 Nonlocal Correlation:  VV10 with C = 0.0100 and b = 6.00 and scale = 1.00000
 Grid used for NLC:  SG-1 standard quadrature
 
 Citation of the SMD model:
 Marenich, A.V.; Cramer, C.J.; Truhlar, D.G.
 J. Phys. Chem. B 2009, 113, 6378-6396.
 iSolventCode=           1
 Solvent: water                                                           
 
 vradii
            1           2           3           4           5           6
    1   1.8500000   1.5200000   1.5200000   1.8500000   1.5200000   1.8500000
            7           8           9          10          11          12
    1   1.8500000   1.5200000   1.8500000   1.8500000   1.2000000   1.2000000
           13          14          15          16          17
    1   1.2000000   1.2000000   1.2000000   1.2000000   1.2000000
 -------------------------------------------------------
 OpenMP BLAS3 based DFT computing Module                
 Release: version 1.0, May 2013, Q-Chem Inc. Pittsburgh 
 -------------------------------------------------------
 A unrestricted SCF calculation will be
 performed using Roothaan-Hall, DIIS, GDM
 SCF converges when RMS gradient is below 1.0e-07
 ---------------------------------------
  Cycle       Energy         DIIS error
 ---------------------------------------
    1    -533.5281712670      2.22e-04  Roothaan Step
 ---------------------------------------
  Cycle       Energy         DIIS error
 ---------------------------------------
    1    -533.5570316299      2.47e-04  
    2    -533.5617861817      2.19e-04  Done DIIS. Switching to GDM
 ---------------------------------------
  Cycle       Energy        RMS Gradient
 ---------------------------------------
    1    -533.5617861817      6.52e-03   Normal BFGS step
    2    -533.5614118602      9.01e-03  Line search: overstep
    3    -533.5644403081      1.64e-03   Normal BFGS step
    4    -533.5645891843      5.52e-04   Normal BFGS step
    5    -533.5646202998      2.48e-04   Normal BFGS step
    6    -533.5646246033      1.45e-04   Normal BFGS step
    7    -533.5646254112      8.35e-05   Normal BFGS step
    8    -533.5646255912      5.38e-05   Normal BFGS step
    9    -533.5646256174      2.72e-05   Normal BFGS step
   10    -533.5646256270      1.51e-05   Normal BFGS step
   11    -533.5646256284      7.20e-06   Normal BFGS step
   12    -533.5646256288      1.89e-06   Normal BFGS step
   13    -533.5646256288      1.03e-06   Normal BFGS step
   14    -533.5646256289      5.27e-07   Normal BFGS step
   15    -533.5646256289      3.00e-07   Normal BFGS step
   16    -533.5646256289      1.39e-07   Normal BFGS step
   17    -533.5646256288      6.82e-08  Convergence criterion met
 ---------------------------------------
 SCF time:   CPU 2316.99s  wall 293.00s 
<S^2> =          0.755073053
(3)  G-ENP(liq) elect-nuc-pol free energy of system     -533.564625629 a.u.
(4)  G-CDS(liq) cavity-dispersion-solvent structure 
     free energy                                                2.2379 kcal/mol
(6)  G-S(liq) free energy of system                     -533.561059344 a.u.
 SCF   energy in the final basis set =     -533.5610593442
 Total energy in the final basis set =     -533.5610593442
 
 --------------------------------------------------------------
 
                    Orbital Energies (a.u.)
 --------------------------------------------------------------
 
 Alpha MOs
 -- Occupied --
-19.4052 -19.4036 -19.3605 -19.3486 -10.4103 -10.4091 -10.4085 -10.4044
-10.4039 -10.3675  -1.2705  -1.2147  -1.1712  -1.0712  -0.9459  -0.8700
 -0.8253  -0.7615  -0.7281  -0.7014  -0.6692  -0.6363  -0.6116  -0.5853
 -0.5763  -0.5632  -0.5498  -0.5321  -0.5062  -0.4976  -0.4865  -0.4599
 -0.4542  -0.4207  -0.4084  -0.3909  -0.3601  -0.3149
 -- Virtual --
  0.0251   0.0359   0.0372   0.0461   0.0571   0.0590   0.0698   0.0863
  0.0875   0.0956   0.1136   0.1248   0.1336   0.1362   0.1373   0.1416
  0.1449   0.1488   0.1538   0.1572   0.1610   0.1652   0.1707   0.1829
  0.1884   0.1908   0.1936   0.1994   0.2092   0.2245   0.2304   0.2382
  0.2418   0.2468   0.2578   0.2714   0.2818   0.2929   0.3004   0.3082
  0.3154   0.3218   0.3291   0.3367   0.3465   0.3501   0.3598   0.3651
  0.3694   0.3721   0.3821   0.3847   0.3902   0.3987   0.4000   0.4012
  0.4086   0.4163   0.4250   0.4337   0.4372   0.4608   0.4658   0.4813
  0.4920   0.5033   0.5383   0.5463   0.5909   0.5948   0.6074   0.6132
  0.6299   0.6423   0.6552   0.6627   0.6687   0.6778   0.6874   0.6956
  0.7091   0.7173   0.7226   0.7316   0.7445   0.7478   0.7569   0.7675
  0.7833   0.7943   0.8137   0.8333   0.8433   0.8543   0.8764   0.9099
  0.9268   0.9358   0.9612   0.9920   1.0337   1.0437   1.0515   1.0751
  1.0864   1.1175   1.1257   1.1349   1.1421   1.1592   1.1659   1.1804
  1.1940   1.2030   1.2103   1.2174   1.2280   1.2420   1.2502   1.2552
  1.2715   1.2762   1.2916   1.2972   1.3110   1.3163   1.3220   1.3317
  1.3348   1.3492   1.3636   1.3819   1.3969   1.4032   1.4115   1.4158
  1.4348   1.4738   1.4825   1.4934   1.4998   1.5216   1.5246   1.5503
  1.5520   1.5763   1.5845   1.6056   1.6237   1.6343   1.6563   1.6646
  1.7076   1.7119   1.7451   1.7708   1.8057   1.8156   1.8274   1.8492
  1.8945   1.9068   1.9417   1.9496   1.9878   2.0111   2.0509   2.0760
  2.0957   2.1033   2.1531   2.1710   2.1849   2.2442   2.2611   2.2694
  2.3082   2.3402   2.3881   2.4087   2.4283   2.4502   2.5338   2.6282
  2.6765   2.6961   2.7086   2.7256   2.7744   2.7945   2.8024   2.8250
  2.8458   2.8609   2.8789   2.8915   2.9025   2.9188   2.9392   2.9763
  2.9827   3.0152   3.0291   3.0362   3.0487   3.0746   3.1125   3.1181
  3.1499   3.1669   3.1971   3.2453   3.2596   3.2653   3.2882   3.3029
  3.3437   3.3538   3.3849   3.3911   3.4023   3.4315   3.4432   3.4551
  3.4681   3.5028   3.5127   3.5392   3.5738   3.5837   3.5905   3.6033
  3.6196   3.6502   3.6581   3.6748   3.7004   3.7127   3.7202   3.7416
  3.7466   3.7583   3.7861   3.8221   3.8300   3.8483   3.8553   3.8618
  3.8870   3.8905   3.9220   3.9236   3.9512   3.9754   4.0067   4.0142
  4.0612   4.0658   4.0852   4.1026   4.1362   4.1824   4.2034   4.2282
  4.2642   4.2812   4.3065   4.3196   4.3310   4.3345   4.3651   4.3820
  4.3914   4.3980   4.4285   4.4472   4.4667   4.4776   4.5010   4.5180
  4.5521   4.5729   4.5930   4.6093   4.6215   4.6797   4.6943   4.7245
  4.7437   4.7729   4.8070   4.8689   4.9383   5.0006   5.0649   5.1412
  5.1898   5.2265   5.2665   5.2749   5.2902   5.2959   5.3189   5.3283
  5.3404   5.3492   5.3595   5.4027   5.4108   5.4429   5.4550   5.4805
  5.5036   5.5093   5.5222   5.5926   5.6098   5.6140   5.6286   5.6562
  5.6915   5.7169   5.7479   5.7655   5.7879   5.8182   5.8775   5.9090
  5.9469   5.9774   6.0051   6.0363   6.0541   6.1102   6.2488   6.4742
  6.5627   6.6257   6.6718   6.7146   6.7589   7.0218   7.1186   7.1733
  7.2763   7.2863   7.3142   7.3350   7.3830   7.4237   7.4345   7.4578
  7.4956   7.5128   7.6189   7.7117   7.7454   7.8334   7.8442   7.8905
  7.9235   8.2308  24.4813  24.7077  24.7335  24.7947  24.8856  24.9413
 50.5797  50.6356  50.6497  50.7018
 
 Beta MOs
 -- Occupied --
-19.4052 -19.4015 -19.3575 -19.3485 -10.4100 -10.4098 -10.4085 -10.4054
-10.4034 -10.3552  -1.2684  -1.2092  -1.1708  -1.0682  -0.9385  -0.8561
 -0.8223  -0.7575  -0.7241  -0.6971  -0.6640  -0.6326  -0.6076  -0.5798
 -0.5736  -0.5588  -0.5427  -0.5263  -0.5006  -0.4935  -0.4820  -0.4557
 -0.4492  -0.4131  -0.4062  -0.3870  -0.3561
 -- Virtual --
 -0.0181   0.0251   0.0358   0.0369   0.0472   0.0569   0.0587   0.0721
  0.0872   0.0910   0.0957   0.1134   0.1243   0.1330   0.1358   0.1368
  0.1427   0.1449   0.1484   0.1539   0.1575   0.1608   0.1652   0.1706
  0.1840   0.1881   0.1901   0.1949   0.1999   0.2099   0.2240   0.2303
  0.2373   0.2417   0.2467   0.2646   0.2747   0.2827   0.2944   0.3024
  0.3101   0.3158   0.3235   0.3294   0.3430   0.3473   0.3517   0.3600
  0.3664   0.3716   0.3733   0.3830   0.3847   0.3909   0.3998   0.4012
  0.4021   0.4092   0.4181   0.4261   0.4333   0.4403   0.4629   0.4693
  0.4840   0.4921   0.5047   0.5405   0.5481   0.5978   0.6011   0.6109
  0.6188   0.6312   0.6442   0.6566   0.6694   0.6730   0.6798   0.6901
  0.6967   0.7126   0.7193   0.7246   0.7336   0.7468   0.7543   0.7590
  0.7726   0.7861   0.7964   0.8178   0.8397   0.8447   0.8578   0.8802
  0.9108   0.9281   0.9374   0.9622   0.9948   1.0356   1.0452   1.0535
  1.0750   1.0882   1.1198   1.1290   1.1388   1.1436   1.1612   1.1664
  1.1816   1.1958   1.2063   1.2120   1.2215   1.2292   1.2466   1.2522
  1.2565   1.2727   1.2808   1.2929   1.2994   1.3134   1.3183   1.3238
  1.3332   1.3380   1.3510   1.3659   1.3853   1.4000   1.4058   1.4149
  1.4214   1.4397   1.4775   1.4846   1.4966   1.5031   1.5254   1.5276
  1.5520   1.5563   1.5831   1.5889   1.6092   1.6243   1.6375   1.6618
  1.6675   1.7123   1.7201   1.7486   1.7741   1.8076   1.8194   1.8303
  1.8529   1.8995   1.9097   1.9444   1.9519   1.9912   2.0148   2.0526
  2.0788   2.0981   2.1068   2.1596   2.1765   2.1871   2.2464   2.2646
  2.2720   2.3099   2.3417   2.3903   2.4116   2.4308   2.4517   2.5359
  2.6378   2.6895   2.6991   2.7116   2.7291   2.7794   2.8007   2.8138
  2.8374   2.8555   2.8711   2.8916   2.8987   2.9203   2.9301   2.9764
  2.9942   3.0120   3.0268   3.0367   3.0554   3.0631   3.0848   3.1167
  3.1253   3.1585   3.1742   3.2116   3.2533   3.2702   3.2781   3.2968
  3.3101   3.3488   3.3681   3.3977   3.4029   3.4153   3.4439   3.4600
  3.4662   3.4810   3.5120   3.5170   3.5490   3.5813   3.5958   3.5997
  3.6153   3.6297   3.6637   3.6693   3.6884   3.7102   3.7249   3.7280
  3.7475   3.7527   3.7638   3.7950   3.8280   3.8368   3.8555   3.8629
  3.8701   3.8917   3.8938   3.9281   3.9311   3.9571   3.9849   4.0126
  4.0212   4.0695   4.0720   4.0945   4.1131   4.1513   4.1871   4.2135
  4.2381   4.2720   4.2901   4.3130   4.3233   4.3392   4.3430   4.3717
  4.3886   4.4022   4.4046   4.4384   4.4553   4.4754   4.4877   4.5129
  4.5240   4.5613   4.5839   4.6041   4.6164   4.6272   4.6823   4.6997
  4.7312   4.7508   4.7760   4.8145   4.8749   4.9524   5.0164   5.0712
  5.1514   5.2055   5.2333   5.2691   5.2792   5.2925   5.2989   5.3247
  5.3326   5.3428   5.3541   5.3625   5.4049   5.4191   5.4451   5.4613
  5.4833   5.5070   5.5118   5.5332   5.5991   5.6146   5.6193   5.6434
  5.6618   5.6927   5.7265   5.7516   5.7737   5.7974   5.8286   5.8803
  5.9177   5.9500   5.9888   6.0087   6.0411   6.0555   6.1118   6.2506
  6.4821   6.5674   6.6284   6.6725   6.7165   6.7598   7.0241   7.1192
  7.1814   7.2826   7.2908   7.3164   7.3355   7.3867   7.4266   7.4358
  7.4607   7.5009   7.5147   7.6224   7.7123   7.7547   7.8376   7.8488
  7.8942   7.9262   8.2324  24.4868  24.7097  24.7336  24.7950  24.8872
 24.9447  50.5808  50.6361  50.6504  50.7036
 --------------------------------------------------------------
 
          Ground-State Mulliken Net Atomic Charges

     Atom                 Charge (a.u.)    Spin (a.u.)
  --------------------------------------------------------
      1 C                    -0.033487      -0.016747
      2 O                    -0.146530       0.039951
      3 O                    -0.122868       0.003341
      4 C                    -0.128008       0.015465
      5 O                    -0.434406      -0.000957
      6 C                    -0.226510      -0.005979
      7 C                    -0.226643       0.043759
      8 O                    -0.279791       0.073448
      9 C                    -0.130424      -0.015091
     10 C                    -0.318374       0.862529
     11 H                     0.296201       0.006978
     12 H                     0.293882      -0.001281
     13 H                     0.343388       0.000290
     14 H                     0.271945       0.000751
     15 H                     0.275275       0.001935
     16 H                     0.241347       0.009145
     17 H                     0.325001      -0.017536
  --------------------------------------------------------
  Sum of atomic charges =    -0.000000
  Sum of spin   charges =     1.000000

 -----------------------------------------------------------------
                    Cartesian Multipole Moments
 -----------------------------------------------------------------
    Charge (ESU x 10^10)
                -0.0000
    Dipole Moment (Debye)
         X       0.8102      Y       0.9069      Z       1.2815
       Tot       1.7667
    Quadrupole Moments (Debye-Ang)
        XX     -54.9182     XY      11.4801     YY     -60.9583
        XZ      -1.5413     YZ      11.2412     ZZ     -53.9941
    Octopole Moments (Debye-Ang^2)
       XXX     -30.3086    XXY       6.6737    XYY     -12.4248
       YYY     -16.6456    XXZ     -16.2288    XYZ       6.7581
       YYZ     -24.7349    XZZ       4.4024    YZZ      11.0304
       ZZZ     -70.5250
    Hexadecapole Moments (Debye-Ang^3)
      XXXX    -415.6398   XXXY      76.1623   XXYY    -157.0813
      XYYY      67.5321   YYYY    -483.0786   XXXZ     -12.9393
      XXYZ       4.7987   XYYZ      -4.5996   YYYZ       5.2894
      XXZZ    -115.0428   XYZZ      23.7908   YYZZ    -152.0125
      XZZZ      35.6787   YZZZ      29.7556   ZZZZ    -445.6626
 -----------------------------------------------------------------
 Calculating analytic gradient of the SCF energy
 Gradient of CDS energy
            1           2           3           4           5           6
    1  -0.0001879   0.0001021  -0.0001134   0.0008192  -0.0009198  -0.0000220
    2   0.0002721   0.0000714  -0.0000256  -0.0014630   0.0013860   0.0002330
    3   0.0000461  -0.0000017   0.0000547   0.0018335  -0.0018621  -0.0000640
            7           8           9          10          11          12
    1   0.0004223  -0.0001072   0.0002119  -0.0003433  -0.0001950  -0.0000806
    2  -0.0000080   0.0000974  -0.0004006  -0.0003355   0.0000419   0.0002090
    3  -0.0001350   0.0000736  -0.0002348   0.0001144   0.0000813  -0.0000125
           13          14          15          16          17
    1   0.0003045   0.0001338   0.0001080  -0.0000019  -0.0001307
    2  -0.0000454   0.0001695   0.0000516  -0.0001196  -0.0001341
    3   0.0004098   0.0000014  -0.0001518  -0.0001511  -0.0000017
 Gradient of SCF Energy
            1           2           3           4           5           6
    1   0.0045290  -0.0037433   0.0014824   0.0033763  -0.0109291  -0.0144030
    2   0.0042324   0.0002463   0.0022484  -0.0099511  -0.0136836  -0.0031783
    3  -0.0088267  -0.0009373  -0.0009141  -0.0015266  -0.0052934  -0.0063828
            7           8           9          10          11          12
    1   0.0005998   0.0008925   0.0009487   0.0048848  -0.0059274  -0.0005917
    2  -0.0009995  -0.0046378   0.0033245   0.0027957  -0.0001368   0.0073593
    3   0.0062194   0.0010020   0.0033216   0.0042128   0.0039668   0.0057144
           13          14          15          16          17
    1   0.0114039   0.0092084   0.0039422  -0.0007491  -0.0049244
    2   0.0113832   0.0069168   0.0017180  -0.0031004  -0.0045372
    3   0.0066899   0.0025244  -0.0050698  -0.0041845  -0.0005162
 Max gradient component =       1.440E-02
 RMS gradient           =       5.738E-03
 Computing fast CPCM-SWIG gradient
 Updating gradient with PCM contributions...
 -- total gradient after adding PCM contribution --
---------------------------------------------------
  Atom         X              Y              Z     
---------------------------------------------------
   1       0.000214       0.000515      -0.000573
   2      -0.001339      -0.000913       0.000540
   3       0.001480       0.000237       0.000205
   4      -0.000174       0.000169      -0.000380
   5      -0.000911       0.000337       0.000481
   6      -0.000142      -0.000259       0.000175
   7       0.000184       0.000488      -0.000211
   8      -0.000081      -0.000264      -0.000846
   9       0.000193      -0.000289       0.000169
  10      -0.000032      -0.000204       0.000308
  11      -0.000063       0.000075      -0.000099
  12      -0.000110      -0.000114       0.000261
  13       0.000770       0.000102       0.000247
  14      -0.000091       0.000149      -0.000141
  15       0.000013      -0.000166       0.000029
  16       0.000016       0.000009       0.000083
  17       0.000072       0.000129      -0.000249
---------------------------------------------------
 Number of fixed atoms: 0
 Gradient time:  CPU 407.90 s  wall 57.63 s
 Geometry Optimization Parameters
   NAtoms,    NIC,     NZ,  NCons,   NDum,   NFix, NCnnct, MaxDiis
       17     151       0       0       0       0       0       0

 Cartesian Hessian Update
 Hessian updated using BFGS update


** GEOMETRY OPTIMIZATION IN DELOCALIZED INTERNAL COORDINATES **
   Searching for a Minimum

   Optimization Cycle:   2

                       Coordinates (Angstroms)
     ATOM                X               Y               Z
      1  C        -1.1227400832    0.1525788660    0.8963739393
      2  O        -1.3213603048    1.1049320452   -0.1833306533
      3  O        -0.0202838951    1.7534625402   -0.4388833614
      4  C         0.0929036144    0.7499747714    1.5948348841
      5  O         0.6081700651   -0.1099779809    2.5808830689
      6  C         0.9279637328    1.0270927654    0.3397881416
      7  C         1.3258305449   -0.1979882292   -0.4594653143
      8  O         1.6555324177   -1.3810861886    0.2549724290
      9  C         0.3816707084   -1.3247138635   -0.4737499382
     10  C        -0.8419257657   -1.1860189976    0.3129066982
     11  H        -2.0283812532    0.1901249653    1.4945505338
     12  H        -0.1793268648    1.7141616044    2.0256025492
     13  H         1.3177602994    0.3527215546    3.0413954260
     14  H         1.7576821193    1.7089398517    0.5134033546
     15  H         1.9359315631   -0.0024781527   -1.3332356800
     16  H         0.3710841988   -1.9957034096   -1.3214797281
     17  H        -1.5946451971   -1.9584950424    0.3029707505
   Point Group: c1    Number of degrees of freedom:    45


   Energy is   -533.561059344

 Hessian updated using BFGS update

 45 Hessian modes will be used to form the next step
  Hessian Eigenvalues:
     0.010201    0.012213    0.014452    0.018149    0.020573    0.021824
     0.024716    0.032621    0.035770    0.041540    0.050775    0.056527
     0.073484    0.076236    0.078692    0.080944    0.086584    0.096999
     0.103026    0.104720    0.115780    0.126344    0.154114    0.156377
     0.163745    0.176568    0.224433    0.242083    0.252411    0.276029
     0.289956    0.298119    0.323461    0.339934    0.342668    0.345518
     0.347423    0.349628    0.351184    0.353122    0.357491    0.379689
     0.405716    0.445492    0.518468

 Minimum search - taking simple RFO step
 Searching for Lamda that Minimizes Along All modes
 Value Taken    Lamda =  -0.00006494
 Step Taken.  Stepsize is  0.046221

                             Maximum     Tolerance    Cnvgd?
         Gradient           0.001236      0.000300      NO
         Displacement       0.016814      0.001200      NO
         Energy change     -0.000345      0.000001      NO


 New Cartesian Coordinates Obtained by Inverse Iteration

 Displacement from previous Coordinates is:  0.057084
 ----------------------------------------------------------------
             Standard Nuclear Orientation (Angstroms)
    I     Atom           X                Y                Z
 ----------------------------------------------------------------
    1      C      -1.1238863801     0.1541286848     0.8953876912
    2      O      -1.3232812965     1.1084792312    -0.1831475544
    3      O      -0.0247013518     1.7548058125    -0.4427224521
    4      C       0.0940831655     0.7483857168     1.5915513803
    5      O       0.6143942056    -0.1187560167     2.5682508155
    6      C       0.9253463938     1.0305496145     0.3362694377
    7      C       1.3251680873    -0.1965307008    -0.4567605710
    8      O       1.6515354640    -1.3747562542     0.2668139792
    9      C       0.3819783363    -1.3232715013    -0.4704345711
   10      C      -0.8446370637    -1.1830890980     0.3100094362
   11      H      -2.0272834732     0.1908817107     1.4961879922
   12      H      -0.1757453968     1.7103524593     2.0273841490
   13      H       1.3175159936     0.3440395955     3.0357638824
   14      H       1.7548616072     1.7116866491     0.5109492648
   15      H       1.9394019656    -0.0043014092    -1.3278158469
   16      H       0.3764536411    -1.9978238632    -1.3148615226
   17      H      -1.5953379976    -1.9572535312     0.3047115895
 ----------------------------------------------------------------
 Nuclear Repulsion Energy =         585.78231424 hartrees
 There are       38 alpha and       37 beta electrons
 Discretize the solute cavity surface with Lebedev spheres
	Using 110 Lebedev grid points for each H atom
	Using 194 Lebedev grid points for other atoms
	Atomic van der Waals radii will be scaled by 1.20
 Remove points where switching function is < 1.0e-08
 Keep 1248 surface tesserae and discard 1462 interior tesserae
 Molecular Surface Area = 140.845 Angst**2
 Applying Cartesian multipole field
    Component          Value
    ---------          -----
     (2,0,0)        1.00000E-11
     (0,2,0)        2.00000E-11
     (0,0,2)       -3.00000E-11
 Nucleus-field energy     =    -0.0000000010 hartrees
 Requested basis set is 6-311++G(2df,2p)
 There are 122 shells and 410 basis functions
 A cutoff of  1.0D-12 yielded   7030 shell pairs
 There are     80675 function pairs (    101719 Cartesian)
 Smallest overlap matrix eigenvalue = 5.01E-06
 Guess MOs from SCF MO coefficient file

 -----------------------------------------------------------------------
  General SCF calculation program by
  Eric Jon Sundstrom, Paul Horn, Yuezhi Mao, Dmitri Zuev, Alec White,
  David Stuck, Shaama M.S., Shane Yost, Joonho Lee, David Small,
  Daniel Levine, Susi Lehtola, Hugh Burton, Evgeny Epifanovsky,
  Bang C. Huynh
 -----------------------------------------------------------------------
 Exchange:     0.1500 Hartree-Fock + 1.0000 wB97M-V + LR-HF
 Correlation:  1.0000 wB97M-V
 Using SG-2 standard quadrature grid
 Nonlocal Correlation:  VV10 with C = 0.0100 and b = 6.00 and scale = 1.00000
 Grid used for NLC:  SG-1 standard quadrature
 
 Citation of the SMD model:
 Marenich, A.V.; Cramer, C.J.; Truhlar, D.G.
 J. Phys. Chem. B 2009, 113, 6378-6396.
 iSolventCode=           1
 Solvent: water                                                           
 
 vradii
            1           2           3           4           5           6
    1   1.8500000   1.5200000   1.5200000   1.8500000   1.5200000   1.8500000
            7           8           9          10          11          12
    1   1.8500000   1.5200000   1.8500000   1.8500000   1.2000000   1.2000000
           13          14          15          16          17
    1   1.2000000   1.2000000   1.2000000   1.2000000   1.2000000
 -------------------------------------------------------
 OpenMP BLAS3 based DFT computing Module                
 Release: version 1.0, May 2013, Q-Chem Inc. Pittsburgh 
 -------------------------------------------------------
 A unrestricted SCF calculation will be
 performed using Roothaan-Hall, DIIS, GDM
 SCF converges when RMS gradient is below 1.0e-07
 ---------------------------------------
  Cycle       Energy         DIIS error
 ---------------------------------------
    1    -533.5282160939      2.18e-04  Roothaan Step
 ---------------------------------------
  Cycle       Energy         DIIS error
 ---------------------------------------
    1    -533.5571925991      2.45e-04  
    2    -533.5619384369      2.15e-04  Done DIIS. Switching to GDM
 ---------------------------------------
  Cycle       Energy        RMS Gradient
 ---------------------------------------
    1    -533.5619384369      6.10e-03   Normal BFGS step
    2    -533.5616290403      8.62e-03  Line search: overstep
    3    -533.5644705156      1.67e-03   Normal BFGS step
    4    -533.5646116782      5.46e-04   Normal BFGS step
    5    -533.5646432347      2.39e-04   Normal BFGS step
    6    -533.5646469473      1.41e-04   Normal BFGS step
    7    -533.5646478273      8.97e-05   Normal BFGS step
    8    -533.5646479866      5.68e-05   Normal BFGS step
    9    -533.5646480147      3.20e-05   Normal BFGS step
   10    -533.5646480239      1.95e-05   Normal BFGS step
   11    -533.5646480256      9.03e-06   Normal BFGS step
   12    -533.5646480260      1.67e-06   Normal BFGS step
   13    -533.5646480261      1.09e-06   Normal BFGS step
   14    -533.5646480261      5.63e-07   Normal BFGS step
   15    -533.5646480261      3.05e-07   Normal BFGS step
   16    -533.5646480261      1.44e-07   Normal BFGS step
   17    -533.5646480261      7.54e-08  Convergence criterion met
 ---------------------------------------
 SCF time:   CPU 2325.81s  wall 293.00s 
<S^2> =          0.755084482
(3)  G-ENP(liq) elect-nuc-pol free energy of system     -533.564648026 a.u.
(4)  G-CDS(liq) cavity-dispersion-solvent structure 
     free energy                                                2.2379 kcal/mol
(6)  G-S(liq) free energy of system                     -533.561081779 a.u.
 SCF   energy in the final basis set =     -533.5610817794
 Total energy in the final basis set =     -533.5610817794
 
 --------------------------------------------------------------
 
                    Orbital Energies (a.u.)
 --------------------------------------------------------------
 
 Alpha MOs
 -- Occupied --
-19.4052 -19.4034 -19.3601 -19.3481 -10.4099 -10.4089 -10.4080 -10.4041
-10.4036 -10.3672  -1.2710  -1.2146  -1.1712  -1.0706  -0.9463  -0.8702
 -0.8253  -0.7615  -0.7281  -0.7018  -0.6693  -0.6364  -0.6115  -0.5854
 -0.5759  -0.5633  -0.5498  -0.5323  -0.5059  -0.4975  -0.4867  -0.4602
 -0.4543  -0.4206  -0.4084  -0.3905  -0.3595  -0.3146
 -- Virtual --
  0.0250   0.0360   0.0372   0.0461   0.0571   0.0590   0.0704   0.0864
  0.0877   0.0956   0.1140   0.1250   0.1336   0.1361   0.1373   0.1418
  0.1449   0.1488   0.1538   0.1573   0.1609   0.1651   0.1707   0.1830
  0.1883   0.1908   0.1937   0.1997   0.2094   0.2246   0.2306   0.2382
  0.2419   0.2469   0.2579   0.2716   0.2821   0.2936   0.3004   0.3083
  0.3157   0.3217   0.3291   0.3369   0.3465   0.3504   0.3602   0.3652
  0.3697   0.3724   0.3824   0.3852   0.3903   0.3986   0.4000   0.4012
  0.4103   0.4163   0.4257   0.4333   0.4374   0.4614   0.4666   0.4818
  0.4918   0.5038   0.5391   0.5462   0.5910   0.5953   0.6075   0.6138
  0.6303   0.6426   0.6551   0.6632   0.6692   0.6779   0.6878   0.6958
  0.7092   0.7181   0.7233   0.7313   0.7444   0.7481   0.7575   0.7679
  0.7834   0.7947   0.8142   0.8325   0.8435   0.8536   0.8766   0.9100
  0.9281   0.9365   0.9616   0.9923   1.0336   1.0435   1.0527   1.0769
  1.0858   1.1175   1.1260   1.1359   1.1420   1.1601   1.1661   1.1799
  1.1946   1.2038   1.2110   1.2183   1.2284   1.2416   1.2507   1.2556
  1.2719   1.2776   1.2919   1.2969   1.3119   1.3164   1.3248   1.3328
  1.3353   1.3489   1.3635   1.3827   1.3970   1.4046   1.4115   1.4161
  1.4353   1.4743   1.4828   1.4942   1.5012   1.5224   1.5250   1.5509
  1.5521   1.5768   1.5858   1.6075   1.6239   1.6359   1.6566   1.6649
  1.7081   1.7130   1.7462   1.7715   1.8060   1.8162   1.8285   1.8493
  1.8943   1.9082   1.9416   1.9496   1.9889   2.0104   2.0515   2.0771
  2.0971   2.1058   2.1534   2.1706   2.1849   2.2450   2.2611   2.2702
  2.3084   2.3414   2.3876   2.4097   2.4292   2.4501   2.5360   2.6297
  2.6746   2.6974   2.7096   2.7265   2.7736   2.7943   2.8026   2.8258
  2.8463   2.8602   2.8794   2.8932   2.9039   2.9190   2.9390   2.9760
  2.9830   3.0155   3.0297   3.0366   3.0497   3.0751   3.1134   3.1200
  3.1505   3.1683   3.1977   3.2460   3.2605   3.2666   3.2904   3.3041
  3.3433   3.3537   3.3841   3.3915   3.4031   3.4322   3.4438   3.4573
  3.4691   3.5048   3.5131   3.5405   3.5747   3.5847   3.5913   3.6040
  3.6197   3.6518   3.6583   3.6747   3.7013   3.7136   3.7215   3.7426
  3.7478   3.7586   3.7867   3.8246   3.8301   3.8491   3.8562   3.8636
  3.8874   3.8919   3.9223   3.9243   3.9536   3.9770   4.0082   4.0172
  4.0614   4.0673   4.0865   4.1039   4.1386   4.1833   4.2070   4.2280
  4.2644   4.2836   4.3076   4.3221   4.3324   4.3364   4.3676   4.3842
  4.3904   4.3993   4.4303   4.4482   4.4679   4.4801   4.5021   4.5185
  4.5520   4.5749   4.5940   4.6109   4.6223   4.6804   4.6978   4.7240
  4.7446   4.7737   4.8088   4.8699   4.9393   5.0023   5.0643   5.1422
  5.1921   5.2277   5.2660   5.2754   5.2914   5.2963   5.3202   5.3292
  5.3413   5.3511   5.3605   5.4027   5.4126   5.4434   5.4551   5.4818
  5.5052   5.5102   5.5242   5.5943   5.6110   5.6151   5.6311   5.6561
  5.6963   5.7185   5.7509   5.7690   5.7907   5.8197   5.8792   5.9104
  5.9509   5.9776   6.0081   6.0378   6.0558   6.1132   6.2536   6.4739
  6.5611   6.6261   6.6730   6.7216   6.7597   7.0224   7.1199   7.1738
  7.2768   7.2878   7.3193   7.3366   7.3839   7.4247   7.4343   7.4599
  7.4987   7.5152   7.6198   7.7134   7.7466   7.8350   7.8449   7.8929
  7.9262   8.2298  24.4828  24.7095  24.7355  24.7981  24.8887  24.9448
 50.5805  50.6374  50.6490  50.7029
 
 Beta MOs
 -- Occupied --
-19.4051 -19.4013 -19.3571 -19.3480 -10.4097 -10.4094 -10.4080 -10.4052
-10.4030 -10.3549  -1.2690  -1.2091  -1.1708  -1.0676  -0.9389  -0.8563
 -0.8223  -0.7576  -0.7240  -0.6975  -0.6640  -0.6327  -0.6075  -0.5798
 -0.5732  -0.5589  -0.5428  -0.5265  -0.5004  -0.4935  -0.4820  -0.4562
 -0.4490  -0.4130  -0.4062  -0.3865  -0.3556
 -- Virtual --
 -0.0179   0.0251   0.0358   0.0369   0.0473   0.0569   0.0587   0.0725
  0.0873   0.0913   0.0957   0.1137   0.1245   0.1330   0.1358   0.1367
  0.1429   0.1450   0.1483   0.1540   0.1576   0.1607   0.1650   0.1706
  0.1841   0.1880   0.1901   0.1950   0.2002   0.2100   0.2241   0.2305
  0.2372   0.2418   0.2469   0.2648   0.2747   0.2830   0.2950   0.3025
  0.3103   0.3162   0.3235   0.3295   0.3433   0.3472   0.3518   0.3604
  0.3665   0.3717   0.3737   0.3833   0.3853   0.3909   0.3997   0.4011
  0.4022   0.4109   0.4181   0.4268   0.4329   0.4406   0.4635   0.4699
  0.4845   0.4918   0.5052   0.5412   0.5480   0.5984   0.6012   0.6110
  0.6194   0.6314   0.6445   0.6564   0.6698   0.6737   0.6798   0.6906
  0.6971   0.7128   0.7202   0.7251   0.7333   0.7468   0.7546   0.7597
  0.7732   0.7862   0.7964   0.8183   0.8391   0.8449   0.8570   0.8804
  0.9109   0.9295   0.9380   0.9627   0.9951   1.0354   1.0451   1.0546
  1.0768   1.0876   1.1196   1.1294   1.1398   1.1436   1.1621   1.1666
  1.1811   1.1962   1.2070   1.2128   1.2223   1.2298   1.2462   1.2526
  1.2569   1.2733   1.2824   1.2931   1.2991   1.3141   1.3186   1.3265
  1.3342   1.3382   1.3507   1.3658   1.3861   1.4003   1.4074   1.4147
  1.4215   1.4402   1.4779   1.4849   1.4975   1.5044   1.5257   1.5285
  1.5527   1.5563   1.5837   1.5902   1.6112   1.6244   1.6390   1.6621
  1.6678   1.7126   1.7215   1.7496   1.7747   1.8081   1.8200   1.8312
  1.8531   1.8993   1.9112   1.9442   1.9520   1.9925   2.0141   2.0532
  2.0800   2.0998   2.1091   2.1598   2.1759   2.1874   2.2471   2.2646
  2.2727   2.3101   2.3430   2.3898   2.4126   2.4317   2.4516   2.5382
  2.6391   2.6878   2.7004   2.7125   2.7301   2.7786   2.8003   2.8142
  2.8382   2.8561   2.8704   2.8913   2.9006   2.9217   2.9308   2.9764
  2.9936   3.0124   3.0276   3.0376   3.0550   3.0640   3.0853   3.1175
  3.1273   3.1589   3.1754   3.2123   3.2541   3.2709   3.2790   3.2990
  3.3115   3.3484   3.3684   3.3970   3.4035   3.4164   3.4448   3.4608
  3.4675   3.4821   3.5141   3.5173   3.5503   3.5829   3.5961   3.6005
  3.6160   3.6299   3.6640   3.6699   3.6887   3.7117   3.7260   3.7289
  3.7486   3.7538   3.7639   3.7957   3.8304   3.8372   3.8562   3.8636
  3.8719   3.8921   3.8951   3.9287   3.9320   3.9590   3.9865   4.0144
  4.0241   4.0696   4.0735   4.0962   4.1143   4.1532   4.1880   4.2172
  4.2380   4.2722   4.2927   4.3139   4.3265   4.3401   4.3448   4.3740
  4.3900   4.4020   4.4062   4.4398   4.4568   4.4766   4.4896   4.5140
  4.5246   4.5618   4.5851   4.6047   4.6182   4.6276   4.6829   4.7032
  4.7307   4.7518   4.7769   4.8164   4.8758   4.9533   5.0181   5.0707
  5.1520   5.2081   5.2347   5.2687   5.2795   5.2937   5.2993   5.3258
  5.3336   5.3438   5.3558   5.3635   5.4049   5.4211   5.4455   5.4617
  5.4847   5.5087   5.5126   5.5352   5.6010   5.6163   5.6200   5.6447
  5.6625   5.6974   5.7285   5.7546   5.7772   5.8001   5.8300   5.8821
  5.9189   5.9539   5.9891   6.0118   6.0426   6.0572   6.1149   6.2554
  6.4820   6.5659   6.6287   6.6738   6.7233   6.7606   7.0248   7.1205
  7.1819   7.2831   7.2926   7.3214   7.3370   7.3876   7.4276   7.4356
  7.4627   7.5040   7.5171   7.6233   7.7141   7.7559   7.8393   7.8495
  7.8965   7.9288   8.2313  24.4883  24.7116  24.7356  24.7984  24.8904
 24.9481  50.5815  50.6379  50.6497  50.7047
 --------------------------------------------------------------
 
          Ground-State Mulliken Net Atomic Charges

     Atom                 Charge (a.u.)    Spin (a.u.)
  --------------------------------------------------------
      1 C                    -0.039669      -0.016581
      2 O                    -0.146191       0.039981
      3 O                    -0.123583       0.003415
      4 C                    -0.120450       0.015381
      5 O                    -0.433039      -0.001019
      6 C                    -0.230147      -0.006148
      7 C                    -0.227876       0.044075
      8 O                    -0.277532       0.073936
      9 C                    -0.131551      -0.015642
     10 C                    -0.316454       0.862408
     11 H                     0.296273       0.006964
     12 H                     0.293236      -0.001302
     13 H                     0.342764       0.000309
     14 H                     0.272179       0.000745
     15 H                     0.275394       0.001931
     16 H                     0.241796       0.009037
     17 H                     0.324849      -0.017489
  --------------------------------------------------------
  Sum of atomic charges =    -0.000000
  Sum of spin   charges =     1.000000

 -----------------------------------------------------------------
                    Cartesian Multipole Moments
 -----------------------------------------------------------------
    Charge (ESU x 10^10)
                 0.0000
    Dipole Moment (Debye)
         X       0.8174      Y       0.8897      Z       1.3048
       Tot       1.7783
    Quadrupole Moments (Debye-Ang)
        XX     -54.9453     XY      11.4500     YY     -60.9499
        XZ      -1.6110     YZ      11.2367     ZZ     -53.9151
    Octopole Moments (Debye-Ang^2)
       XXX     -30.0867    XXY       6.4808    XYY     -12.2617
       YYY     -16.9577    XXZ     -16.2795    XYZ       6.7625
       YYZ     -24.7213    XZZ       4.3189    YZZ      10.9149
       ZZZ     -69.8980
    Hexadecapole Moments (Debye-Ang^3)
      XXXX    -415.7565   XXXY      76.0525   XXYY    -156.9688
      XYYY      67.5109   YYYY    -482.6521   XXXZ     -13.7024
      XXYZ       5.0642   XYYZ      -4.9503   YYYZ       6.1775
      XXZZ    -114.8294   XYZZ      23.6468   YYZZ    -151.6987
      XZZZ      34.8348   YZZZ      30.3478   ZZZZ    -441.5012
 -----------------------------------------------------------------
 Calculating analytic gradient of the SCF energy
 Gradient of CDS energy
            1           2           3           4           5           6
    1  -0.0001895   0.0001025  -0.0001142   0.0008392  -0.0009384  -0.0000221
    2   0.0002725   0.0000712  -0.0000261  -0.0014925   0.0014142   0.0002366
    3   0.0000462  -0.0000024   0.0000543   0.0018439  -0.0018711  -0.0000656
            7           8           9          10          11          12
    1   0.0004230  -0.0001088   0.0002125  -0.0003454  -0.0001940  -0.0000810
    2  -0.0000117   0.0001017  -0.0004011  -0.0003336   0.0000412   0.0002092
    3  -0.0001313   0.0000714  -0.0002322   0.0001101   0.0000822  -0.0000152
           13          14          15          16          17
    1   0.0003047   0.0001341   0.0001085  -0.0000010  -0.0001302
    2  -0.0000464   0.0001679   0.0000511  -0.0001200  -0.0001343
    3   0.0004095   0.0000025  -0.0001510  -0.0001502  -0.0000009
 Gradient of SCF Energy
            1           2           3           4           5           6
    1   0.0042306  -0.0025747   0.0004379   0.0034773  -0.0095731  -0.0143712
    2   0.0040924   0.0006628   0.0020714  -0.0101629  -0.0136217  -0.0028255
    3  -0.0086131  -0.0010984  -0.0012015  -0.0015222  -0.0056024  -0.0064863
            7           8           9          10          11          12
    1   0.0003143   0.0006178   0.0010275   0.0048910  -0.0056155  -0.0004440
    2  -0.0012531  -0.0042468   0.0035849   0.0028624  -0.0003013   0.0072440
    3   0.0063940   0.0018482   0.0032998   0.0039646   0.0039882   0.0052879
           13          14          15          16          17
    1   0.0103102   0.0091236   0.0037416  -0.0007773  -0.0048162
    2   0.0107894   0.0065606   0.0018688  -0.0028866  -0.0044389
    3   0.0061624   0.0026707  -0.0047674  -0.0039895  -0.0003348
 Max gradient component =       1.437E-02
 RMS gradient           =       5.554E-03
 Computing fast CPCM-SWIG gradient
 Updating gradient with PCM contributions...
 -- total gradient after adding PCM contribution --
---------------------------------------------------
  Atom         X              Y              Z     
---------------------------------------------------
   1      -0.000075       0.000307      -0.000258
   2      -0.000132      -0.000475       0.000361
   3       0.000398       0.000046      -0.000072
   4      -0.000122       0.000009      -0.000264
   5       0.000328       0.000299       0.000141
   6      -0.000033       0.000073      -0.000009
   7      -0.000111       0.000246      -0.000007
   8      -0.000366       0.000179       0.000174
   9       0.000223      -0.000055       0.000076
  10       0.000043      -0.000063       0.000082
  11       0.000236      -0.000084      -0.000111
  12       0.000036      -0.000272      -0.000207
  13      -0.000180      -0.000477      -0.000390
  14      -0.000166      -0.000178      -0.000011
  15      -0.000206      -0.000014       0.000335
  16      -0.000037       0.000228       0.000257
  17       0.000163       0.000232      -0.000097
---------------------------------------------------
 Number of fixed atoms: 0
 Gradient time:  CPU 407.93 s  wall 57.10 s
 Geometry Optimization Parameters
   NAtoms,    NIC,     NZ,  NCons,   NDum,   NFix, NCnnct, MaxDiis
       17     151       0       0       0       0       0       0

 Cartesian Hessian Update
 Hessian updated using BFGS update


** GEOMETRY OPTIMIZATION IN DELOCALIZED INTERNAL COORDINATES **
   Searching for a Minimum

   Optimization Cycle:   3

                       Coordinates (Angstroms)
     ATOM                X               Y               Z
      1  C        -1.1238863801    0.1541286848    0.8953876912
      2  O        -1.3232812965    1.1084792312   -0.1831475544
      3  O        -0.0247013518    1.7548058125   -0.4427224521
      4  C         0.0940831655    0.7483857168    1.5915513803
      5  O         0.6143942056   -0.1187560167    2.5682508155
      6  C         0.9253463938    1.0305496145    0.3362694377
      7  C         1.3251680873   -0.1965307008   -0.4567605710
      8  O         1.6515354640   -1.3747562542    0.2668139792
      9  C         0.3819783363   -1.3232715013   -0.4704345711
     10  C        -0.8446370637   -1.1830890980    0.3100094362
     11  H        -2.0272834732    0.1908817107    1.4961879922
     12  H        -0.1757453968    1.7103524593    2.0273841490
     13  H         1.3175159936    0.3440395955    3.0357638824
     14  H         1.7548616072    1.7116866491    0.5109492648
     15  H         1.9394019656   -0.0043014092   -1.3278158469
     16  H         0.3764536411   -1.9978238632   -1.3148615226
     17  H        -1.5953379976   -1.9572535312    0.3047115895
   Point Group: c1    Number of degrees of freedom:    45


   Energy is   -533.561081779

 Hessian updated using BFGS update

 45 Hessian modes will be used to form the next step
  Hessian Eigenvalues:
     0.010078    0.011046    0.012978    0.018524    0.020695    0.023340
     0.026103    0.032648    0.036727    0.043335    0.050780    0.056685
     0.075021    0.076573    0.080601    0.085818    0.086597    0.097022
     0.103033    0.106001    0.116446    0.126350    0.154055    0.160413
     0.162541    0.181836    0.225180    0.244442    0.258688    0.275066
     0.293840    0.302747    0.332393    0.341612    0.344209    0.345396
     0.347209    0.349440    0.351818    0.355828    0.360612    0.379361
     0.394709    0.445380    0.528291

 Minimum search - taking simple RFO step
 Searching for Lamda that Minimizes Along All modes
 Value Taken    Lamda =  -0.00001980
 Step Taken.  Stepsize is  0.024792

                             Maximum     Tolerance    Cnvgd?
         Gradient           0.001160      0.000300      NO
         Displacement       0.010688      0.001200      NO
         Energy change     -0.000022      0.000001      NO


 New Cartesian Coordinates Obtained by Inverse Iteration

 Displacement from previous Coordinates is:  0.034759
 ----------------------------------------------------------------
             Standard Nuclear Orientation (Angstroms)
    I     Atom           X                Y                Z
 ----------------------------------------------------------------
    1      C      -1.1228370319     0.1531771836     0.8961471589
    2      O      -1.3220864145     1.1089962524    -0.1820337515
    3      O      -0.0239654792     1.7549338851    -0.4412928673
    4      C       0.0951713727     0.7480780009     1.5924155888
    5      O       0.6146356925    -0.1169470042     2.5713805840
    6      C       0.9266810230     1.0293251974     0.3363198469
    7      C       1.3253925488    -0.1975451758    -0.4591828168
    8      O       1.6524850908    -1.3772147761     0.2617685369
    9      C       0.3813827121    -1.3238016643    -0.4734608135
   10      C      -0.8441803363    -1.1839325725     0.3093193045
   11      H      -2.0264532008     0.1900585831     1.4971763544
   12      H      -0.1754614196     1.7108077836     2.0270622695
   13      H       1.3097961435     0.3520636691     3.0451238077
   14      H       1.7568879555     1.7101109493     0.5109239285
   15      H       1.9385976861    -0.0041254631    -1.3312912811
   16      H       0.3744124834    -1.9975497470    -1.3190697256
   17      H      -1.5945929262    -1.9589080019     0.3062309756
 ----------------------------------------------------------------
 Nuclear Repulsion Energy =         585.55416873 hartrees
 There are       38 alpha and       37 beta electrons
 Discretize the solute cavity surface with Lebedev spheres
	Using 110 Lebedev grid points for each H atom
	Using 194 Lebedev grid points for other atoms
	Atomic van der Waals radii will be scaled by 1.20
 Remove points where switching function is < 1.0e-08
 Keep 1247 surface tesserae and discard 1463 interior tesserae
 Molecular Surface Area = 140.923 Angst**2
 Applying Cartesian multipole field
    Component          Value
    ---------          -----
     (2,0,0)        1.00000E-11
     (0,2,0)        2.00000E-11
     (0,0,2)       -3.00000E-11
 Nucleus-field energy     =    -0.0000000010 hartrees
 Requested basis set is 6-311++G(2df,2p)
 There are 122 shells and 410 basis functions
 A cutoff of  1.0D-12 yielded   7028 shell pairs
 There are     80653 function pairs (    101691 Cartesian)
 Smallest overlap matrix eigenvalue = 5.02E-06
 Guess MOs from SCF MO coefficient file

 -----------------------------------------------------------------------
  General SCF calculation program by
  Eric Jon Sundstrom, Paul Horn, Yuezhi Mao, Dmitri Zuev, Alec White,
  David Stuck, Shaama M.S., Shane Yost, Joonho Lee, David Small,
  Daniel Levine, Susi Lehtola, Hugh Burton, Evgeny Epifanovsky,
  Bang C. Huynh
 -----------------------------------------------------------------------
 Exchange:     0.1500 Hartree-Fock + 1.0000 wB97M-V + LR-HF
 Correlation:  1.0000 wB97M-V
 Using SG-2 standard quadrature grid
 Nonlocal Correlation:  VV10 with C = 0.0100 and b = 6.00 and scale = 1.00000
 Grid used for NLC:  SG-1 standard quadrature
 
 Citation of the SMD model:
 Marenich, A.V.; Cramer, C.J.; Truhlar, D.G.
 J. Phys. Chem. B 2009, 113, 6378-6396.
 iSolventCode=           1
 Solvent: water                                                           
 
 vradii
            1           2           3           4           5           6
    1   1.8500000   1.5200000   1.5200000   1.8500000   1.5200000   1.8500000
            7           8           9          10          11          12
    1   1.8500000   1.5200000   1.8500000   1.8500000   1.2000000   1.2000000
           13          14          15          16          17
    1   1.2000000   1.2000000   1.2000000   1.2000000   1.2000000
 -------------------------------------------------------
 OpenMP BLAS3 based DFT computing Module                
 Release: version 1.0, May 2013, Q-Chem Inc. Pittsburgh 
 -------------------------------------------------------
 A unrestricted SCF calculation will be
 performed using Roothaan-Hall, DIIS, GDM
 SCF converges when RMS gradient is below 1.0e-07
 ---------------------------------------
  Cycle       Energy         DIIS error
 ---------------------------------------
    1    -533.5283328843      2.15e-04  Roothaan Step
 ---------------------------------------
  Cycle       Energy         DIIS error
 ---------------------------------------
    1    -533.5572017009      2.45e-04  
    2    -533.5619662787      2.14e-04  Done DIIS. Switching to GDM
 ---------------------------------------
  Cycle       Energy        RMS Gradient
 ---------------------------------------
    1    -533.5619662787      6.16e-03   Normal BFGS step
    2    -533.5616705362      8.63e-03  Line search: overstep
    3    -533.5644871238      1.65e-03   Normal BFGS step
    4    -533.5646288658      5.43e-04   Normal BFGS step
    5    -533.5646605404      2.58e-04   Normal BFGS step
[...]
     14 H                     0.271297       0.000717
     15 H                     0.274345       0.001948
     16 H                     0.242875       0.009222
     17 H                     0.324320      -0.017563
  --------------------------------------------------------
  Sum of atomic charges =     0.000000
  Sum of spin   charges =     1.000000

 -----------------------------------------------------------------
                    Cartesian Multipole Moments
 -----------------------------------------------------------------
    Charge (ESU x 10^10)
                 0.0000
    Dipole Moment (Debye)
         X       0.6127      Y       0.9837      Z       1.5139
       Tot       1.9066
    Quadrupole Moments (Debye-Ang)
        XX     -55.5790     XY      11.5587     YY     -60.9069
        XZ      -1.9706     YZ      11.5453     ZZ     -52.6402
    Octopole Moments (Debye-Ang^2)
       XXX     -31.8537    XXY       6.7402    XYY     -12.6430
       YYY     -16.6311    XXZ     -17.2606    XYZ       6.9899
       YYZ     -24.0439    XZZ       3.6594    YZZ      12.3500
       ZZZ     -63.5113
    Hexadecapole Moments (Debye-Ang^3)
      XXXX    -417.5724   XXXY      75.6640   XXYY    -157.0537
      XYYY      67.5299   YYYY    -483.0950   XXXZ     -16.1115
      XXYZ       4.6564   XYYZ      -4.6552   YYYZ       5.6466
      XXZZ    -117.8813   XYZZ      24.6432   YYZZ    -150.7906
      XZZZ      35.8413   YZZZ      35.1514   ZZZZ    -418.4011
 -----------------------------------------------------------------
 Calculating analytic gradient of the SCF energy
 Gradient of CDS energy
            1           2           3           4           5           6
    1  -0.0001905   0.0001027  -0.0001140   0.0008190  -0.0009213  -0.0000019
    2   0.0002727   0.0000711  -0.0000263  -0.0014573   0.0013641   0.0002363
    3   0.0000464  -0.0000026   0.0000547   0.0017934  -0.0018312  -0.0000476
            7           8           9          10          11          12
    1   0.0004218  -0.0001073   0.0002093  -0.0003446  -0.0001937  -0.0000812
    2  -0.0000125   0.0000986  -0.0003988  -0.0003338   0.0000418   0.0002071
    3  -0.0001369   0.0000743  -0.0002370   0.0001113   0.0000831  -0.0000251
           13          14          15          16          17
    1   0.0002907   0.0001345   0.0001079  -0.0000022  -0.0001291
    2  -0.0000269   0.0001681   0.0000517  -0.0001198  -0.0001360
    3   0.0004156   0.0000020  -0.0001521  -0.0001512   0.0000028
 Gradient of SCF Energy
            1           2           3           4           5           6
    1   0.0042944  -0.0024833  -0.0000078   0.0035709  -0.0083251  -0.0138961
    2   0.0037835   0.0011442   0.0021023  -0.0107213  -0.0147804  -0.0025783
    3  -0.0084377  -0.0015119  -0.0011794  -0.0015250  -0.0075738  -0.0063407
            7           8           9          10          11          12
    1   0.0008104   0.0014248   0.0003228   0.0049441  -0.0059428  -0.0005959
    2  -0.0012097  -0.0043047   0.0032206   0.0030592  -0.0001760   0.0078683
    3   0.0063053   0.0019942   0.0027653   0.0037145   0.0042328   0.0059894
           13          14          15          16          17
    1   0.0090367   0.0088094   0.0037084  -0.0007591  -0.0049118
    2   0.0119156   0.0065286   0.0018027  -0.0029711  -0.0046834
    3   0.0080189   0.0025317  -0.0047979  -0.0040808  -0.0001050
 Max gradient component =       1.478E-02
 RMS gradient           =       5.679E-03
 Computing fast CPCM-SWIG gradient
 Updating gradient with PCM contributions...
 -- total gradient after adding PCM contribution --
---------------------------------------------------
  Atom         X              Y              Z     
---------------------------------------------------
   1       0.000031      -0.000048       0.000042
   2      -0.000047       0.000005      -0.000062
   3       0.000017       0.000000       0.000006
   4      -0.000027       0.000026      -0.000037
   5       0.000003       0.000001       0.000013
   6       0.000008       0.000002       0.000017
   7      -0.000000      -0.000031       0.000028
   8       0.000077       0.000011       0.000053
   9      -0.000099       0.000027      -0.000053
  10      -0.000002       0.000018      -0.000021
  11      -0.000005       0.000001      -0.000031
  12      -0.000007      -0.000008      -0.000007
  13      -0.000012      -0.000004       0.000000
  14      -0.000005       0.000001       0.000004
  15       0.000002       0.000008       0.000017
  16       0.000034       0.000008       0.000012
  17       0.000032      -0.000017       0.000019
---------------------------------------------------
 Number of fixed atoms: 0
 Gradient time:  CPU 423.89 s  wall 61.42 s
 Geometry Optimization Parameters
   NAtoms,    NIC,     NZ,  NCons,   NDum,   NFix, NCnnct, MaxDiis
       17     151       0       0       0       0       0       0

 Cartesian Hessian Update
 Hessian updated using BFGS update


** GEOMETRY OPTIMIZATION IN DELOCALIZED INTERNAL COORDINATES **
   Searching for a Minimum

   Optimization Cycle:   9

                       Coordinates (Angstroms)
     ATOM                X               Y               Z
      1  C        -1.1170613374    0.1523573205    0.8966375857
      2  O        -1.3179571462    1.1078482845   -0.1818832667
      3  O        -0.0210660090    1.7570395897   -0.4405765917
      4  C         0.1053878512    0.7439502289    1.5895595307
      5  O         0.6319348056   -0.1239707648    2.5626672089
      6  C         0.9318189846    1.0277260477    0.3303832178
      7  C         1.3234246525   -0.1979349610   -0.4708674913
      8  O         1.6533304896   -1.3803364189    0.2445245938
      9  C         0.3773374675   -1.3223874023   -0.4836195547
     10  C        -0.8418567471   -1.1850765156    0.3095690843
     11  H        -2.0183744544    0.1912886864    1.5009370126
     12  H        -0.1614453926    1.7049249315    2.0294065564
     13  H         1.2441342314    0.3791544216    3.1099729876
     14  H         1.7640499265    1.7066670383    0.5024068414
     15  H         1.9319028887   -0.0029246966   -1.3460299488
     16  H         0.3649624956   -1.9936378436   -1.3312090354
     17  H        -1.5846568063   -1.9671608466    0.3256583695
   Point Group: c1    Number of degrees of freedom:    45


   Energy is   -533.561123885

 Hessian updated using BFGS update

 45 Hessian modes will be used to form the next step
  Hessian Eigenvalues:
     0.000872    0.009163    0.010500    0.018607    0.020737    0.023252
     0.025696    0.032632    0.036463    0.042587    0.050763    0.056768
     0.075379    0.076090    0.080238    0.085892    0.088819    0.098267
     0.103988    0.106543    0.115853    0.124411    0.154081    0.161221
     0.164799    0.186367    0.219861    0.242475    0.261526    0.271074
     0.290253    0.299223    0.327954    0.335630    0.342278    0.345703
     0.347364    0.349322    0.351561    0.355693    0.374800    0.388467
     0.411879    0.452649    0.529422

 Minimum search - taking simple RFO step
 Searching for Lamda that Minimizes Along All modes
 Value Taken    Lamda =  -0.00000021
 Step Taken.  Stepsize is  0.007300

                             Maximum     Tolerance    Cnvgd?
         Gradient           0.000051      0.000300     YES
         Displacement       0.002867      0.001200      NO
         Energy change     -0.000000      0.000001     YES

 Final energy is   -533.561123885214     


 ******************************
 **  OPTIMIZATION CONVERGED  **
 ******************************

                       Coordinates (Angstroms)
     ATOM                X               Y               Z
      1  C        -1.1170613374    0.1523573205    0.8966375857
      2  O        -1.3179571462    1.1078482845   -0.1818832667
      3  O        -0.0210660090    1.7570395897   -0.4405765917
      4  C         0.1053878512    0.7439502289    1.5895595307
      5  O         0.6319348056   -0.1239707648    2.5626672089
      6  C         0.9318189846    1.0277260477    0.3303832178
      7  C         1.3234246525   -0.1979349610   -0.4708674913
      8  O         1.6533304896   -1.3803364189    0.2445245938
      9  C         0.3773374675   -1.3223874023   -0.4836195547
     10  C        -0.8418567471   -1.1850765156    0.3095690843
     11  H        -2.0183744544    0.1912886864    1.5009370126
     12  H        -0.1614453926    1.7049249315    2.0294065564
     13  H         1.2441342314    0.3791544216    3.1099729876
     14  H         1.7640499265    1.7066670383    0.5024068414
     15  H         1.9319028887   -0.0029246966   -1.3460299488
     16  H         0.3649624956   -1.9936378436   -1.3312090354
     17  H        -1.5846568063   -1.9671608466    0.3256583695

Z-matrix Print:
$molecule
0 2
O 
C  1 1.426277
H  2 1.087732 1 106.109791
O  1 1.473193 2 105.538642 3 -156.137835 0
C  4 1.454830 1 107.339633 2 8.875718 0
H  5 1.085845 4 105.926488 1 142.771090 0
C  5 1.486310 4 108.889142 1 -94.297920 0
H  7 1.078734 5 121.264737 4 -106.087985 0
C  7 1.460971 5 116.970625 4 63.796065 0
H  9 1.081267 7 118.319104 5 -146.069350 0
C  9 1.469570 7 117.427078 5 8.848872 0
H  11 1.083598 9 119.485386 7 -149.170441 0
O  11 1.420809 9 61.124170 7 106.523867 0
C  5 1.524633 4 101.116445 1 24.176558 0
H  14 1.090017 5 109.220437 4 65.980439 0
O  14 1.406228 5 112.039180 4 -170.754969 0
H  16 0.963051 14 107.989955 5 -165.833733 0
$end

 
 --------------------------------------------------------------
 
                    Orbital Energies (a.u.)
 --------------------------------------------------------------
 
 Alpha MOs
 -- Occupied --
-19.4050 -19.4032 -19.3602 -19.3485 -10.4102 -10.4089 -10.4079 -10.4043
-10.4037 -10.3675  -1.2709  -1.2142  -1.1714  -1.0702  -0.9462  -0.8701
 -0.8250  -0.7613  -0.7274  -0.7023  -0.6686  -0.6370  -0.6113  -0.5851
 -0.5767  -0.5632  -0.5500  -0.5315  -0.5043  -0.4973  -0.4865  -0.4628
 -0.4537  -0.4205  -0.4066  -0.3925  -0.3589  -0.3148
 -- Virtual --
  0.0249   0.0359   0.0372   0.0464   0.0569   0.0590   0.0701   0.0860
  0.0878   0.0959   0.1145   0.1246   0.1337   0.1362   0.1373   0.1408
  0.1448   0.1492   0.1539   0.1574   0.1607   0.1650   0.1716   0.1821
  0.1883   0.1909   0.1935   0.1991   0.2089   0.2259   0.2306   0.2380
  0.2424   0.2464   0.2567   0.2710   0.2831   0.2937   0.2990   0.3088
  0.3160   0.3212   0.3298   0.3350   0.3458   0.3501   0.3602   0.3655
  0.3697   0.3725   0.3817   0.3858   0.3900   0.3973   0.3988   0.4013
  0.4110   0.4163   0.4247   0.4310   0.4373   0.4620   0.4658   0.4810
  0.4931   0.5046   0.5391   0.5456   0.5903   0.5960   0.6075   0.6129
  0.6303   0.6421   0.6539   0.6631   0.6685   0.6773   0.6879   0.6955
  0.7096   0.7173   0.7278   0.7290   0.7422   0.7482   0.7586   0.7678
  0.7830   0.7918   0.8094   0.8298   0.8406   0.8544   0.8783   0.9126
  0.9333   0.9438   0.9570   0.9967   1.0338   1.0439   1.0499   1.0812
  1.0854   1.1158   1.1233   1.1398   1.1420   1.1600   1.1682   1.1819
  1.1906   1.2062   1.2083   1.2189   1.2261   1.2387   1.2524   1.2558
  1.2700   1.2772   1.2916   1.2963   1.3102   1.3164   1.3204   1.3317
  1.3375   1.3489   1.3609   1.3815   1.3959   1.4025   1.4129   1.4164
  1.4350   1.4756   1.4784   1.4929   1.5046   1.5219   1.5262   1.5503
  1.5527   1.5771   1.5838   1.6061   1.6246   1.6375   1.6562   1.6666
  1.7057   1.7108   1.7424   1.7723   1.8053   1.8140   1.8319   1.8514
  1.8929   1.9094   1.9389   1.9512   1.9927   2.0072   2.0506   2.0777
  2.0978   2.1062   2.1533   2.1657   2.1837   2.2477   2.2626   2.2667
  2.3119   2.3394   2.3828   2.4069   2.4301   2.4506   2.5304   2.6321
  2.6657   2.7037   2.7120   2.7301   2.7630   2.7912   2.8034   2.8269
  2.8487   2.8557   2.8792   2.8960   2.9017   2.9164   2.9387   2.9734
  2.9838   3.0155   3.0304   3.0349   3.0492   3.0753   3.1114   3.1249
  3.1528   3.1657   3.1939   3.2436   3.2631   3.2668   3.2948   3.3038
  3.3390   3.3553   3.3814   3.3919   3.4001   3.4327   3.4420   3.4565
  3.4697   3.5062   3.5137   3.5415   3.5737   3.5855   3.5916   3.6063
  3.6167   3.6527   3.6612   3.6760   3.6986   3.7123   3.7182   3.7367
  3.7459   3.7567   3.7892   3.8245   3.8298   3.8463   3.8561   3.8646
  3.8843   3.8918   3.9224   3.9229   3.9558   3.9757   4.0098   4.0210
  4.0606   4.0639   4.0854   4.1048   4.1415   4.1855   4.1987   4.2260
  4.2607   4.2853   4.3008   4.3222   4.3308   4.3367   4.3657   4.3841
  4.3861   4.3972   4.4281   4.4473   4.4653   4.4803   4.4986   4.5124
  4.5514   4.5712   4.5950   4.6099   4.6201   4.6806   4.6969   4.7257
  4.7442   4.7716   4.8104   4.8685   4.9403   5.0014   5.0626   5.1421
  5.1897   5.2270   5.2660   5.2751   5.2897   5.3017   5.3224   5.3286
  5.3403   5.3538   5.3607   5.4019   5.4115   5.4451   5.4544   5.4802
  5.5045   5.5107   5.5220   5.5882   5.6070   5.6103   5.6290   5.6374
  5.6946   5.7153   5.7536   5.7688   5.8003   5.8177   5.8788   5.9082
  5.9489   5.9777   6.0058   6.0346   6.0581   6.1162   6.2529   6.4692
  6.5579   6.6256   6.6718   6.7221   6.7583   7.0227   7.1196   7.1736
  7.2759   7.2867   7.3187   7.3391   7.3798   7.4244   7.4337   7.4594
  7.4963   7.5177   7.6201   7.7146   7.7446   7.8332   7.8483   7.8958
  7.9247   8.2297  24.4830  24.7078  24.7319  24.7941  24.8861  24.9417
 50.5805  50.6363  50.6488  50.7019
 
 Beta MOs
 -- Occupied --
-19.4050 -19.4011 -19.3572 -19.3484 -10.4098 -10.4096 -10.4079 -10.4054
-10.4032 -10.3551  -1.2688  -1.2087  -1.1710  -1.0672  -0.9388  -0.8561
 -0.8220  -0.7574  -0.7232  -0.6981  -0.6633  -0.6334  -0.6073  -0.5795
 -0.5742  -0.5586  -0.5430  -0.5253  -0.4993  -0.4934  -0.4818  -0.4596
 -0.4476  -0.4129  -0.4044  -0.3883  -0.3551
 -- Virtual --
 -0.0180   0.0249   0.0357   0.0368   0.0476   0.0568   0.0588   0.0721
  0.0872   0.0913   0.0960   0.1142   0.1241   0.1331   0.1358   0.1367
  0.1422   0.1447   0.1486   0.1541   0.1577   0.1605   0.1649   0.1716
  0.1831   0.1880   0.1902   0.1951   0.1992   0.2094   0.2255   0.2306
  0.2371   0.2423   0.2464   0.2639   0.2735   0.2844   0.2946   0.3016
  0.3106   0.3163   0.3226   0.3306   0.3414   0.3469   0.3518   0.3603
  0.3666   0.3716   0.3738   0.3830   0.3863   0.3904   0.3980   0.4001
  0.4022   0.4112   0.4183   0.4259   0.4302   0.4404   0.4642   0.4691
  0.4838   0.4931   0.5058   0.5412   0.5475   0.5996   0.6005   0.6105
  0.6183   0.6310   0.6442   0.6551   0.6690   0.6746   0.6795   0.6911
  0.6966   0.7126   0.7209   0.7280   0.7314   0.7442   0.7542   0.7608
  0.7741   0.7855   0.7924   0.8152   0.8353   0.8425   0.8582   0.8818
  0.9134   0.9355   0.9446   0.9580   0.9992   1.0354   1.0462   1.0516
  1.0812   1.0872   1.1173   1.1275   1.1417   1.1449   1.1620   1.1689
  1.1831   1.1927   1.2088   1.2108   1.2230   1.2278   1.2428   1.2545
  1.2569   1.2709   1.2820   1.2929   1.2983   1.3127   1.3188   1.3220
  1.3332   1.3404   1.3504   1.3632   1.3850   1.3995   1.4051   1.4159
  1.4216   1.4400   1.4779   1.4819   1.4961   1.5078   1.5246   1.5303
  1.5533   1.5557   1.5823   1.5900   1.6094   1.6256   1.6403   1.6620
  1.6692   1.7089   1.7201   1.7461   1.7756   1.8077   1.8183   1.8344
  1.8550   1.8977   1.9126   1.9410   1.9536   1.9960   2.0110   2.0523
  2.0806   2.1005   2.1096   2.1594   2.1701   2.1872   2.2497   2.2664
  2.2691   2.3135   2.3410   2.3852   2.4095   2.4327   2.4521   2.5329
  2.6411   2.6784   2.7068   2.7151   2.7338   2.7673   2.7974   2.8156
  2.8397   2.8574   2.8664   2.8906   2.9033   2.9202   2.9288   2.9748
  2.9914   3.0139   3.0276   3.0396   3.0500   3.0641   3.0858   3.1160
  3.1316   3.1619   3.1731   3.2089   3.2509   3.2751   3.2783   3.3009
  3.3129   3.3439   3.3704   3.3940   3.4035   3.4146   3.4454   3.4601
  3.4666   3.4818   3.5138   3.5193   3.5516   3.5824   3.5975   3.6015
  3.6171   3.6274   3.6634   3.6691   3.6922   3.7102   3.7200   3.7303
  3.7423   3.7537   3.7615   3.7969   3.8299   3.8376   3.8545   3.8633
  3.8718   3.8880   3.8961   3.9292   3.9304   3.9609   3.9851   4.0176
  4.0264   4.0683   4.0714   4.0974   4.1148   4.1544   4.1902   4.2079
  4.2363   4.2680   4.2953   4.3046   4.3276   4.3389   4.3449   4.3726
  4.3889   4.3981   4.4045   4.4388   4.4566   4.4738   4.4895   4.5099
  4.5189   4.5622   4.5797   4.6057   4.6175   4.6258   4.6830   4.7024
  4.7320   4.7514   4.7748   4.8182   4.8744   4.9542   5.0171   5.0689
  5.1519   5.2061   5.2340   5.2686   5.2791   5.2918   5.3044   5.3285
  5.3342   5.3423   5.3573   5.3640   5.4041   5.4199   5.4473   5.4612
  5.4835   5.5079   5.5129   5.5338   5.5940   5.6102   5.6176   5.6310
  5.6552   5.6960   5.7252   5.7582   5.7794   5.8069   5.8276   5.8814
  5.9165   5.9525   5.9888   6.0097   6.0391   6.0595   6.1179   6.2547
  6.4773   6.5626   6.6282   6.6726   6.7239   6.7593   7.0251   7.1202
  7.1818   7.2826   7.2912   7.3208   7.3394   7.3833   7.4275   7.4349
  7.4622   7.5017   7.5195   7.6235   7.7150   7.7543   7.8383   7.8524
  7.8991   7.9274   8.2312  24.4885  24.7098  24.7321  24.7945  24.8877
 24.9451  50.5815  50.6368  50.6495  50.7038
 --------------------------------------------------------------
 
          Ground-State Mulliken Net Atomic Charges

     Atom                 Charge (a.u.)    Spin (a.u.)
  --------------------------------------------------------
      1 C                    -0.043157      -0.016306
      2 O                    -0.146816       0.039729
      3 O                    -0.122545       0.003134
      4 C                    -0.118551       0.015670
      5 O                    -0.432599      -0.001145
      6 C                    -0.226995      -0.005662
      7 C                    -0.221224       0.041401
      8 O                    -0.278100       0.074502
      9 C                    -0.143900      -0.013618
     10 C                    -0.308746       0.861844
     11 H                     0.296337       0.006916
     12 H                     0.289793      -0.001183
     13 H                     0.343666       0.000394
     14 H                     0.271297       0.000717
     15 H                     0.274345       0.001948
     16 H                     0.242875       0.009222
     17 H                     0.324320      -0.017563
  --------------------------------------------------------
  Sum of atomic charges =     0.000000
  Sum of spin   charges =     1.000000

 -----------------------------------------------------------------
                    Cartesian Multipole Moments
 -----------------------------------------------------------------
    Charge (ESU x 10^10)
                 0.0000
    Dipole Moment (Debye)
         X       0.6127      Y       0.9837      Z       1.5139
       Tot       1.9066
    Quadrupole Moments (Debye-Ang)
        XX     -55.5790     XY      11.5587     YY     -60.9069
        XZ      -1.9706     YZ      11.5453     ZZ     -52.6402
    Octopole Moments (Debye-Ang^2)
       XXX     -31.8537    XXY       6.7402    XYY     -12.6430
       YYY     -16.6311    XXZ     -17.2606    XYZ       6.9899
       YYZ     -24.0439    XZZ       3.6594    YZZ      12.3500
       ZZZ     -63.5113
    Hexadecapole Moments (Debye-Ang^3)
      XXXX    -417.5724   XXXY      75.6640   XXYY    -157.0537
      XYYY      67.5299   YYYY    -483.0950   XXXZ     -16.1115
      XXYZ       4.6564   XYYZ      -4.6552   YYYZ       5.6466
      XXZZ    -117.8813   XYZZ      24.6432   YYZZ    -150.7906
      XZZZ      35.8413   YZZZ      35.1514   ZZZZ    -418.4011
 -----------------------------------------------------------------
 Total job time:  3210.86s(wall), 24847.47s(cpu) 
 Wed May 15 11:47:05 2024

        *************************************************************
        *                                                           *
        *  Thank you very much for using Q-Chem.  Have a nice day.  *
        *                                                           *
        *************************************************************


