
Running Job 1 of 1 Q_in.in
qchem Q_in.in_301713.0 /scratch/ari.fischer/qChem1516407.hpc-mn1/qchem301713/ 0
/usr/local/qchem-5.4.1/exe/qcprog.exe_s Q_in.in_301713.0 /scratch/ari.fischer/qChem1516407.hpc-mn1/qchem301713/
                  Welcome to Q-Chem
     A Quantum Leap Into The Future Of Chemistry


 Q-Chem 5.4, Q-Chem, Inc., Pleasanton, CA (2021)

 License issued to: Nanyang Technological University (site)

 E. Epifanovsky,  A. T. B. Gilbert,  Xintian Feng,  Joonho Lee,  Yuezhi Mao,  
 N. Mardirossian,  P. Pokhilko,  A. White,  M. Wormit,  M. P. Coons,  
 A. L. Dempwolff,  Zhengting Gan,  D. Hait,  P. R. Horn,  L. D. Jacobson,  
 I. Kaliman,  J. Kussmann,  A. W. Lange,  Ka Un Lao,  D. S. Levine,  Jie Liu,  
 S. C. McKenzie,  A. F. Morrison,  K. Nanda,  F. Plasser,  D. R. Rehn,  
 M. L. Vidal,  Zhi-Qiang You,  Ying Zhu,  B. Alam,  B. Albrecht,  
 A. Aldossary,  E. Alguire,  J. H. Andersen,  D. Barton,  K. Begam,  A. Behn,  
 Y. A. Bernard,  E. J. Berquist,  H. Burton,  A. Carreras,  K. Carter-Fenk,  
 R. Chakraborty,  A. D. Chien,  K. D. Closser,  V. Cofer-Shabica,  
 S. Dasgupta,  Jia Deng,  M. de Wergifosse,  M. Diedenhofen,  Hainam Do,  
 S. Ehlert,  Po-Tung Fang,  S. Fatehi,  Qingguo Feng,  T. Friedhoff,  
 J. Gayvert,  Qinghui Ge,  G. Gidofalvi,  M. Goldey,  J. Gomes,  
 C. Gonzalez-Espinoza,  S. Gulania,  A. Gunina,  M. W. D. Hanson-Heine,  
 P. H. P. Harbach,  A. W. Hauser,  M. F. Herbst,  M. Hernandez Vera,  
 M. Hodecker,  Z. C. Holden,  S. Houck,  Xunkun Huang,  Kerwin Hui,  
 B. C. Huynh,  M. Ivanov,  Hyunjun Ji,  Hanjie Jiang,  B. Kaduk,  S. Kaehler,  
 K. Khistyaev,  Jaehoon Kim,  P. Klunzinger,  Z. Koczor-Benda,  
 Joong Hoon Koh,  D. Kosenkov,  L. Koulias,  T. Kowalczyk,  C. M. Krauter,  
 K. Kue,  A. Kunitsa,  T. Kus,  A. Landau,  K. V. Lawler,  D. Lefrancois,  
 S. Lehtola,  Rain Li,  Yi-Pei Li,  Jiashu Liang,  M. Liebenthal,  
 Hung-Hsuan Lin,  You-Sheng Lin,  Fenglai Liu,  Kuan-Yu Liu,  
 M. Loipersberger,  A. Luenser,  A. Manjanath,  P. Manohar,  E. Mansoor,  
 S. F. Manzer,  Shan-Ping Mao,  A. V. Marenich,  T. Markovich,  S. Mason,  
 S. A. Maurer,  P. F. McLaughlin,  M. F. S. J. Menger,  J.-M. Mewes,  
 S. A. Mewes,  P. Morgante,  J. W. Mullinax,  K. J. Oosterbaan,  G. Paran,  
 Alexander C. Paul,  Suranjan K. Paul,  F. Pavosevic,  Zheng Pei,  S. Prager,  
 E. I. Proynov,  E. Ramos,  B. Rana,  A. E. Rask,  A. Rettig,  R. M. Richard,  
 F. Rob,  E. Rossomme,  T. Scheele,  M. Scheurer,  M. Schneider,  
 N. Sergueev,  S. M. Sharada,  W. Skomorowski,  D. W. Small,  C. J. Stein,  
 Yu-Chuan Su,  E. J. Sundstrom,  Zhen Tao,  J. Thirman,  T. Tsuchimochi,  
 N. M. Tubman,  S. P. Veccham,  O. Vydrov,  J. Wenzel,  J. Witte,  A. Yamada,  
 Kun Yao,  S. Yeganeh,  S. R. Yost,  A. Zech,  Igor Ying Zhang,  Xing Zhang,  
 Yu Zhang,  D. Zuev,  A. Aspuru-Guzik,  A. T. Bell,  N. A. Besley,  
 K. B. Bravaya,  B. R. Brooks,  D. Casanova,  Jeng-Da Chai,  S. Coriani,  
 C. J. Cramer,  A. E. DePrince, III,  R. A. DiStasio Jr.,  A. Dreuw,  
 B. D. Dunietz,  T. R. Furlani,  W. A. Goddard III,  S. Grimme,  
 S. Hammes-Schiffer,  T. Head-Gordon,  W. J. Hehre,  Chao-Ping Hsu,  
 T.-C. Jagau,  Yousung Jung,  A. Klamt,  Jing Kong,  D. S. Lambrecht,  
 WanZhen Liang,  N. J. Mayhall,  C. W. McCurdy,  J. B. Neaton,  
 C. Ochsenfeld,  J. A. Parkhill,  R. Peverati,  V. A. Rassolov,  Yihan Shao,  
 L. V. Slipchenko,  T. Stauch,  R. P. Steele,  J. E. Subotnik,  
 A. J. W. Thom,  A. Tkatchenko,  D. G. Truhlar,  T. Van Voorhis,  
 T. A. Wesolowski,  K. B. Whaley,  H. L. Woodcock III,  P. M. Zimmerman,  
 S. Faraji,  P. M. W. Gill,  M. Head-Gordon,  J. M. Herbert,  A. I. Krylov

 Additional authors for Version 5.4.1: 
 S. Kotaru,  Shaozhi Li,  Xiangyuan Li,  F. Matz,  A. Molle,  Haisheng Ren,  
 Yingli Su,  Hung-Yi Tsai,  C. Utku,  Fang Wang

 Contributors to earlier versions of Q-Chem not listed above: 
 R. D. Adamson,  B. Austin,  R. Baer,  J. Baker,  G. J. O. Beran,  
 K. Brandhorst,  S. T. Brown,  E. F. C. Byrd,  A. K. Chakraborty,  
 G. K. L. Chan,  Chun-Min Chang,  Yunqing Chen,  C.-L. Cheng,  
 Siu Hung Chien,  D. M. Chipman,  D. L. Crittenden,  H. Dachsel,  
 R. J. Doerksen,  A. D. Dutoi,  R. G. Edgar,  J. Fosso-Tande,  
 L. Fusti-Molnar,  D. Ghosh,  A. Ghysels,  A. Golubeva-Zadorozhnaya,  
 J. Gonthier,  M. S. Gordon,  S. R. Gwaltney,  G. Hawkins,  J. E. Herr,  
 A. Heyden,  S. Hirata,  E. G. Hohenstein,  G. Kedziora,  F. J. Keil,  
 C. Kelley,  Jihan Kim,  R. A. King,  R. Z. Khaliullin,  P. P. Korambath,  
 W. Kurlancheek,  A. Laurent,  A. M. Lee,  M. S. Lee,  S. V. Levchenko,  
 Ching Yeh Lin,  D. Liotard,  E. Livshits,  R. C. Lochan,  I. Lotan,  
 L. A. Martinez-Martinez,  P. E. Maslen,  N. Nair,  D. P. O'Neill,  
 D. Neuhauser,  E. Neuscamman,  C. M. Oana,  R. Olivares-Amaya,  R. Olson,  
 T. M. Perrine,  B. Peters,  P. A. Pieniazek,  A. Prociuk,  Y. M. Rhee,  
 J. Ritchie,  M. A. Rohrdanz,  E. Rosta,  N. J. Russ,  H. F. Schaefer III,  
 M. W. Schmidt,  N. E. Schultz,  S. Sharma,  N. Shenvi,  C. D. Sherrill,  
 A. C. Simmonett,  A. Sodt,  T. Stein,  D. Stuck,  K. S. Thanthiriwatte,  
 V. Vanovschi,  L. Vogt,  Tao Wang,  A. Warshel,  M. A. Watson,  
 C. F. Williams,  Q. Wu,  X. Xu,  Jun Yang,  W. Zhang,  Yan Zhao

 Please cite Q-Chem as follows:
 Y. Shao et al., Mol. Phys. 113, 184-215 (2015)
 DOI: 10.1080/00268976.2014.952696

 Q-Chem 5.4.1 for Intel X86 EM64T Linux

 Parts of Q-Chem use Armadillo 9.800.1 (Horizon Scraper).
 http://arma.sourceforge.net/

 Q-Chem begins on Fri Apr 21 17:32:52 2023  

 Host: 
0

     Scratch files written to /scratch/ari.fischer/qChem1516407.hpc-mn1/qchem301713//
 Aug1521 |scratch|qcdevops|jenkins|workspace|build_RNUM 8249   
 Processing $rem in /usr/local/qchem-5.4.1/config/preferences:
 Processing $rem in /home/ari.fischer/.qchemrc:
 Symmetry turned off for PCM/SM12/SMD calculation


!!********************************************.
!!******************Warning*******************.
!!Desired Analytical derivatives not available.
!!Finite difference job might take a long time.
!!********************************************.
!!********************************************.


 2-order derivative to be evaluated numerically with 1-order analytical derivatives

 Checking the input file for inconsistencies... 	...done.

--------------------------------------------------------------
User input:
--------------------------------------------------------------
$molecule
0 2
C         0.8807695000   -0.3182937053   -0.1660397863
C         2.2197407002   -0.4296449134   -0.8355523781
O         2.7396016214    0.7946936988   -1.3235581324
C         0.1973027069    0.8211411207   -0.0684693409
C        -1.1219090464    0.8537847025    0.6272137632
O        -0.9258037272    1.2865496310    2.0300595576
O        -0.4982684747    2.5125625603    2.0999245609
C        -1.8453169091   -0.4814382808    0.7336629236
O        -2.6803047523   -0.5653695009   -0.4277931093
C        -0.9177716051   -1.6593142140    0.8052619230
C         0.3386378598   -1.5720654192    0.3804341732
H         2.9423547239   -0.8115710657   -0.1130332186
H         2.1515600193   -1.1707162673   -1.6378075458
H         2.1803347509    1.0975896515   -2.0471901788
H         0.5851037131    1.7487724462   -0.4643589050
H        -2.4694715293   -0.4469289538    1.6299649894
H        -3.1227039761   -1.4217672430   -0.4153109372
H        -1.3243249089   -2.5908158073    1.1775703502
H         0.9921146837   -2.4359402785    0.4022997370
H        -1.7962090503    1.5886294383    0.1918154544
$end

$rem
BASIS = 6-311++G(2df,2p)
GUI = 2
JOB_TYPE = Frequency
METHOD = wB97M-V
SOLVENT_METHOD = SMD
SCF_ALGORITHM = DIIS_GDM
MAX_SCF_CYCLES = 400
SCF_CONVERGENCE = 7
THRESH = 12
UNRESTRICTED = 1
SYMMETRY_IGNORE = 1
$end
--------------------------------------------------------------
 ----------------------------------------------------------------
             Standard Nuclear Orientation (Angstroms)
    I     Atom           X                Y                Z
 ----------------------------------------------------------------
    1      C       0.8807695000    -0.3182937053    -0.1660397863
    2      C       2.2197407002    -0.4296449134    -0.8355523781
    3      O       2.7396016214     0.7946936988    -1.3235581324
    4      C       0.1973027069     0.8211411207    -0.0684693409
    5      C      -1.1219090464     0.8537847025     0.6272137632
    6      O      -0.9258037272     1.2865496310     2.0300595576
    7      O      -0.4982684747     2.5125625603     2.0999245609
    8      C      -1.8453169091    -0.4814382808     0.7336629236
    9      O      -2.6803047523    -0.5653695009    -0.4277931093
   10      C      -0.9177716051    -1.6593142140     0.8052619230
   11      C       0.3386378598    -1.5720654192     0.3804341732
   12      H       2.9423547239    -0.8115710657    -0.1130332186
   13      H       2.1515600193    -1.1707162673    -1.6378075458
   14      H       2.1803347509     1.0975896515    -2.0471901788
   15      H       0.5851037131     1.7487724462    -0.4643589050
   16      H      -2.4694715293    -0.4469289538     1.6299649894
   17      H      -3.1227039761    -1.4217672430    -0.4153109372
   18      H      -1.3243249089    -2.5908158073     1.1775703502
   19      H       0.9921146837    -2.4359402785     0.4022997370
   20      H      -1.7962090503     1.5886294383     0.1918154544
 ----------------------------------------------------------------
 Nuclear Repulsion Energy =         625.94117550 hartrees
 There are       42 alpha and       41 beta electrons
 Requested basis set is 6-311++G(2df,2p)
 There are 142 shells and 464 basis functions

 Total QAlloc Memory Limit 288000 MB
 Mega-Array Size       188 MB
 MEM_STATIC part       192 MB
 
 Citation of the SMD model:
 Marenich, A.V.; Cramer, C.J.; Truhlar, D.G.
 J. Phys. Chem. B 2009, 113, 6378-6396.
 iSolventCode=           1
 Solvent: water                                                           
 
 vradii
            1           2           3           4           5           6
    1   1.8500000   1.8500000   1.5200000   1.8500000   1.8500000   1.5200000
            7           8           9          10          11          12
    1   1.5200000   1.8500000   1.5200000   1.8500000   1.8500000   1.2000000
           13          14          15          16          17          18
    1   1.2000000   1.2000000   1.2000000   1.2000000   1.2000000   1.2000000
           19          20
    1   1.2000000   1.2000000
 Changing PCM_VDW_RADII to SMD_RADIUS
 Discretize the solute cavity surface with Lebedev spheres
	Using 110 Lebedev grid points for each H atom
	Using 194 Lebedev grid points for other atoms
	Atomic van der Waals radii will be scaled by 1.20
 Remove points where switching function is < 1.0e-08
 Keep 1519 surface tesserae and discard 1605 interior tesserae
 Molecular Surface Area = 173.807 Angst**2
 A cutoff of  1.0D-12 yielded   8825 shell pairs
 There are     94052 function pairs (    116982 Cartesian)
 Smallest overlap matrix eigenvalue = 1.82E-06
 Guess from superposition of atomic densities
 Warning:  Energy on first SCF cycle will be non-variational
 SAD guess density has 83.000000 electrons

 -----------------------------------------------------------------------
  General SCF calculation program by
  Eric Jon Sundstrom, Paul Horn, Yuezhi Mao, Dmitri Zuev, Alec White,
  David Stuck, Shaama M.S., Shane Yost, Joonho Lee, David Small,
  Daniel Levine, Susi Lehtola, Hugh Burton, Evgeny Epifanovsky,
  Bang C. Huynh
 -----------------------------------------------------------------------
 Exchange:     0.1500 Hartree-Fock + 1.0000 wB97M-V + LR-HF
 Correlation:  1.0000 wB97M-V
 Using SG-2 standard quadrature grid
 Nonlocal Correlation:  VV10 with C = 0.0100 and b = 6.00 and scale = 1.00000
 Grid used for NLC:  SG-1 standard quadrature
 using 8 threads for integral computing
 -------------------------------------------------------
 OpenMP Integral computing Module                
 Release: version 1.0, May 2013, Q-Chem Inc. Pittsburgh 
 -------------------------------------------------------
 
 Citation of the SMD model:
 Marenich, A.V.; Cramer, C.J.; Truhlar, D.G.
 J. Phys. Chem. B 2009, 113, 6378-6396.
 iSolventCode=           1
 Solvent: water                                                           
 
 vradii
            1           2           3           4           5           6
    1   1.8500000   1.8500000   1.5200000   1.8500000   1.8500000   1.5200000
            7           8           9          10          11          12
    1   1.5200000   1.8500000   1.5200000   1.8500000   1.8500000   1.2000000
           13          14          15          16          17          18
    1   1.2000000   1.2000000   1.2000000   1.2000000   1.2000000   1.2000000
           19          20
    1   1.2000000   1.2000000
 -------------------------------------------------------
 OpenMP BLAS3 based DFT computing Module                
 Release: version 1.0, May 2013, Q-Chem Inc. Pittsburgh 
 -------------------------------------------------------
 A unrestricted SCF calculation will be
 performed using DIIS, GDM
 SCF converges when RMS gradient is below 1.0e-07
 ---------------------------------------
  Cycle       Energy         DIIS error
 ---------------------------------------
    1    -575.7618019400      1.17e-02  
    2    -572.7564955022      1.24e-03  Done DIIS. Switching to GDM
 ---------------------------------------
  Cycle       Energy        RMS Gradient
 ---------------------------------------
    1    -572.7564955022      7.77e-02   Descent step
    2    -572.8761571581      1.43e-02   Normal BFGS step
    3    -572.8925587301      3.07e-02   Normal BFGS step
    4    -572.8960878393      5.81e-03   Normal BFGS step
    5    -572.8970518967      4.27e-03   Normal BFGS step
    6    -572.8972446511      3.36e-03   Normal BFGS step
    7    -572.8973076345      1.52e-03   Normal BFGS step
    8    -572.8973302841      3.93e-04   Normal BFGS step
    9    -572.8973324422      3.28e-04   Normal BFGS step
   10    -572.8973330546      2.70e-04   Normal BFGS step
   11    -572.8973332253      2.25e-04   Normal BFGS step
   12    -572.8973333590      1.61e-04   Normal BFGS step
   13    -572.8973334826      8.13e-05   Normal BFGS step
   14    -572.8973335399      4.07e-05   Normal BFGS step
   15    -572.8973335532      1.37e-05   Normal BFGS step
   16    -572.8973335571      8.07e-06   Normal BFGS step
   17    -572.8973335579      5.77e-06   Normal BFGS step
   18    -572.8973335582      4.07e-06   Normal BFGS step
   19    -572.8973335585      2.16e-06   Normal BFGS step
   20    -572.8973335585      7.66e-07   Normal BFGS step
   21    -572.8973335585      2.74e-07   Normal BFGS step
   22    -572.8973335585      1.05e-07   Normal BFGS step
   23    -572.8973335585      5.54e-08  Convergence criterion met
 ---------------------------------------
 SCF time:   CPU 3366.68s  wall 429.00s 
<S^2> =          0.754085784
(3)  G-ENP(liq) elect-nuc-pol free energy of system     -572.897333559 a.u.
(4)  G-CDS(liq) cavity-dispersion-solvent structure 
     free energy                                                3.0636 kcal/mol
(6)  G-S(liq) free energy of system                     -572.892451429 a.u.
 SCF   energy in the final basis set =     -572.8924514291
 Total energy in the final basis set =     -572.8924514291
 
 --------------------------------------------------------------
 
                    Orbital Energies (a.u.)
 --------------------------------------------------------------
 
 Alpha MOs
 -- Occupied --
-19.4632 -19.4149 -19.3454 -19.3404 -10.4117 -10.4071 -10.3906 -10.3636
-10.3519 -10.3486 -10.3428  -1.3429  -1.1654  -1.1603  -1.0260  -0.9647
 -0.8866  -0.8669  -0.8061  -0.7466  -0.7189  -0.6651  -0.6516  -0.6312
 -0.6189  -0.6082  -0.5986  -0.5675  -0.5622  -0.5426  -0.5357  -0.5184
 -0.4960  -0.4876  -0.4617  -0.4254  -0.4189  -0.4047  -0.3966  -0.3943
 -0.3896  -0.3308
 -- Virtual --
  0.0203   0.0265   0.0344   0.0386   0.0505   0.0553   0.0561   0.0622
  0.0804   0.0848   0.0919   0.1020   0.1119   0.1216   0.1267   0.1358
  0.1422   0.1453   0.1497   0.1544   0.1573   0.1602   0.1651   0.1670
  0.1723   0.1804   0.1861   0.1899   0.1953   0.1997   0.2059   0.2116
  0.2152   0.2201   0.2288   0.2315   0.2367   0.2475   0.2597   0.2678
  0.2729   0.2757   0.2829   0.2893   0.2929   0.2984   0.3037   0.3077
  0.3136   0.3208   0.3250   0.3263   0.3479   0.3525   0.3561   0.3639
  0.3735   0.3770   0.3854   0.3874   0.3908   0.3954   0.3978   0.4066
  0.4143   0.4194   0.4341   0.4408   0.4550   0.4597   0.4770   0.4842
  0.5089   0.5325   0.5436   0.5507   0.5665   0.5813   0.5979   0.6039
  0.6116   0.6241   0.6310   0.6363   0.6449   0.6531   0.6545   0.6710
  0.6828   0.6883   0.6943   0.7005   0.7080   0.7152   0.7274   0.7360
  0.7399   0.7536   0.7571   0.7651   0.7744   0.7851   0.7953   0.8029
  0.8149   0.8219   0.8453   0.8554   0.8702   0.8733   0.8827   0.9047
  0.9140   0.9359   0.9685   0.9752   0.9798   1.0007   1.0218   1.0274
  1.0548   1.0662   1.0728   1.0874   1.1000   1.1127   1.1289   1.1405
  1.1482   1.1578   1.1743   1.1804   1.1914   1.2000   1.2117   1.2208
  1.2279   1.2341   1.2464   1.2543   1.2627   1.2666   1.2722   1.2919
  1.3012   1.3190   1.3257   1.3338   1.3471   1.3622   1.3681   1.3809
  1.3952   1.4031   1.4197   1.4241   1.4403   1.4480   1.4641   1.4681
  1.4796   1.5046   1.5103   1.5201   1.5327   1.5359   1.5498   1.5608
  1.5830   1.5876   1.6021   1.6119   1.6260   1.6336   1.6514   1.6572
  1.6728   1.6805   1.6844   1.7095   1.7278   1.7521   1.7679   1.7898
  1.8201   1.8377   1.8451   1.8606   1.8757   1.9518   1.9799   1.9885
  2.0247   2.0430   2.0744   2.1314   2.1355   2.1485   2.1752   2.2138
  2.2327   2.2686   2.3252   2.3381   2.3538   2.3692   2.3876   2.4141
  2.4413   2.5567   2.5789   2.6303   2.6697   2.6933   2.7107   2.7594
  2.7784   2.8073   2.8205   2.8248   2.8453   2.8626   2.8664   2.8820
  2.8894   2.8940   2.9223   2.9379   2.9517   2.9602   2.9788   2.9910
  3.0012   3.0085   3.0348   3.0482   3.0549   3.0779   3.1039   3.1148
  3.1401   3.1656   3.1769   3.1996   3.2213   3.2465   3.2535   3.2810
  3.3005   3.3133   3.3163   3.3409   3.3491   3.3749   3.3830   3.4096
  3.4239   3.4301   3.4389   3.4548   3.4834   3.4917   3.5001   3.5120
  3.5318   3.5674   3.5765   3.5888   3.6066   3.6172   3.6432   3.6655
  3.6803   3.6951   3.7118   3.7282   3.7417   3.7541   3.7693   3.7810
  3.7972   3.8153   3.8282   3.8348   3.8446   3.8492   3.8698   3.8869
  3.8975   3.9134   3.9414   3.9533   3.9912   3.9927   4.0192   4.0510
  4.0716   4.0870   4.1029   4.1251   4.1444   4.1540   4.1682   4.2044
  4.2211   4.2300   4.2474   4.2529   4.2916   4.2993   4.3250   4.3315
  4.3621   4.3742   4.3820   4.3890   4.4036   4.4206   4.4273   4.4577
  4.4627   4.4897   4.5463   4.5846   4.5936   4.6018   4.6187   4.6379
  4.6680   4.6943   4.7206   4.7306   4.7707   4.7839   4.7996   4.8626
  4.9143   4.9186   4.9534   4.9731   5.0080   5.0388   5.0555   5.0893
  5.0994   5.1208   5.1342   5.1826   5.2196   5.2425   5.2633   5.2838
  5.2905   5.3065   5.3179   5.3374   5.3554   5.3769   5.4073   5.4176
  5.4473   5.4810   5.4943   5.5271   5.5450   5.5826   5.6070   5.6349
  5.6662   5.6818   5.6858   5.7025   5.7105   5.7358   5.7821   5.8445
  5.9202   5.9481   5.9836   6.0236   6.0491   6.0865   6.2621   6.4232
  6.4862   6.5986   6.6318   6.6563   6.8604   6.8913   6.9798   7.0964
  7.0977   7.1189   7.2236   7.2660   7.3172   7.3274   7.3286   7.3399
  7.3671   7.3892   7.4166   7.4366   7.6532   7.6782   7.7912   7.7985
  7.8298   8.0369   8.1111  24.3265  24.6204  24.7179  24.7830  24.8370
 25.1862  25.3664  50.4364  50.5395  50.5962  50.6206
 
 Beta MOs
 -- Occupied --
-19.4523 -19.3966 -19.3454 -19.3404 -10.4121 -10.4071 -10.3906 -10.3637
-10.3518 -10.3486 -10.3425  -1.3162  -1.1653  -1.1603  -1.0060  -0.9541
 -0.8863  -0.8575  -0.8052  -0.7428  -0.7181  -0.6561  -0.6437  -0.6201
 -0.6016  -0.5988  -0.5884  -0.5614  -0.5439  -0.5408  -0.5344  -0.5068
 -0.4955  -0.4748  -0.4550  -0.4246  -0.4153  -0.3959  -0.3937  -0.3858
 -0.3295
 -- Virtual --
 -0.0297   0.0207   0.0271   0.0344   0.0389   0.0507   0.0555   0.0564
  0.0625   0.0810   0.0849   0.0923   0.1025   0.1123   0.1224   0.1272
  0.1373   0.1431   0.1458   0.1504   0.1549   0.1575   0.1605   0.1654
  0.1673   0.1726   0.1813   0.1864   0.1901   0.1969   0.2003   0.2062
  0.2118   0.2156   0.2223   0.2303   0.2317   0.2389   0.2488   0.2606
  0.2714   0.2743   0.2767   0.2838   0.2904   0.2953   0.3005   0.3049
  0.3090   0.3147   0.3216   0.3257   0.3270   0.3483   0.3559   0.3580
  0.3644   0.3747   0.3777   0.3856   0.3884   0.3915   0.3962   0.3995
  0.4075   0.4148   0.4198   0.4352   0.4426   0.4562   0.4601   0.4781
  0.4844   0.5093   0.5332   0.5439   0.5510   0.5666   0.5815   0.5984
  0.6040   0.6118   0.6245   0.6311   0.6366   0.6451   0.6538   0.6546
  0.6715   0.6834   0.6886   0.6945   0.7013   0.7087   0.7157   0.7274
  0.7362   0.7403   0.7537   0.7575   0.7657   0.7750   0.7853   0.7955
  0.8031   0.8150   0.8223   0.8462   0.8557   0.8705   0.8735   0.8833
  0.9053   0.9144   0.9370   0.9696   0.9757   0.9800   1.0021   1.0221
  1.0290   1.0569   1.0685   1.0732   1.0891   1.1023   1.1143   1.1304
  1.1421   1.1512   1.1593   1.1793   1.1878   1.1981   1.2061   1.2148
  1.2277   1.2294   1.2418   1.2547   1.2581   1.2667   1.2679   1.2778
  1.2929   1.3025   1.3202   1.3265   1.3346   1.3486   1.3626   1.3689
  1.3826   1.3964   1.4042   1.4238   1.4264   1.4418   1.4499   1.4664
  1.4703   1.4816   1.5081   1.5131   1.5207   1.5339   1.5382   1.5525
  1.5650   1.5867   1.5893   1.6031   1.6161   1.6275   1.6340   1.6535
  1.6586   1.6803   1.6857   1.7004   1.7211   1.7329   1.7533   1.7696
  1.7922   1.8217   1.8406   1.8529   1.8628   1.8821   1.9584   1.9813
  1.9916   2.0260   2.0464   2.0752   2.1341   2.1412   2.1492   2.1803
  2.2176   2.2458   2.2728   2.3334   2.3457   2.3585   2.3723   2.3886
  2.4162   2.4435   2.5571   2.5799   2.6323   2.6740   2.6950   2.7124
  2.7602   2.7787   2.8083   2.8209   2.8251   2.8457   2.8628   2.8666
  2.8827   2.8896   2.8942   2.9224   2.9381   2.9521   2.9603   2.9790
  2.9911   3.0016   3.0091   3.0349   3.0484   3.0550   3.0779   3.1045
  3.1152   3.1404   3.1657   3.1771   3.2000   3.2218   3.2469   3.2539
  3.2814   3.3007   3.3135   3.3164   3.3410   3.3494   3.3750   3.3833
  3.4101   3.4239   3.4306   3.4393   3.4550   3.4835   3.4920   3.5002
  3.5124   3.5321   3.5678   3.5766   3.5892   3.6069   3.6175   3.6434
  3.6658   3.6804   3.6955   3.7119   3.7283   3.7420   3.7546   3.7695
  3.7813   3.7974   3.8153   3.8284   3.8351   3.8447   3.8494   3.8700
  3.8872   3.8980   3.9135   3.9418   3.9535   3.9915   3.9929   4.0195
  4.0513   4.0717   4.0871   4.1033   4.1253   4.1449   4.1543   4.1687
  4.2046   4.2212   4.2302   4.2477   4.2539   4.2920   4.2998   4.3253
  4.3317   4.3631   4.3750   4.3823   4.3892   4.4039   4.4216   4.4276
  4.4586   4.4641   4.4905   4.5474   4.5870   4.6022   4.6048   4.6374
  4.6391   4.6693   4.6958   4.7222   4.7419   4.7763   4.7873   4.8036
  4.8640   4.9227   4.9319   4.9600   4.9759   5.0119   5.0431   5.0721
  5.1296   5.1436   5.1489   5.1977   5.2179   5.2226   5.2807   5.2853
  5.2985   5.3047   5.3070   5.3216   5.3394   5.3616   5.3809   5.4099
  5.4318   5.4566   5.4877   5.4988   5.5393   5.5519   5.5832   5.6088
  5.6415   5.6673   5.6830   5.6864   5.7035   5.7175   5.7405   5.7944
  5.8556   5.9250   5.9490   5.9837   6.0238   6.0493   6.0875   6.2630
  6.4388   6.5338   6.6049   6.6377   6.6565   6.9434   6.9701   7.0403
  7.0970   7.1136   7.1461   7.2502   7.3073   7.3173   7.3280   7.3373
  7.3412   7.3672   7.3913   7.4430   7.4829   7.6532   7.6787   7.7916
  7.8123   7.8304   8.0493   8.1315  24.3266  24.6205  24.7177  24.7829
 24.8370  25.1862  25.3665  50.4492  50.5492  50.5962  50.6206
 --------------------------------------------------------------
 
          Ground-State Mulliken Net Atomic Charges

     Atom                 Charge (a.u.)    Spin (a.u.)
  --------------------------------------------------------
      1 C                     0.393688       0.004052
      2 C                    -0.400787       0.005395
      3 O                    -0.442081       0.000132
      4 C                    -0.290012       0.003927
      5 C                    -0.456009      -0.003803
      6 O                     0.077921       0.327727
      7 O                    -0.216935       0.658226
      8 C                    -0.407102       0.004972
      9 O                    -0.395183      -0.000388
     10 C                    -0.141526       0.004923
     11 C                    -0.277001      -0.012272
     12 H                     0.218496      -0.000316
     13 H                     0.232383      -0.000171
     14 H                     0.337547      -0.000086
     15 H                     0.294144       0.000130
     16 H                     0.234899      -0.000770
     17 H                     0.336138       0.000011
     18 H                     0.317730       0.000643
     19 H                     0.295303      -0.000240
     20 H                     0.288389       0.007906
  --------------------------------------------------------
  Sum of atomic charges =     0.000000
  Sum of spin   charges =     1.000000

 -----------------------------------------------------------------
                    Cartesian Multipole Moments
 -----------------------------------------------------------------
    Charge (ESU x 10^10)
                 0.0000
    Dipole Moment (Debye)
         X      -1.9811      Y      -5.7858      Z      -2.2889
       Tot       6.5299
    Quadrupole Moments (Debye-Ang)
        XX     -66.0111     XY       1.0341     YY     -63.3937
        XZ      -3.4404     YZ      -9.2644     ZZ     -69.5486
    Octopole Moments (Debye-Ang^2)
       XXX     -20.2970    XXY     -41.3727    XYY      -2.9066
       YYY     -47.2038    XXZ      -1.2269    XYZ       5.1455
       YYZ     -38.1883    XZZ      15.3813    YZZ     -18.3799
       ZZZ     -90.6249
    Hexadecapole Moments (Debye-Ang^3)
      XXXX   -1174.7928   XXXY     -12.0072   XXYY    -254.4984
      XYYY       1.9764   YYYY    -695.8410   XXXZ     214.8992
      XXYZ     -19.3523   XYYZ      63.1102   YYYZ    -147.0440
      XXZZ    -273.6893   XYZZ      10.6934   YYZZ    -235.8781
      XZZZ     172.6687   YZZZ    -138.9782   ZZZZ    -562.8644
 -----------------------------------------------------------------
 Calculating analytic gradient of the SCF energy
 Gradient of CDS energy
            1           2           3           4           5           6
    1  -0.0000476   0.0009960  -0.0003426   0.0000962  -0.0001403   0.0000146
    2   0.0000436   0.0001745  -0.0002421   0.0001439   0.0000124   0.0000682
    3  -0.0000332  -0.0004243   0.0002722  -0.0000719   0.0001581  -0.0000059
            7           8           9          10          11          12
    1  -0.0000337  -0.0002483   0.0002256  -0.0001024   0.0001919  -0.0000381
    2   0.0000046   0.0001889   0.0001336  -0.0002450  -0.0002685  -0.0000074
    3   0.0000539  -0.0001012   0.0001410   0.0001998   0.0000523   0.0002436
           13          14          15          16          17          18
    1  -0.0002408   0.0001396   0.0000922  -0.0000681  -0.0004011  -0.0000748
    2  -0.0001193   0.0003056   0.0001061   0.0000585  -0.0002113  -0.0001721
    3  -0.0000387  -0.0004119   0.0000164   0.0001968  -0.0002495   0.0000703
           19          20
    1   0.0001231  -0.0001412
    2  -0.0001146   0.0001403
    3  -0.0000023  -0.0000655
 Gradient of SCF Energy
            1           2           3           4           5           6
    1  -0.0029392  -0.0046751   0.0121528  -0.0063240   0.0021371   0.0004403
    2  -0.0040394   0.0143143  -0.0011107   0.0018102  -0.0028432   0.0015520
    3   0.0001102   0.0004962   0.0117554   0.0015392   0.0114887   0.0009780
            7           8           9          10          11          12
    1   0.0001684   0.0089808   0.0064526  -0.0035897   0.0081422   0.0020460
    2  -0.0005465   0.0030322   0.0153137   0.0098693   0.0047163  -0.0049043
    3  -0.0003881  -0.0117941  -0.0043948   0.0008017  -0.0067253   0.0031854
           13          14          15          16          17          18
    1  -0.0008254  -0.0090927  -0.0000763  -0.0054389  -0.0068380  -0.0058925
    2  -0.0060118   0.0017805   0.0013870  -0.0013458  -0.0150640  -0.0109065
    3  -0.0057308  -0.0099086  -0.0031682   0.0064763   0.0025339   0.0040535
           19          20
    1   0.0069825  -0.0018110
    2  -0.0092759   0.0022725
    3  -0.0002682  -0.0010405
 Max gradient component =       1.531E-02
 RMS gradient           =       6.422E-03
 Computing fast CPCM-SWIG gradient
 Updating gradient with PCM contributions...
 -- total gradient after adding PCM contribution --
---------------------------------------------------
  Atom         X              Y              Z     
---------------------------------------------------
   1       0.000011       0.000004       0.000020
   2       0.000012       0.000009       0.000035
   3       0.000023       0.000022       0.000009
   4      -0.000015      -0.000018      -0.000051
   5       0.000010      -0.000014      -0.000060
   6      -0.000050      -0.000089       0.000053
   7       0.000023       0.000093      -0.000016
   8      -0.000025       0.000009      -0.000032
   9       0.000050       0.000019       0.000010
  10       0.000044       0.000021       0.000006
  11      -0.000019      -0.000015       0.000025
  12      -0.000002      -0.000012      -0.000003
  13      -0.000007       0.000001      -0.000017
  14      -0.000033       0.000020      -0.000045
  15      -0.000013       0.000009       0.000005
  16       0.000003      -0.000012       0.000022
  17      -0.000025      -0.000048       0.000022
  18       0.000006      -0.000008       0.000009
  19       0.000018       0.000011       0.000010
  20      -0.000014      -0.000003      -0.000003
---------------------------------------------------
 Number of fixed atoms: 0
 Gradient time:  CPU 430.88 s  wall 62.52 s
 ######################################################
 ######################################################
 # Starting finite difference calculation for IDERIV  #
 Finite diff step size:  1.88973e-03 a.u.
 ----------------------------------------------------------------
             Standard Nuclear Orientation (Angstroms)
    I     Atom           X                Y                Z
 ----------------------------------------------------------------
    1      C       0.8817695000    -0.3182937053    -0.1660397863
    2      C       2.2197407002    -0.4296449134    -0.8355523781
    3      O       2.7396016214     0.7946936988    -1.3235581324
    4      C       0.1973027069     0.8211411207    -0.0684693409
    5      C      -1.1219090464     0.8537847025     0.6272137632
    6      O      -0.9258037272     1.2865496310     2.0300595576
    7      O      -0.4982684747     2.5125625603     2.0999245609
    8      C      -1.8453169091    -0.4814382808     0.7336629236
    9      O      -2.6803047523    -0.5653695009    -0.4277931093
   10      C      -0.9177716051    -1.6593142140     0.8052619230
   11      C       0.3386378598    -1.5720654192     0.3804341732
   12      H       2.9423547239    -0.8115710657    -0.1130332186
   13      H       2.1515600193    -1.1707162673    -1.6378075458
   14      H       2.1803347509     1.0975896515    -2.0471901788
   15      H       0.5851037131     1.7487724462    -0.4643589050
   16      H      -2.4694715293    -0.4469289538     1.6299649894
   17      H      -3.1227039761    -1.4217672430    -0.4153109372
   18      H      -1.3243249089    -2.5908158073     1.1775703502
   19      H       0.9921146837    -2.4359402785     0.4022997370
   20      H      -1.7962090503     1.5886294383     0.1918154544
 ----------------------------------------------------------------
 Nuclear Repulsion Energy =         625.93262557 hartrees
 There are       42 alpha and       41 beta electrons
 Discretize the solute cavity surface with Lebedev spheres
	Using 110 Lebedev grid points for each H atom
	Using 194 Lebedev grid points for other atoms
	Atomic van der Waals radii will be scaled by 1.20
 Remove points where switching function is < 1.0e-08
 Keep 1519 surface tesserae and discard 1605 interior tesserae
 Molecular Surface Area = 173.806 Angst**2
 Requested basis set is 6-311++G(2df,2p)
 There are 142 shells and 464 basis functions
 A cutoff of  1.0D-12 yielded   8825 shell pairs
 There are     94052 function pairs (    116982 Cartesian)
 Smallest overlap matrix eigenvalue = 1.83E-06
 Guess MOs from SCF MO coefficient file

 -----------------------------------------------------------------------
  General SCF calculation program by
  Eric Jon Sundstrom, Paul Horn, Yuezhi Mao, Dmitri Zuev, Alec White,
  David Stuck, Shaama M.S., Shane Yost, Joonho Lee, David Small,
  Daniel Levine, Susi Lehtola, Hugh Burton, Evgeny Epifanovsky,
  Bang C. Huynh
 -----------------------------------------------------------------------
 Exchange:     0.1500 Hartree-Fock + 1.0000 wB97M-V + LR-HF
 Correlation:  1.0000 wB97M-V
 Using SG-2 standard quadrature grid
 Nonlocal Correlation:  VV10 with C = 0.0100 and b = 6.00 and scale = 1.00000
 Grid used for NLC:  SG-1 standard quadrature
 
 Citation of the SMD model:
 Marenich, A.V.; Cramer, C.J.; Truhlar, D.G.
 J. Phys. Chem. B 2009, 113, 6378-6396.
 iSolventCode=           1
 Solvent: water                                                           
 
 vradii
            1           2           3           4           5           6
    1   1.8500000   1.8500000   1.5200000   1.8500000   1.8500000   1.5200000
            7           8           9          10          11          12
    1   1.5200000   1.8500000   1.5200000   1.8500000   1.8500000   1.2000000
           13          14          15          16          17          18
    1   1.2000000   1.2000000   1.2000000   1.2000000   1.2000000   1.2000000
           19          20
    1   1.2000000   1.2000000
 -------------------------------------------------------
 OpenMP BLAS3 based DFT computing Module                
 Release: version 1.0, May 2013, Q-Chem Inc. Pittsburgh 
 -------------------------------------------------------
 A unrestricted SCF calculation will be
 performed using Roothaan-Hall, DIIS, GDM
 SCF converges when RMS gradient is below 1.0e-07
 ---------------------------------------
  Cycle       Energy         DIIS error
 ---------------------------------------
    1    -572.8604117262      1.79e-04  Roothaan Step
 ---------------------------------------
  Cycle       Energy         DIIS error
 ---------------------------------------
    1    -572.8908303132      1.99e-04  
    2    -572.8950464720      1.73e-04  Done DIIS. Switching to GDM
 ---------------------------------------
  Cycle       Energy        RMS Gradient
 ---------------------------------------
    1    -572.8950464720      8.39e-03   Normal BFGS step
    2    -572.8945019774      1.40e-02  Line search: overstep
    3    -572.8971358051      2.95e-03   Normal BFGS step
    4    -572.8972785121      1.52e-03   Normal BFGS step
    5    -572.8973219167      9.15e-04   Normal BFGS step
    6    -572.8973301052      2.65e-04   Normal BFGS step
    7    -572.8973317459      2.19e-04   Normal BFGS step
    8    -572.8973322484      1.21e-04   Normal BFGS step
    9    -572.8973324182      2.82e-05   Normal BFGS step
   10    -572.8973324387      2.94e-05   Normal BFGS step
   11    -572.8973324433      1.03e-05   Normal BFGS step
   12    -572.8973324440      7.04e-06   Normal BFGS step
   13    -572.8973324442      6.13e-06   Normal BFGS step
   14    -572.8973324443      5.14e-06   Normal BFGS step
   15    -572.8973324443      3.13e-06   Normal BFGS step
   16    -572.8973324444      1.38e-06   Normal BFGS step
   17    -572.8973324444      6.63e-07   Normal BFGS step
   18    -572.8973324444      2.71e-07   Normal BFGS step
   19    -572.8973324444      2.10e-07   Normal BFGS step
   20    -572.8973324444      1.70e-07   Normal BFGS step
   21    -572.8973324445      5.90e-08  Convergence criterion met
 ---------------------------------------
 SCF time:   CPU 3275.91s  wall 418.00s 
<S^2> =          0.754085943
(3)  G-ENP(liq) elect-nuc-pol free energy of system     -572.897332444 a.u.
(4)  G-CDS(liq) cavity-dispersion-solvent structure 
     free energy                                                3.0635 kcal/mol
(6)  G-S(liq) free energy of system                     -572.892450404 a.u.
 SCF   energy in the final basis set =     -572.8924504037
 Total energy in the final basis set =     -572.8924504037
 
 --------------------------------------------------------------
 
                    Orbital Energies (a.u.)
 --------------------------------------------------------------
 
 Alpha MOs
 -- Occupied --
-19.4632 -19.4149 -19.3454 -19.3404 -10.4117 -10.4071 -10.3906 -10.3636
-10.3519 -10.3486 -10.3429  -1.3429  -1.1654  -1.1603  -1.0260  -0.9646
 -0.8866  -0.8669  -0.8061  -0.7466  -0.7189  -0.6651  -0.6516  -0.6312
 -0.6189  -0.6082  -0.5986  -0.5675  -0.5622  -0.5426  -0.5357  -0.5184
 -0.4960  -0.4876  -0.4618  -0.4253  -0.4188  -0.4047  -0.3966  -0.3943
 -0.3896  -0.3308
 -- Virtual --
  0.0203   0.0265   0.0344   0.0386   0.0505   0.0553   0.0561   0.0622
  0.0804   0.0848   0.0919   0.1020   0.1119   0.1216   0.1267   0.1357
  0.1422   0.1453   0.1497   0.1544   0.1573   0.1602   0.1651   0.1670
  0.1723   0.1804   0.1861   0.1899   0.1953   0.1997   0.2059   0.2116
  0.2152   0.2201   0.2288   0.2315   0.2367   0.2474   0.2596   0.2678
  0.2729   0.2757   0.2829   0.2893   0.2929   0.2984   0.3037   0.3077
  0.3136   0.3207   0.3250   0.3262   0.3479   0.3525   0.3561   0.3639
  0.3734   0.3771   0.3854   0.3874   0.3908   0.3954   0.3978   0.4067
  0.4143   0.4194   0.4341   0.4408   0.4551   0.4597   0.4770   0.4841
  0.5089   0.5325   0.5437   0.5508   0.5666   0.5812   0.5979   0.6040
  0.6116   0.6241   0.6311   0.6363   0.6450   0.6531   0.6545   0.6710
  0.6828   0.6883   0.6943   0.7005   0.7080   0.7152   0.7273   0.7361
  0.7399   0.7536   0.7571   0.7651   0.7744   0.7850   0.7952   0.8029
  0.8149   0.8219   0.8452   0.8554   0.8702   0.8733   0.8826   0.9047
  0.9140   0.9359   0.9685   0.9752   0.9798   1.0007   1.0218   1.0274
  1.0548   1.0662   1.0729   1.0873   1.1000   1.1127   1.1289   1.1405
  1.1482   1.1578   1.1743   1.1804   1.1914   1.2000   1.2117   1.2208
  1.2279   1.2341   1.2464   1.2542   1.2626   1.2666   1.2721   1.2918
  1.3013   1.3190   1.3258   1.3338   1.3471   1.3622   1.3681   1.3809
  1.3952   1.4031   1.4198   1.4242   1.4402   1.4479   1.4641   1.4681
  1.4795   1.5046   1.5102   1.5201   1.5327   1.5359   1.5498   1.5608
  1.5830   1.5876   1.6021   1.6118   1.6260   1.6336   1.6514   1.6571
  1.6728   1.6804   1.6843   1.7095   1.7278   1.7521   1.7679   1.7897
  1.8201   1.8377   1.8451   1.8606   1.8757   1.9518   1.9798   1.9885
  2.0249   2.0431   2.0743   2.1314   2.1356   2.1486   2.1752   2.2138
  2.2327   2.2687   2.3252   2.3381   2.3538   2.3692   2.3877   2.4142
  2.4414   2.5567   2.5789   2.6302   2.6698   2.6934   2.7108   2.7594
  2.7784   2.8073   2.8205   2.8249   2.8454   2.8626   2.8665   2.8821
  2.8894   2.8941   2.9224   2.9379   2.9517   2.9601   2.9788   2.9911
  3.0012   3.0086   3.0348   3.0483   3.0550   3.0778   3.1038   3.1146
  3.1402   3.1657   3.1771   3.1995   3.2212   3.2465   3.2534   3.2810
  3.3005   3.3131   3.3164   3.3407   3.3488   3.3750   3.3831   3.4096
  3.4238   3.4301   3.4390   3.4549   3.4834   3.4917   3.5000   3.5119
  3.5317   3.5674   3.5765   3.5889   3.6066   3.6172   3.6432   3.6654
  3.6803   3.6951   3.7119   3.7282   3.7416   3.7541   3.7693   3.7810
  3.7972   3.8153   3.8282   3.8348   3.8445   3.8492   3.8698   3.8869
  3.8976   3.9134   3.9414   3.9533   3.9910   3.9927   4.0192   4.0511
  4.0717   4.0871   4.1027   4.1252   4.1443   4.1541   4.1681   4.2044
  4.2210   4.2302   4.2475   4.2529   4.2916   4.2992   4.3250   4.3315
  4.3621   4.3741   4.3820   4.3890   4.4035   4.4206   4.4274   4.4578
  4.4627   4.4897   4.5463   4.5846   4.5936   4.6020   4.6188   4.6378
  4.6680   4.6941   4.7205   4.7305   4.7705   4.7838   4.7995   4.8624
  4.9141   4.9186   4.9537   4.9726   5.0076   5.0386   5.0555   5.0893
  5.0994   5.1208   5.1341   5.1826   5.2194   5.2425   5.2633   5.2838
  5.2904   5.3065   5.3180   5.3374   5.3554   5.3768   5.4072   5.4176
  5.4472   5.4809   5.4944   5.5271   5.5450   5.5826   5.6071   5.6349
  5.6662   5.6818   5.6858   5.7025   5.7104   5.7358   5.7821   5.8445
  5.9201   5.9480   5.9835   6.0236   6.0492   6.0865   6.2613   6.4232
  6.4862   6.5986   6.6318   6.6565   6.8604   6.8913   6.9798   7.0964
  7.0977   7.1189   7.2236   7.2660   7.3173   7.3274   7.3286   7.3399
  7.3671   7.3892   7.4166   7.4366   7.6532   7.6782   7.7912   7.7985
  7.8298   8.0369   8.1111  24.3269  24.6203  24.7178  24.7829  24.8382
 25.1853  25.3651  50.4364  50.5395  50.5962  50.6206
 
 Beta MOs
 -- Occupied --
-19.4523 -19.3966 -19.3454 -19.3404 -10.4121 -10.4071 -10.3905 -10.3637
-10.3518 -10.3486 -10.3426  -1.3163  -1.1653  -1.1603  -1.0060  -0.9541
 -0.8863  -0.8575  -0.8052  -0.7428  -0.7181  -0.6561  -0.6437  -0.6201
 -0.6017  -0.5988  -0.5884  -0.5614  -0.5438  -0.5409  -0.5344  -0.5067
 -0.4955  -0.4748  -0.4550  -0.4246  -0.4153  -0.3959  -0.3938  -0.3858
 -0.3294
 -- Virtual --
 -0.0297   0.0207   0.0270   0.0344   0.0389   0.0507   0.0555   0.0564
  0.0624   0.0810   0.0849   0.0923   0.1025   0.1123   0.1224   0.1272
  0.1373   0.1431   0.1458   0.1504   0.1549   0.1575   0.1605   0.1654
  0.1673   0.1726   0.1813   0.1864   0.1901   0.1969   0.2003   0.2062
  0.2118   0.2156   0.2223   0.2303   0.2316   0.2389   0.2488   0.2606
  0.2714   0.2743   0.2767   0.2838   0.2904   0.2954   0.3005   0.3049
  0.3090   0.3147   0.3216   0.3256   0.3269   0.3483   0.3559   0.3580
  0.3644   0.3746   0.3777   0.3857   0.3884   0.3915   0.3962   0.3995
  0.4075   0.4148   0.4198   0.4352   0.4426   0.4563   0.4601   0.4781
  0.4843   0.5092   0.5331   0.5439   0.5511   0.5667   0.5814   0.5984
  0.6040   0.6118   0.6245   0.6311   0.6366   0.6451   0.6538   0.6546
  0.6715   0.6833   0.6886   0.6945   0.7012   0.7087   0.7157   0.7274
  0.7363   0.7403   0.7537   0.7574   0.7657   0.7751   0.7852   0.7954
  0.8031   0.8151   0.8223   0.8461   0.8556   0.8705   0.8735   0.8833
  0.9053   0.9143   0.9370   0.9696   0.9757   0.9800   1.0021   1.0221
  1.0290   1.0569   1.0685   1.0732   1.0891   1.1023   1.1143   1.1304
  1.1420   1.1512   1.1593   1.1793   1.1878   1.1980   1.2060   1.2148
  1.2277   1.2294   1.2418   1.2547   1.2581   1.2668   1.2678   1.2777
  1.2928   1.3025   1.3202   1.3265   1.3345   1.3486   1.3626   1.3689
  1.3826   1.3964   1.4042   1.4238   1.4265   1.4417   1.4498   1.4664
  1.4704   1.4816   1.5081   1.5130   1.5207   1.5339   1.5382   1.5525
  1.5650   1.5867   1.5893   1.6031   1.6161   1.6275   1.6340   1.6535
  1.6585   1.6803   1.6856   1.7004   1.7212   1.7329   1.7533   1.7696
  1.7922   1.8217   1.8406   1.8529   1.8628   1.8822   1.9584   1.9813
  1.9917   2.0261   2.0464   2.0752   2.1342   2.1413   2.1493   2.1803
  2.2176   2.2458   2.2729   2.3334   2.3457   2.3585   2.3723   2.3887
  2.4163   2.4435   2.5572   2.5799   2.6323   2.6740   2.6951   2.7125
  2.7602   2.7787   2.8083   2.8209   2.8251   2.8458   2.8628   2.8667
  2.8828   2.8896   2.8942   2.9225   2.9381   2.9521   2.9603   2.9790
  2.9911   3.0016   3.0092   3.0349   3.0485   3.0551   3.0778   3.1044
  3.1151   3.1405   3.1658   3.1772   3.1999   3.2217   3.2469   3.2537
  3.2814   3.3007   3.3134   3.3164   3.3409   3.3491   3.3752   3.3833
  3.4101   3.4239   3.4306   3.4394   3.4551   3.4835   3.4920   3.5000
  3.5123   3.5320   3.5678   3.5766   3.5893   3.6069   3.6175   3.6433
  3.6656   3.6804   3.6955   3.7120   3.7283   3.7419   3.7546   3.7695
  3.7813   3.7973   3.8154   3.8285   3.8351   3.8446   3.8494   3.8700
  3.8872   3.8981   3.9135   3.9417   3.9535   3.9913   3.9930   4.0195
  4.0515   4.0718   4.0871   4.1031   4.1253   4.1447   4.1545   4.1686
  4.2046   4.2211   4.2304   4.2478   4.2538   4.2920   4.2997   4.3253
  4.3317   4.3630   4.3749   4.3822   4.3892   4.4038   4.4216   4.4277
  4.4587   4.4641   4.4905   4.5474   4.5870   4.6023   4.6050   4.6374
  4.6390   4.6692   4.6956   4.7221   4.7418   4.7761   4.7872   4.8035
  4.8638   4.9228   4.9317   4.9602   4.9754   5.0115   5.0429   5.0721
  5.1295   5.1436   5.1489   5.1977   5.2178   5.2223   5.2806   5.2853
  5.2985   5.3047   5.3071   5.3217   5.3394   5.3616   5.3808   5.4097
  5.4318   5.4565   5.4878   5.4988   5.5393   5.5519   5.5832   5.6089
  5.6415   5.6673   5.6830   5.6865   5.7035   5.7175   5.7405   5.7944
  5.8557   5.9250   5.9490   5.9836   6.0239   6.0493   6.0875   6.2622
  6.4387   6.5338   6.6049   6.6377   6.6567   6.9433   6.9701   7.0403
  7.0970   7.1136   7.1461   7.2502   7.3073   7.3173   7.3281   7.3373
  7.3412   7.3673   7.3913   7.4430   7.4829   7.6533   7.6787   7.7916
  7.8123   7.8304   8.0493   8.1315  24.3269  24.6204  24.7176  24.7828
 24.8382  25.1854  25.3651  50.4492  50.5492  50.5962  50.6206
 --------------------------------------------------------------
 
          Ground-State Mulliken Net Atomic Charges

     Atom                 Charge (a.u.)    Spin (a.u.)
  --------------------------------------------------------
      1 C                     0.392397       0.004018
      2 C                    -0.400691       0.005396
      3 O                    -0.442101       0.000133
      4 C                    -0.288938       0.003929
      5 C                    -0.456314      -0.003800
      6 O                     0.077920       0.327720
      7 O                    -0.216909       0.658239
      8 C                    -0.407068       0.004979
      9 O                    -0.395184      -0.000388
     10 C                    -0.142052       0.004915
     11 C                    -0.276237      -0.012247
     12 H                     0.218549      -0.000317
     13 H                     0.232390      -0.000171
     14 H                     0.337534      -0.000086
     15 H                     0.294199       0.000131
     16 H                     0.234899      -0.000769
     17 H                     0.336131       0.000011
     18 H                     0.317755       0.000642
     19 H                     0.295282      -0.000239
     20 H                     0.288438       0.007903
  --------------------------------------------------------
  Sum of atomic charges =     0.000000
  Sum of spin   charges =     1.000000

 -----------------------------------------------------------------
                    Cartesian Multipole Moments
 -----------------------------------------------------------------
    Charge (ESU x 10^10)
                 0.0000
    Dipole Moment (Debye)
         X      -1.9796      Y      -5.7862      Z      -2.2895
       Tot       6.5300
    Quadrupole Moments (Debye-Ang)
        XX     -66.0067     XY       1.0320     YY     -63.3967
        XZ      -3.4429     YZ      -9.2626     ZZ     -69.5484
    Octopole Moments (Debye-Ang^2)
       XXX     -20.3014    XXY     -41.3760    XYY      -2.9140
       YYY     -47.2005    XXZ      -1.2302    XYZ       5.1481
       YYZ     -38.1894    XZZ      15.3792    YZZ     -18.3815
       ZZZ     -90.6287
    Hexadecapole Moments (Debye-Ang^3)
      XXXX   -1174.8185   XXXY     -12.0141   XXYY    -254.5011
      XYYY       1.9836   YYYY    -695.8667   XXXZ     214.8932
      XXYZ     -19.3480   XYYZ      63.1022   YYYZ    -147.0362
      XXZZ    -273.6904   XYZZ      10.6907   YYZZ    -235.8757
      XZZZ     172.6607   YZZZ    -138.9707   ZZZZ    -562.8589
 -----------------------------------------------------------------
 Calculating analytic gradient of the SCF energy
 Gradient of CDS energy
            1           2           3           4           5           6
    1  -0.0000462   0.0009950  -0.0003425   0.0000961  -0.0001403   0.0000146
    2   0.0000434   0.0001747  -0.0002422   0.0001442   0.0000124   0.0000683
    3  -0.0000337  -0.0004243   0.0002723  -0.0000719   0.0001581  -0.0000059
            7           8           9          10          11          12
    1  -0.0000337  -0.0002483   0.0002254  -0.0001025   0.0001916  -0.0000381
    2   0.0000046   0.0001889   0.0001337  -0.0002449  -0.0002688  -0.0000073
    3   0.0000539  -0.0001012   0.0001411   0.0001998   0.0000524   0.0002439
           13          14          15          16          17          18
    1  -0.0002407   0.0001396   0.0000922  -0.0000681  -0.0004011  -0.0000748
    2  -0.0001193   0.0003056   0.0001060   0.0000585  -0.0002113  -0.0001721
    3  -0.0000387  -0.0004119   0.0000164   0.0001968  -0.0002495   0.0000703
           19          20
    1   0.0001232  -0.0001413
    2  -0.0001145   0.0001403
    3  -0.0000023  -0.0000655
 Gradient of SCF Energy
            1           2           3           4           5           6
    1  -0.0018533  -0.0050337   0.0121291  -0.0067313   0.0020990   0.0004388
    2  -0.0043534   0.0143473  -0.0011214   0.0021493  -0.0027862   0.0015504
    3  -0.0001923   0.0005938   0.0117735   0.0016126   0.0115019   0.0009752
            7           8           9          10          11          12
    1   0.0001701   0.0089821   0.0064526  -0.0036018   0.0079067   0.0020060
    2  -0.0005467   0.0030386   0.0153121   0.0098035   0.0046476  -0.0048922
    3  -0.0003902  -0.0117989  -0.0043960   0.0008303  -0.0066583   0.0032120
           13          14          15          16          17          18
    1  -0.0008271  -0.0090892  -0.0000553  -0.0054367  -0.0068378  -0.0059004
    2  -0.0060085   0.0017790   0.0013638  -0.0013466  -0.0150629  -0.0109032
    3  -0.0057362  -0.0099110  -0.0031691   0.0064750   0.0025342   0.0040614
           19          20
    1   0.0070006  -0.0018184
    2  -0.0092411   0.0022704
    3  -0.0002829  -0.0010349
 Max gradient component =       1.531E-02
 RMS gradient           =       6.424E-03
 Computing fast CPCM-SWIG gradient
 Updating gradient with PCM contributions...
 -- total gradient after adding PCM contribution --
---------------------------------------------------
  Atom         X              Y              Z     
---------------------------------------------------
   1       0.001074      -0.000303      -0.000281
   2      -0.000340       0.000031       0.000137
   3       0.000000       0.000010       0.000025
   4      -0.000410       0.000331       0.000022
   5      -0.000028       0.000040      -0.000047
   6      -0.000051      -0.000091       0.000050
   7       0.000025       0.000094      -0.000017
   8      -0.000021       0.000010      -0.000038
   9       0.000050       0.000018       0.000010
  10       0.000019      -0.000040       0.000034
  11      -0.000237      -0.000092       0.000087
  12      -0.000044       0.000002       0.000019
  13      -0.000009       0.000008      -0.000017
  14      -0.000030       0.000019      -0.000046
  15       0.000009      -0.000009       0.000003
  16       0.000004      -0.000012       0.000023
  17      -0.000025      -0.000048       0.000022
  18      -0.000001      -0.000006       0.000017
  19       0.000036       0.000041      -0.000003
  20      -0.000022      -0.000004       0.000001
---------------------------------------------------
 Number of fixed atoms: 0
 Gradient time:  CPU 466.84 s  wall 67.54 s
 ----------------------------------------------------------------
             Standard Nuclear Orientation (Angstroms)
    I     Atom           X                Y                Z
 ----------------------------------------------------------------
    1      C       0.8797695000    -0.3182937053    -0.1660397863
    2      C       2.2197407002    -0.4296449134    -0.8355523781
    3      O       2.7396016214     0.7946936988    -1.3235581324
    4      C       0.1973027069     0.8211411207    -0.0684693409
    5      C      -1.1219090464     0.8537847025     0.6272137632
    6      O      -0.9258037272     1.2865496310     2.0300595576
    7      O      -0.4982684747     2.5125625603     2.0999245609
    8      C      -1.8453169091    -0.4814382808     0.7336629236
    9      O      -2.6803047523    -0.5653695009    -0.4277931093
   10      C      -0.9177716051    -1.6593142140     0.8052619230
   11      C       0.3386378598    -1.5720654192     0.3804341732
   12      H       2.9423547239    -0.8115710657    -0.1130332186
   13      H       2.1515600193    -1.1707162673    -1.6378075458
   14      H       2.1803347509     1.0975896515    -2.0471901788
   15      H       0.5851037131     1.7487724462    -0.4643589050
   16      H      -2.4694715293    -0.4469289538     1.6299649894
   17      H      -3.1227039761    -1.4217672430    -0.4153109372
   18      H      -1.3243249089    -2.5908158073     1.1775703502
   19      H       0.9921146837    -2.4359402785     0.4022997370
   20      H      -1.7962090503     1.5886294383     0.1918154544
 ----------------------------------------------------------------
 Nuclear Repulsion Energy =         625.94973367 hartrees
 There are       42 alpha and       41 beta electrons
 Discretize the solute cavity surface with Lebedev spheres
	Using 110 Lebedev grid points for each H atom
	Using 194 Lebedev grid points for other atoms
	Atomic van der Waals radii will be scaled by 1.20
 Remove points where switching function is < 1.0e-08
 Keep 1519 surface tesserae and discard 1605 interior tesserae
 Molecular Surface Area = 173.808 Angst**2
 Requested basis set is 6-311++G(2df,2p)
 There are 142 shells and 464 basis functions
 A cutoff of  1.0D-12 yielded   8825 shell pairs
 There are     94052 function pairs (    116982 Cartesian)
 Smallest overlap matrix eigenvalue = 1.82E-06
 Guess MOs from SCF MO coefficient file

 -----------------------------------------------------------------------
  General SCF calculation program by
  Eric Jon Sundstrom, Paul Horn, Yuezhi Mao, Dmitri Zuev, Alec White,
  David Stuck, Shaama M.S., Shane Yost, Joonho Lee, David Small,
  Daniel Levine, Susi Lehtola, Hugh Burton, Evgeny Epifanovsky,
  Bang C. Huynh
 -----------------------------------------------------------------------
 Exchange:     0.1500 Hartree-Fock + 1.0000 wB97M-V + LR-HF
 Correlation:  1.0000 wB97M-V
 Using SG-2 standard quadrature grid
 Nonlocal Correlation:  VV10 with C = 0.0100 and b = 6.00 and scale = 1.00000
 Grid used for NLC:  SG-1 standard quadrature
 
 Citation of the SMD model:
 Marenich, A.V.; Cramer, C.J.; Truhlar, D.G.
 J. Phys. Chem. B 2009, 113, 6378-6396.
 iSolventCode=           1
 Solvent: water                                                           
 
 vradii
            1           2           3           4           5           6
    1   1.8500000   1.8500000   1.5200000   1.8500000   1.8500000   1.5200000
            7           8           9          10          11          12
    1   1.5200000   1.8500000   1.5200000   1.8500000   1.8500000   1.2000000
           13          14          15          16          17          18
    1   1.2000000   1.2000000   1.2000000   1.2000000   1.2000000   1.2000000
           19          20
    1   1.2000000   1.2000000
 -------------------------------------------------------
 OpenMP BLAS3 based DFT computing Module                
 Release: version 1.0, May 2013, Q-Chem Inc. Pittsburgh 
 -------------------------------------------------------
 A unrestricted SCF calculation will be
 performed using Roothaan-Hall, DIIS, GDM
 SCF converges when RMS gradient is below 1.0e-07
 ---------------------------------------
  Cycle       Energy         DIIS error
 ---------------------------------------
    1    -572.8604037206      1.79e-04  Roothaan Step
 ---------------------------------------
  Cycle       Energy         DIIS error
 ---------------------------------------
    1    -572.8908415323      1.99e-04  
    2    -572.8950508885      1.73e-04  Done DIIS. Switching to GDM
 ---------------------------------------
  Cycle       Energy        RMS Gradient
 ---------------------------------------
    1    -572.8950508885      8.28e-03   Normal BFGS step
    2    -572.8945021858      1.41e-02  Line search: overstep
    3    -572.8971363952      2.95e-03   Normal BFGS step
    4    -572.8972789499      1.50e-03   Normal BFGS step
    5    -572.8973221145      9.17e-04   Normal BFGS step
    6    -572.8973303376      2.66e-04   Normal BFGS step
    7    -572.8973319690      2.19e-04   Normal BFGS step
    8    -572.8973324726      1.21e-04   Normal BFGS step
    9    -572.8973326420      2.78e-05   Normal BFGS step
   10    -572.8973326623      2.92e-05   Normal BFGS step
   11    -572.8973326668      1.01e-05   Normal BFGS step
   12    -572.8973326675      7.12e-06   Normal BFGS step
   13    -572.8973326677      6.20e-06   Normal BFGS step
   14    -572.8973326678      5.19e-06   Normal BFGS step
   15    -572.8973326679      3.14e-06   Normal BFGS step
   16    -572.8973326679      1.37e-06   Normal BFGS step
   17    -572.8973326679      6.44e-07   Normal BFGS step
   18    -572.8973326680      2.55e-07   Normal BFGS step
   19    -572.8973326680      1.98e-07   Normal BFGS step
   20    -572.8973326680      1.63e-07   Normal BFGS step
   21    -572.8973326680      5.83e-08  Convergence criterion met
 ---------------------------------------
 SCF time:   CPU 3367.75s  wall 430.00s 
<S^2> =          0.754085621
(3)  G-ENP(liq) elect-nuc-pol free energy of system     -572.897332668 a.u.
(4)  G-CDS(liq) cavity-dispersion-solvent structure 
     free energy                                                3.0636 kcal/mol
(6)  G-S(liq) free energy of system                     -572.892450447 a.u.
 SCF   energy in the final basis set =     -572.8924504473
 Total energy in the final basis set =     -572.8924504473
 
 --------------------------------------------------------------
 
                    Orbital Energies (a.u.)
 --------------------------------------------------------------
 
 Alpha MOs
 -- Occupied --
-19.4632 -19.4149 -19.3454 -19.3404 -10.4117 -10.4071 -10.3906 -10.3635
-10.3518 -10.3486 -10.3428  -1.3429  -1.1654  -1.1603  -1.0260  -0.9647
 -0.8865  -0.8669  -0.8060  -0.7467  -0.7190  -0.6651  -0.6516  -0.6312
 -0.6189  -0.6082  -0.5986  -0.5674  -0.5622  -0.5426  -0.5357  -0.5185
 -0.4960  -0.4876  -0.4617  -0.4254  -0.4189  -0.4047  -0.3966  -0.3943
 -0.3895  -0.3309
 -- Virtual --
  0.0203   0.0265   0.0344   0.0386   0.0505   0.0553   0.0561   0.0622
  0.0804   0.0848   0.0919   0.1020   0.1119   0.1216   0.1267   0.1358
  0.1422   0.1453   0.1497   0.1544   0.1573   0.1602   0.1651   0.1670
  0.1723   0.1804   0.1861   0.1899   0.1953   0.1997   0.2059   0.2116
  0.2152   0.2201   0.2288   0.2315   0.2367   0.2475   0.2597   0.2678
  0.2728   0.2757   0.2829   0.2893   0.2929   0.2984   0.3037   0.3077
  0.3136   0.3208   0.3250   0.3263   0.3479   0.3524   0.3561   0.3639
  0.3735   0.3770   0.3853   0.3873   0.3908   0.3954   0.3978   0.4066
  0.4142   0.4194   0.4341   0.4409   0.4549   0.4597   0.4770   0.4842
  0.5089   0.5326   0.5436   0.5507   0.5665   0.5814   0.5979   0.6039
  0.6116   0.6242   0.6310   0.6364   0.6449   0.6531   0.6545   0.6710
  0.6828   0.6883   0.6943   0.7006   0.7080   0.7152   0.7274   0.7360
  0.7399   0.7536   0.7571   0.7651   0.7743   0.7851   0.7953   0.8029
  0.8149   0.8219   0.8453   0.8555   0.8702   0.8733   0.8827   0.9048
  0.9141   0.9359   0.9685   0.9752   0.9798   1.0008   1.0218   1.0274
  1.0548   1.0662   1.0728   1.0874   1.1001   1.1127   1.1288   1.1405
  1.1482   1.1578   1.1743   1.1804   1.1915   1.2001   1.2117   1.2208
  1.2279   1.2341   1.2464   1.2543   1.2627   1.2665   1.2722   1.2920
  1.3012   1.3191   1.3257   1.3339   1.3471   1.3622   1.3681   1.3809
  1.3952   1.4030   1.4197   1.4241   1.4403   1.4481   1.4641   1.4681
  1.4796   1.5046   1.5104   1.5201   1.5327   1.5359   1.5498   1.5608
  1.5830   1.5876   1.6021   1.6119   1.6259   1.6336   1.6514   1.6572
  1.6728   1.6806   1.6844   1.7095   1.7278   1.7521   1.7679   1.7899
  1.8201   1.8376   1.8451   1.8606   1.8756   1.9517   1.9799   1.9884
  2.0246   2.0430   2.0744   2.1313   2.1354   2.1485   2.1752   2.2138
  2.2328   2.2684   2.3253   2.3381   2.3538   2.3693   2.3876   2.4140
  2.4413   2.5566   2.5790   2.6303   2.6697   2.6932   2.7106   2.7593
  2.7783   2.8073   2.8205   2.8248   2.8452   2.8626   2.8664   2.8820
  2.8893   2.8940   2.9223   2.9379   2.9517   2.9602   2.9788   2.9910
  3.0012   3.0083   3.0347   3.0482   3.0549   3.0781   3.1040   3.1149
  3.1400   3.1656   3.1768   3.1996   3.2215   3.2465   3.2536   3.2810
  3.3005   3.3134   3.3163   3.3410   3.3493   3.3747   3.3830   3.4096
  3.4239   3.4300   3.4389   3.4547   3.4834   3.4918   3.5002   3.5121
  3.5319   3.5674   3.5766   3.5888   3.6066   3.6172   3.6433   3.6657
  3.6804   3.6951   3.7117   3.7283   3.7418   3.7541   3.7694   3.7810
  3.7973   3.8153   3.8282   3.8349   3.8446   3.8491   3.8698   3.8869
  3.8975   3.9134   3.9415   3.9532   3.9913   3.9927   4.0192   4.0509
  4.0716   4.0870   4.1030   4.1251   4.1445   4.1538   4.1683   4.2044
  4.2211   4.2297   4.2474   4.2530   4.2916   4.2993   4.3250   4.3315
  4.3622   4.3742   4.3821   4.3891   4.4036   4.4206   4.4272   4.4577
  4.4628   4.4897   4.5463   4.5847   4.5935   4.6017   4.6186   4.6379
  4.6681   4.6945   4.7207   4.7306   4.7709   4.7840   4.7998   4.8628
  4.9144   4.9186   4.9532   4.9736   5.0084   5.0390   5.0555   5.0893
  5.0995   5.1208   5.1343   5.1826   5.2199   5.2425   5.2634   5.2838
  5.2905   5.3064   5.3178   5.3375   5.3554   5.3770   5.4075   5.4176
  5.4475   5.4810   5.4943   5.5271   5.5450   5.5826   5.6068   5.6348
  5.6663   5.6818   5.6857   5.7026   5.7105   5.7357   5.7821   5.8444
  5.9203   5.9481   5.9838   6.0235   6.0490   6.0864   6.2630   6.4233
  6.4862   6.5986   6.6318   6.6561   6.8604   6.8914   6.9798   7.0963
  7.0977   7.1189   7.2236   7.2660   7.3172   7.3274   7.3286   7.3399
  7.3670   7.3892   7.4166   7.4366   7.6531   7.6782   7.7911   7.7985
  7.8299   8.0369   8.1111  24.3262  24.6206  24.7179  24.7831  24.8359
 25.1870  25.3677  50.4364  50.5395  50.5962  50.6206
 
 Beta MOs
 -- Occupied --
-19.4523 -19.3966 -19.3454 -19.3404 -10.4120 -10.4071 -10.3906 -10.3636
-10.3518 -10.3486 -10.3425  -1.3162  -1.1653  -1.1603  -1.0060  -0.9541
 -0.8862  -0.8574  -0.8051  -0.7428  -0.7182  -0.6560  -0.6437  -0.6201
 -0.6016  -0.5988  -0.5884  -0.5613  -0.5439  -0.5408  -0.5343  -0.5068
 -0.4956  -0.4748  -0.4549  -0.4247  -0.4154  -0.3959  -0.3937  -0.3858
 -0.3295
 -- Virtual --
 -0.0297   0.0207   0.0271   0.0344   0.0389   0.0507   0.0555   0.0564
  0.0625   0.0810   0.0849   0.0923   0.1026   0.1123   0.1224   0.1272
  0.1373   0.1431   0.1458   0.1504   0.1549   0.1575   0.1605   0.1654
  0.1673   0.1726   0.1813   0.1864   0.1901   0.1969   0.2003   0.2062
  0.2118   0.2156   0.2223   0.2303   0.2317   0.2389   0.2488   0.2607
  0.2714   0.2743   0.2767   0.2838   0.2904   0.2953   0.3005   0.3048
  0.3090   0.3146   0.3216   0.3257   0.3270   0.3483   0.3559   0.3580
  0.3644   0.3747   0.3777   0.3856   0.3883   0.3915   0.3962   0.3995
  0.4075   0.4148   0.4198   0.4352   0.4427   0.4562   0.4601   0.4781
  0.4844   0.5093   0.5333   0.5438   0.5510   0.5666   0.5816   0.5984
  0.6040   0.6118   0.6246   0.6311   0.6367   0.6450   0.6537   0.6546
  0.6716   0.6834   0.6886   0.6945   0.7013   0.7087   0.7157   0.7274
  0.7362   0.7403   0.7537   0.7575   0.7657   0.7750   0.7853   0.7955
  0.8032   0.8150   0.8223   0.8462   0.8557   0.8705   0.8735   0.8833
  0.9053   0.9144   0.9370   0.9696   0.9757   0.9800   1.0022   1.0220
  1.0290   1.0569   1.0685   1.0732   1.0892   1.1024   1.1143   1.1304
  1.1421   1.1512   1.1593   1.1793   1.1878   1.1981   1.2061   1.2148
  1.2277   1.2295   1.2418   1.2547   1.2581   1.2667   1.2679   1.2778
  1.2930   1.3024   1.3202   1.3265   1.3346   1.3486   1.3626   1.3689
  1.3826   1.3964   1.4041   1.4238   1.4263   1.4418   1.4499   1.4664
  1.4703   1.4817   1.5081   1.5131   1.5207   1.5339   1.5382   1.5525
  1.5650   1.5867   1.5893   1.6031   1.6162   1.6275   1.6340   1.6535
  1.6586   1.6803   1.6858   1.7004   1.7211   1.7330   1.7533   1.7696
  1.7923   1.8217   1.8406   1.8530   1.8628   1.8821   1.9584   1.9814
  1.9916   2.0258   2.0464   2.0753   2.1340   2.1411   2.1492   2.1803
  2.2176   2.2458   2.2727   2.3334   2.3457   2.3584   2.3724   2.3885
  2.4161   2.4435   2.5570   2.5800   2.6323   2.6739   2.6950   2.7124
  2.7602   2.7787   2.8083   2.8209   2.8250   2.8456   2.8628   2.8665
  2.8827   2.8895   2.8942   2.9224   2.9381   2.9521   2.9604   2.9790
  2.9910   3.0016   3.0089   3.0349   3.0484   3.0550   3.0781   3.1046
  3.1153   3.1403   3.1657   3.1770   3.2000   3.2220   3.2469   3.2540
  3.2814   3.3007   3.3137   3.3163   3.3412   3.3496   3.3749   3.3833
  3.4101   3.4239   3.4305   3.4392   3.4549   3.4835   3.4920   3.5003
  3.5124   3.5322   3.5678   3.5767   3.5892   3.6069   3.6175   3.6434
  3.6659   3.6805   3.6954   3.7118   3.7283   3.7422   3.7547   3.7696
  3.7813   3.7974   3.8153   3.8284   3.8351   3.8447   3.8494   3.8700
  3.8872   3.8980   3.9134   3.9418   3.9535   3.9916   3.9929   4.0195
  4.0512   4.0717   4.0870   4.1035   4.1253   4.1450   4.1541   4.1688
  4.2047   4.2213   4.2299   4.2476   4.2539   4.2920   4.2998   4.3253
  4.3317   4.3631   4.3750   4.3824   4.3893   4.4039   4.4216   4.4275
  4.4585   4.4642   4.4905   4.5474   4.5871   4.6022   4.6047   4.6374
  4.6391   4.6694   4.6960   4.7223   4.7420   4.7766   4.7873   4.8037
  4.8643   4.9227   4.9321   4.9598   4.9764   5.0122   5.0433   5.0720
  5.1298   5.1436   5.1488   5.1977   5.2179   5.2228   5.2807   5.2854
  5.2984   5.3047   5.3070   5.3215   5.3395   5.3616   5.3810   5.4100
  5.4319   5.4567   5.4877   5.4988   5.5393   5.5519   5.5832   5.6086
  5.6415   5.6674   5.6830   5.6864   5.7035   5.7175   5.7405   5.7945
  5.8556   5.9251   5.9491   5.9839   6.0237   6.0492   6.0875   6.2639
  6.4388   6.5338   6.6049   6.6378   6.6564   6.9434   6.9701   7.0403
  7.0969   7.1136   7.1461   7.2502   7.3073   7.3173   7.3280   7.3373
  7.3411   7.3671   7.3913   7.4430   7.4829   7.6532   7.6787   7.7915
  7.8123   7.8304   8.0494   8.1315  24.3262  24.6206  24.7177  24.7830
 24.8359  25.1871  25.3678  50.4492  50.5493  50.5962  50.6206
 --------------------------------------------------------------
 
          Ground-State Mulliken Net Atomic Charges

     Atom                 Charge (a.u.)    Spin (a.u.)
  --------------------------------------------------------
      1 C                     0.394972       0.004086
      2 C                    -0.400885       0.005393
      3 O                    -0.442061       0.000132
      4 C                    -0.291078       0.003924
      5 C                    -0.455702      -0.003806
      6 O                     0.077923       0.327734
      7 O                    -0.216961       0.658212
      8 C                    -0.407137       0.004965
      9 O                    -0.395182      -0.000387
     10 C                    -0.141005       0.004931
     11 C                    -0.277762      -0.012295
     12 H                     0.218442      -0.000314
     13 H                     0.232376      -0.000171
     14 H                     0.337560      -0.000085
     15 H                     0.294089       0.000129
     16 H                     0.234900      -0.000770
     17 H                     0.336144       0.000011
     18 H                     0.317704       0.000643
     19 H                     0.295324      -0.000240
     20 H                     0.288341       0.007909
  --------------------------------------------------------
  Sum of atomic charges =    -0.000000
  Sum of spin   charges =     1.000000

 -----------------------------------------------------------------
                    Cartesian Multipole Moments
 -----------------------------------------------------------------
    Charge (ESU x 10^10)
                 0.0000
    Dipole Moment (Debye)
         X      -1.9827      Y      -5.7853      Z      -2.2883
       Tot       6.5297
    Quadrupole Moments (Debye-Ang)
        XX     -66.0156     XY       1.0361     YY     -63.3907
        XZ      -3.4379     YZ      -9.2661     ZZ     -69.5488
    Octopole Moments (Debye-Ang^2)
       XXX     -20.2926    XXY     -41.3694    XYY      -2.8992
       YYY     -47.2071    XXZ      -1.2236    XYZ       5.1429
       YYZ     -38.1873    XZZ      15.3833    YZZ     -18.3783
       ZZZ     -90.6211
    Hexadecapole Moments (Debye-Ang^3)
      XXXX   -1174.7672   XXXY     -12.0003   XXYY    -254.4958
      XYYY       1.9692   YYYY    -695.8153   XXXZ     214.9052
      XXYZ     -19.3565   XYYZ      63.1181   YYYZ    -147.0518
      XXZZ    -273.6881   XYZZ      10.6962   YYZZ    -235.8805
      XZZZ     172.6767   YZZZ    -138.9857   ZZZZ    -562.8700
 -----------------------------------------------------------------
 Calculating analytic gradient of the SCF energy
 Gradient of CDS energy
            1           2           3           4           5           6
    1  -0.0000490   0.0009969  -0.0003427   0.0000962  -0.0001403   0.0000147
    2   0.0000439   0.0001742  -0.0002420   0.0001437   0.0000124   0.0000682
    3  -0.0000328  -0.0004244   0.0002722  -0.0000719   0.0001581  -0.0000059
            7           8           9          10          11          12
    1  -0.0000337  -0.0002483   0.0002257  -0.0001024   0.0001922  -0.0000381
    2   0.0000046   0.0001889   0.0001336  -0.0002450  -0.0002681  -0.0000075
    3   0.0000539  -0.0001012   0.0001410   0.0001998   0.0000522   0.0002434
           13          14          15          16          17          18
    1  -0.0002409   0.0001396   0.0000922  -0.0000681  -0.0004011  -0.0000748
    2  -0.0001193   0.0003056   0.0001061   0.0000585  -0.0002113  -0.0001721
    3  -0.0000386  -0.0004119   0.0000164   0.0001968  -0.0002495   0.0000703
           19          20
    1   0.0001231  -0.0001412
    2  -0.0001146   0.0001403
    3  -0.0000022  -0.0000655
 Gradient of SCF Energy
            1           2           3           4           5           6
    1  -0.0040235  -0.0043184   0.0121765  -0.0059164   0.0021753   0.0004418
    2  -0.0037245   0.0142814  -0.0011001   0.0014697  -0.0029002   0.0015535
    3   0.0004119   0.0003997   0.0117373   0.0014656   0.0114755   0.0009809
            7           8           9          10          11          12
    1   0.0001667   0.0089794   0.0064526  -0.0035775   0.0083776   0.0020859
    2  -0.0005462   0.0030258   0.0153153   0.0099351   0.0047854  -0.0049164
    3  -0.0003860  -0.0117893  -0.0043936   0.0007731  -0.0067923   0.0031589
           13          14          15          16          17          18
    1  -0.0008237  -0.0090962  -0.0000973  -0.0054412  -0.0068382  -0.0058846
    2  -0.0060151   0.0017821   0.0014103  -0.0013450  -0.0150651  -0.0109098
    3  -0.0057253  -0.0099062  -0.0031672   0.0064776   0.0025336   0.0040456
           19          20
    1   0.0069644  -0.0018035
    2  -0.0093106   0.0022745
    3  -0.0002534  -0.0010462
 Max gradient component =       1.532E-02
 RMS gradient           =       6.425E-03
 Computing fast CPCM-SWIG gradient
 Updating gradient with PCM contributions...
 -- total gradient after adding PCM contribution --
---------------------------------------------------
  Atom         X              Y              Z     
---------------------------------------------------
   1      -0.001050       0.000311       0.000320
   2       0.000361      -0.000012      -0.000065
   3       0.000046       0.000034      -0.000007
   4       0.000381      -0.000368      -0.000125
   5       0.000048      -0.000068      -0.000073
   6      -0.000048      -0.000087       0.000057
   7       0.000022       0.000093      -0.000015
   8      -0.000029       0.000008      -0.000027
   9       0.000050       0.000019       0.000011
  10       0.000070       0.000082      -0.000022
  11       0.000199       0.000063      -0.000036
  12       0.000041      -0.000027      -0.000025
  13      -0.000005      -0.000006      -0.000016
  14      -0.000035       0.000021      -0.000044
  15      -0.000035       0.000027       0.000007
  16       0.000002      -0.000011       0.000022
  17      -0.000024      -0.000048       0.000022
  18       0.000013      -0.000010       0.000002
  19       0.000000      -0.000018       0.000023
  20      -0.000006      -0.000002      -0.000007
---------------------------------------------------
 Number of fixed atoms: 0
 Gradient time:  CPU 466.19 s  wall 67.30 s
 ----------------------------------------------------------------
             Standard Nuclear Orientation (Angstroms)
    I     Atom           X                Y                Z
 ----------------------------------------------------------------
    1      C       0.8807695000    -0.3172937053    -0.1660397863
    2      C       2.2197407002    -0.4296449134    -0.8355523781
    3      O       2.7396016214     0.7946936988    -1.3235581324
    4      C       0.1973027069     0.8211411207    -0.0684693409
    5      C      -1.1219090464     0.8537847025     0.6272137632
    6      O      -0.9258037272     1.2865496310     2.0300595576
    7      O      -0.4982684747     2.5125625603     2.0999245609
    8      C      -1.8453169091    -0.4814382808     0.7336629236
    9      O      -2.6803047523    -0.5653695009    -0.4277931093
   10      C      -0.9177716051    -1.6593142140     0.8052619230
   11      C       0.3386378598    -1.5720654192     0.3804341732
   12      H       2.9423547239    -0.8115710657    -0.1130332186
   13      H       2.1515600193    -1.1707162673    -1.6378075458
   14      H       2.1803347509     1.0975896515    -2.0471901788
   15      H       0.5851037131     1.7487724462    -0.4643589050
   16      H      -2.4694715293    -0.4469289538     1.6299649894
   17      H      -3.1227039761    -1.4217672430    -0.4153109372
   18      H      -1.3243249089    -2.5908158073     1.1775703502
   19      H       0.9921146837    -2.4359402785     0.4022997370
   20      H      -1.7962090503     1.5886294383     0.1918154544
 ----------------------------------------------------------------
 Nuclear Repulsion Energy =         625.94582182 hartrees
 There are       42 alpha and       41 beta electrons
 Discretize the solute cavity surface with Lebedev spheres
	Using 110 Lebedev grid points for each H atom
	Using 194 Lebedev grid points for other atoms
	Atomic van der Waals radii will be scaled by 1.20
 Remove points where switching function is < 1.0e-08
 Keep 1519 surface tesserae and discard 1605 interior tesserae
 Molecular Surface Area = 173.807 Angst**2
 Requested basis set is 6-311++G(2df,2p)
 There are 142 shells and 464 basis functions
 A cutoff of  1.0D-12 yielded   8825 shell pairs
 There are     94052 function pairs (    116982 Cartesian)
 Smallest overlap matrix eigenvalue = 1.82E-06
 Guess MOs from SCF MO coefficient file

 -----------------------------------------------------------------------
  General SCF calculation program by
  Eric Jon Sundstrom, Paul Horn, Yuezhi Mao, Dmitri Zuev, Alec White,
  David Stuck, Shaama M.S., Shane Yost, Joonho Lee, David Small,
  Daniel Levine, Susi Lehtola, Hugh Burton, Evgeny Epifanovsky,
  Bang C. Huynh
 -----------------------------------------------------------------------
 Exchange:     0.1500 Hartree-Fock + 1.0000 wB97M-V + LR-HF
 Correlation:  1.0000 wB97M-V
 Using SG-2 standard quadrature grid
 Nonlocal Correlation:  VV10 with C = 0.0100 and b = 6.00 and scale = 1.00000
 Grid used for NLC:  SG-1 standard quadrature
 
 Citation of the SMD model:
 Marenich, A.V.; Cramer, C.J.; Truhlar, D.G.
 J. Phys. Chem. B 2009, 113, 6378-6396.
 iSolventCode=           1
 Solvent: water                                                           
 
 vradii
            1           2           3           4           5           6
    1   1.8500000   1.8500000   1.5200000   1.8500000   1.8500000   1.5200000
            7           8           9          10          11          12
    1   1.5200000   1.8500000   1.5200000   1.8500000   1.8500000   1.2000000
           13          14          15          16          17          18
    1   1.2000000   1.2000000   1.2000000   1.2000000   1.2000000   1.2000000
           19          20
    1   1.2000000   1.2000000
 -------------------------------------------------------
 OpenMP BLAS3 based DFT computing Module                
 Release: version 1.0, May 2013, Q-Chem Inc. Pittsburgh 
 -------------------------------------------------------
 A unrestricted SCF calculation will be
 performed using Roothaan-Hall, DIIS, GDM
 SCF converges when RMS gradient is below 1.0e-07
 ---------------------------------------
  Cycle       Energy         DIIS error
 ---------------------------------------
    1    -572.8604162228      1.79e-04  Roothaan Step
 ---------------------------------------
  Cycle       Energy         DIIS error
 ---------------------------------------
    1    -572.8908347233      1.99e-04  
    2    -572.8950480954      1.73e-04  Done DIIS. Switching to GDM
 ---------------------------------------
  Cycle       Energy        RMS Gradient
 ---------------------------------------
    1    -572.8950480954      8.29e-03   Normal BFGS step
    2    -572.8945010374      1.41e-02  Line search: overstep
    3    -572.8971358100      2.96e-03   Normal BFGS step
    4    -572.8972784396      1.49e-03   Normal BFGS step
    5    -572.8973218061      9.16e-04   Normal BFGS step
    6    -572.8973299760      2.66e-04   Normal BFGS step
    7    -572.8973316108      2.19e-04   Normal BFGS step
    8    -572.8973321122      1.21e-04   Normal BFGS step
    9    -572.8973322818      2.81e-05   Normal BFGS step
   10    -572.8973323022      2.88e-05   Normal BFGS step
   11    -572.8973323068      1.00e-05   Normal BFGS step
   12    -572.8973323075      6.99e-06   Normal BFGS step
   13    -572.8973323077      6.09e-06   Normal BFGS step
   14    -572.8973323077      5.11e-06   Normal BFGS step
   15    -572.8973323078      3.12e-06   Normal BFGS step
   16    -572.8973323079      1.38e-06   Normal BFGS step
   17    -572.8973323079      6.51e-07   Normal BFGS step
   18    -572.8973323079      2.54e-07   Normal BFGS step
   19    -572.8973323079      1.95e-07   Normal BFGS step
   20    -572.8973323079      1.60e-07   Normal BFGS step
   21    -572.8973323079      5.89e-08  Convergence criterion met
 ---------------------------------------
 SCF time:   CPU 3377.00s  wall 432.00s 
<S^2> =          0.754085104
(3)  G-ENP(liq) elect-nuc-pol free energy of system     -572.897332308 a.u.
(4)  G-CDS(liq) cavity-dispersion-solvent structure 
     free energy                                                3.0636 kcal/mol
(6)  G-S(liq) free energy of system                     -572.892450095 a.u.
 SCF   energy in the final basis set =     -572.8924500948
 Total energy in the final basis set =     -572.8924500948
 
 --------------------------------------------------------------
 
                    Orbital Energies (a.u.)
 --------------------------------------------------------------
 
 Alpha MOs
 -- Occupied --
-19.4632 -19.4149 -19.3454 -19.3403 -10.4117 -10.4071 -10.3906 -10.3635
-10.3519 -10.3486 -10.3428  -1.3429  -1.1653  -1.1603  -1.0260  -0.9647
[...]
 Force Cnst:      1.5280                 1.0257                 1.3015
 Red. Mass:       1.7853                 1.1559                 1.4348
 IR Active:          YES                    YES                    YES
 IR Intens:      105.661                 27.140                 23.607
 Raman Active:       YES                    YES                    YES
               X      Y      Z        X      Y      Z        X      Y      Z
 C         -0.115 -0.032  0.013   -0.030 -0.020 -0.026   -0.067 -0.010  0.069
 C          0.099  0.093 -0.020   -0.005 -0.061  0.051    0.047  0.097 -0.064
 O         -0.055 -0.119  0.034   -0.007  0.028 -0.013   -0.008 -0.076  0.023
 C         -0.052  0.038  0.030    0.020  0.018 -0.009   -0.014  0.027 -0.010
 C          0.066 -0.002 -0.004   -0.016 -0.007 -0.017    0.015 -0.009 -0.027
 O         -0.003  0.007 -0.009    0.003 -0.002  0.009    0.007  0.003  0.014
 O         -0.002 -0.005 -0.000   -0.000 -0.001 -0.001   -0.003 -0.008 -0.003
 C         -0.017 -0.013 -0.002    0.004  0.004  0.009   -0.008 -0.011  0.009
 O          0.004 -0.020  0.011   -0.004  0.029 -0.018   -0.003  0.032 -0.015
 C          0.012  0.034 -0.019    0.016  0.000  0.005    0.012  0.019  0.002
 C          0.004 -0.005  0.003   -0.017  0.001  0.008   -0.019 -0.001  0.000
 H          0.531  0.281 -0.356    0.312  0.099 -0.186   -0.079  0.025  0.028
 H         -0.018  0.069 -0.001   -0.250 -0.187  0.180    0.358  0.282 -0.254
 H          0.268  0.303 -0.023    0.264  0.359 -0.078   -0.188 -0.285  0.075
 H          0.056 -0.049 -0.069   -0.162  0.107  0.022    0.096 -0.020 -0.017
 H          0.089  0.279  0.063   -0.122 -0.386 -0.069   -0.176 -0.408 -0.099
 H         -0.161  0.065 -0.285    0.231 -0.093  0.405    0.248 -0.099  0.434
 H          0.207 -0.058 -0.044    0.084 -0.049 -0.047    0.115 -0.039 -0.033
 H         -0.020 -0.019  0.016   -0.061 -0.030  0.022   -0.014  0.007  0.002
 H         -0.053 -0.042  0.117    0.178  0.094 -0.148    0.152  0.005 -0.214
 TransDip   0.102  0.245 -0.195    0.140  0.015  0.089    0.138  0.018  0.070

 Mode:                34                     35                     36
 Frequency:      1283.23                1307.07                1318.37
 Force Cnst:      7.3462                 1.2494                 1.5168
 Red. Mass:       7.5719                 1.2413                 1.4812
 IR Active:          YES                    YES                    YES
 IR Intens:       36.736                 11.434                 43.263
 Raman Active:       YES                    YES                    YES
               X      Y      Z        X      Y      Z        X      Y      Z
 C          0.021  0.019 -0.017   -0.004 -0.069  0.025   -0.006  0.099 -0.027
 C          0.003 -0.009 -0.003   -0.022  0.015  0.003    0.043 -0.014 -0.025
 O          0.000  0.010 -0.001    0.006 -0.007 -0.003   -0.006  0.009  0.008
 C         -0.014 -0.003  0.030    0.056  0.003 -0.007   -0.079 -0.002  0.057
 C          0.023 -0.055 -0.039   -0.015 -0.054 -0.042    0.047 -0.047 -0.056
 O          0.144  0.459  0.004   -0.029 -0.016 -0.036   -0.029 -0.037 -0.025
 O         -0.147 -0.421 -0.017    0.013  0.036  0.009    0.016  0.047  0.006
 C         -0.024 -0.026 -0.031   -0.007  0.011  0.005   -0.006 -0.051  0.030
 O          0.006  0.009  0.007    0.002  0.007 -0.020   -0.002  0.019 -0.013
 C         -0.003  0.000  0.007    0.003  0.007  0.004    0.006 -0.009 -0.003
 C          0.007  0.001 -0.000   -0.020  0.010  0.003    0.027 -0.002 -0.006
 H         -0.048 -0.028  0.039   -0.005  0.009 -0.015   -0.050 -0.013  0.066
 H         -0.070 -0.057  0.046    0.133  0.086 -0.073   -0.188 -0.135  0.100
 H         -0.004  0.008  0.001   -0.017 -0.040  0.000   -0.019  0.002  0.014
 H          0.111 -0.100 -0.068   -0.324  0.205  0.100    0.491 -0.353 -0.200
 H         -0.063 -0.086 -0.056    0.219 -0.068  0.169   -0.107  0.024 -0.047
 H          0.074 -0.027  0.123    0.057 -0.022  0.097    0.126 -0.048  0.218
 H         -0.089  0.040  0.017    0.088 -0.036 -0.017   -0.201  0.101  0.050
 H         -0.020 -0.020 -0.007    0.103  0.104 -0.073   -0.187 -0.163  0.107
 H         -0.094  0.232  0.639   -0.030  0.375  0.720    0.091  0.274  0.440
 TransDip  -0.015 -0.194 -0.001   -0.002 -0.105  0.025    0.182 -0.106  0.011

 Mode:                37                     38                     39
 Frequency:      1343.42                1378.20                1392.19
 Force Cnst:      1.4507                 1.6502                 1.4232
 Red. Mass:       1.3643                 1.4746                 1.2462
 IR Active:          YES                    YES                    YES
 IR Intens:       14.246                 13.763                 23.992
 Raman Active:       YES                    YES                    YES
               X      Y      Z        X      Y      Z        X      Y      Z
 C         -0.006  0.036 -0.004   -0.017 -0.014  0.020    0.021  0.020  0.002
 C          0.005 -0.001 -0.002   -0.032 -0.020  0.053    0.039 -0.019  0.064
 O         -0.002 -0.002  0.002   -0.012 -0.010 -0.023   -0.054 -0.017 -0.047
 C          0.009  0.021 -0.019    0.034  0.028 -0.032   -0.032 -0.005  0.019
 C         -0.084 -0.077  0.063   -0.118 -0.072  0.049    0.053  0.028 -0.023
 O          0.010  0.013 -0.005    0.005  0.012 -0.011   -0.002 -0.006  0.004
 O         -0.002 -0.005  0.005   -0.000 -0.002  0.005    0.000  0.001 -0.002
 C         -0.060  0.064 -0.042    0.074 -0.039  0.026   -0.036  0.011 -0.009
 O          0.013  0.000 -0.033   -0.009  0.002  0.008    0.004  0.001 -0.004
 C          0.014 -0.025  0.024    0.033 -0.016 -0.026   -0.005 -0.004  0.011
 C         -0.009 -0.007  0.003    0.016  0.034 -0.017    0.004 -0.005 -0.002
 H          0.012  0.013 -0.003    0.046 -0.103 -0.063   -0.285 -0.436  0.188
 H         -0.006  0.003 -0.005    0.340  0.224 -0.192    0.264  0.265 -0.203
 H         -0.006 -0.000  0.006    0.121  0.187 -0.037    0.338  0.530 -0.105
 H          0.285 -0.122 -0.094    0.065  0.023 -0.021    0.023 -0.037  0.004
 H          0.677 -0.026  0.500   -0.248  0.433 -0.226    0.094 -0.150  0.092
 H          0.038 -0.014  0.069   -0.028  0.013 -0.051    0.020 -0.008  0.036
 H          0.073 -0.080 -0.035   -0.177  0.113  0.050   -0.004 -0.012  0.003
 H         -0.076 -0.059  0.019   -0.157 -0.088  0.104    0.002 -0.009 -0.008
 H          0.265  0.079 -0.219    0.414  0.333 -0.087   -0.158 -0.126  0.042
 TransDip  -0.108  0.047  0.029   -0.002  0.100  0.065    0.115  0.094 -0.051

 Mode:                40                     41                     42
 Frequency:      1424.74                1443.59                1450.73
 Force Cnst:      1.8109                 2.4699                 1.9205
 Red. Mass:       1.5141                 2.0116                 1.5488
 IR Active:          YES                    YES                    YES
 IR Intens:       50.334                 26.742                  9.352
 Raman Active:       YES                    YES                    YES
               X      Y      Z        X      Y      Z        X      Y      Z
 C          0.016  0.000 -0.010   -0.053 -0.018  0.029    0.058  0.082 -0.047
 C         -0.118 -0.029  0.049    0.051 -0.003 -0.023   -0.083  0.002  0.037
 O          0.028  0.009 -0.000   -0.005 -0.005  0.001    0.008  0.006 -0.001
 C         -0.026 -0.005  0.017    0.026  0.006 -0.007   -0.033 -0.002  0.022
 C          0.065  0.041 -0.023   -0.017 -0.087 -0.009   -0.012 -0.048 -0.011
 O         -0.002 -0.004  0.007   -0.002  0.000 -0.009   -0.002 -0.002 -0.007
 O         -0.001 -0.002 -0.003    0.002  0.007  0.005    0.002  0.007  0.003
 C         -0.069  0.011 -0.010    0.032  0.225  0.001    0.061  0.081  0.008
 O          0.005  0.004 -0.006   -0.005 -0.042  0.034   -0.005 -0.019  0.016
 C          0.051 -0.066  0.010    0.072 -0.099  0.002   -0.059  0.032  0.006
 C          0.045  0.067 -0.034    0.001  0.065 -0.021   -0.040 -0.074  0.036
 H          0.366  0.087 -0.375   -0.099  0.103  0.176    0.208 -0.199 -0.350
 H          0.457  0.048 -0.068   -0.204  0.067 -0.060    0.440 -0.114  0.090
 H         -0.087 -0.137  0.024    0.014  0.023 -0.002   -0.033 -0.037  0.011
 H         -0.040 -0.003  0.019    0.019  0.002 -0.014    0.232 -0.162 -0.089
 H          0.104 -0.085  0.124   -0.227 -0.547 -0.162   -0.142 -0.284 -0.133
 H          0.039 -0.014  0.067   -0.250  0.091 -0.427   -0.119  0.042 -0.202
 H         -0.363  0.131  0.070   -0.110 -0.008  0.031    0.357 -0.177 -0.065
 H         -0.309 -0.192  0.154   -0.306 -0.157  0.172    0.240  0.128 -0.113
 H         -0.214 -0.174  0.039   -0.023 -0.022  0.120    0.061  0.066  0.081
 TransDip  -0.181 -0.113  0.078   -0.140  0.040 -0.079    0.055 -0.074 -0.033

 Mode:                43                     44                     45
 Frequency:      1478.23                1702.36                1755.55
 Force Cnst:      1.6130                13.3288                12.5399
 Red. Mass:       1.2529                 7.8062                 6.9058
 IR Active:          YES                    YES                    YES
 IR Intens:       15.496                  6.368                 22.209
 Raman Active:       YES                    YES                    YES
               X      Y      Z        X      Y      Z        X      Y      Z
 C          0.041  0.047 -0.030   -0.140  0.345  0.000   -0.269  0.317  0.064
 C         -0.036 -0.104  0.044    0.031 -0.012 -0.013    0.039 -0.027 -0.013
 O          0.010 -0.002 -0.007   -0.008 -0.005  0.003   -0.008 -0.002  0.002
 C         -0.017 -0.012  0.012    0.192 -0.269 -0.042    0.245 -0.284 -0.066
 C          0.008  0.004 -0.008   -0.003  0.037 -0.000   -0.042  0.026  0.004
 O         -0.001 -0.001  0.000   -0.002  0.004  0.011   -0.001  0.005  0.009
 O          0.000  0.001 -0.000   -0.002 -0.004 -0.001   -0.001 -0.003  0.000
 C          0.009 -0.002  0.001   -0.057 -0.009  0.009    0.044 -0.018 -0.016
 O         -0.000 -0.001  0.001   -0.003  0.006 -0.005    0.003 -0.002  0.003
 C         -0.028  0.018  0.004    0.405 -0.015 -0.124   -0.304  0.032  0.088
 C         -0.007 -0.032  0.011   -0.377 -0.127  0.157    0.305  0.016 -0.109
 H          0.148  0.619  0.217    0.077 -0.028 -0.070    0.090 -0.050 -0.082
 H         -0.162  0.499 -0.465    0.126 -0.001 -0.028    0.135 -0.023 -0.019
 H          0.006 -0.004 -0.003    0.009  0.012  0.000    0.010  0.016  0.001
 H          0.060 -0.059 -0.019   -0.233 -0.060  0.129   -0.323  0.000  0.179
 H         -0.007 -0.036 -0.011   -0.044  0.237  0.006    0.071 -0.079  0.010
 H         -0.004  0.001 -0.006    0.018 -0.005  0.030   -0.003  0.001 -0.001
 H          0.102 -0.049 -0.018   -0.140  0.314 -0.046    0.154 -0.245  0.031
 H          0.089  0.035 -0.042    0.008  0.218 -0.058   -0.143 -0.365  0.150
 H         -0.016  0.001  0.028   -0.186 -0.090  0.074   -0.104  0.014  0.084
 TransDip  -0.108  0.002  0.065   -0.026  0.076  0.001   -0.083  0.121  0.036

 Mode:                46                     47                     48
 Frequency:      3038.19                3057.97                3095.26
 Force Cnst:      5.7987                 5.9704                 6.1936
 Red. Mass:       1.0662                 1.0836                 1.0972
 IR Active:          YES                    YES                    YES
 IR Intens:       51.443                 37.316                 20.368
 Raman Active:       YES                    YES                    YES
               X      Y      Z        X      Y      Z        X      Y      Z
 C         -0.000 -0.000 -0.001    0.000  0.000  0.000   -0.001 -0.000 -0.001
 C          0.015 -0.060 -0.039   -0.000  0.000  0.000   -0.053  0.009 -0.072
 O         -0.001 -0.001  0.000    0.000  0.000 -0.000    0.001 -0.000  0.001
 C         -0.001  0.000  0.000   -0.000 -0.000 -0.000    0.000 -0.000 -0.000
 C          0.000 -0.000 -0.000   -0.001  0.001 -0.001   -0.000  0.000 -0.000
 O          0.000 -0.000 -0.000   -0.000 -0.000 -0.000    0.000 -0.000 -0.000
 O         -0.000 -0.000 -0.000   -0.000  0.000  0.000   -0.000  0.000  0.000
 C          0.000 -0.000 -0.000    0.051 -0.002 -0.066    0.000  0.000 -0.000
 O          0.000 -0.000  0.000   -0.001 -0.000 -0.001   -0.000  0.000 -0.000
 C          0.000  0.000 -0.000   -0.001 -0.002  0.001   -0.000  0.000  0.000
 C         -0.000  0.000  0.000   -0.000 -0.000 -0.000    0.001 -0.000  0.000
 H         -0.227  0.107 -0.240    0.000 -0.000  0.000    0.630 -0.322  0.617
 H          0.057  0.616  0.701   -0.000 -0.004 -0.004    0.006  0.224  0.243
 H          0.001 -0.000  0.006   -0.000  0.000 -0.000   -0.014 -0.001 -0.008
 H          0.002  0.005 -0.002   -0.000 -0.001  0.000   -0.001 -0.002  0.001
 H         -0.003  0.000  0.005   -0.585  0.028  0.805   -0.001 -0.000  0.001
 H         -0.000  0.000 -0.000   -0.003  0.000 -0.001    0.000 -0.000  0.000
 H          0.001  0.001 -0.000    0.016  0.030 -0.011   -0.001 -0.001  0.000
 H          0.005 -0.005 -0.001   -0.001  0.002 -0.002   -0.006  0.007 -0.000
 H         -0.000  0.001 -0.000    0.018 -0.018  0.012    0.002 -0.002  0.001
 TransDip   0.007 -0.225 -0.048    0.071 -0.021 -0.181   -0.069  0.031 -0.123

 Mode:                49                     50                     51
 Frequency:      3118.32                3179.26                3201.87
 Force Cnst:      6.2201                 6.4723                 6.6348
 Red. Mass:       1.0857                 1.0868                 1.0984
 IR Active:          YES                    YES                    YES
 IR Intens:       10.507                  7.971                 14.743
 Raman Active:       YES                    YES                    YES
               X      Y      Z        X      Y      Z        X      Y      Z
 C         -0.000  0.001  0.000    0.001  0.001 -0.001    0.000  0.001 -0.000
 C         -0.000  0.000 -0.000    0.001 -0.001  0.000    0.000 -0.000  0.000
 O          0.000 -0.000 -0.000   -0.000 -0.000  0.000   -0.000 -0.000  0.000
 C          0.001  0.003 -0.001   -0.000  0.001 -0.000   -0.001 -0.003  0.001
 C          0.052 -0.058  0.032   -0.000 -0.000  0.000   -0.000  0.001 -0.000
 O          0.000 -0.000  0.001    0.000 -0.000 -0.000   -0.000 -0.000  0.000
 O         -0.000  0.000 -0.000    0.000  0.000  0.000   -0.000 -0.000 -0.000
 C          0.002  0.000 -0.002    0.001 -0.000 -0.001   -0.003  0.001  0.002
 O         -0.000  0.000 -0.000   -0.000  0.000 -0.000    0.000 -0.000  0.000
 C         -0.000 -0.000  0.000    0.012  0.033 -0.013   -0.035 -0.066  0.028
 C          0.000 -0.001  0.000    0.046 -0.060  0.001    0.030 -0.031 -0.001
 H          0.002 -0.001  0.002   -0.008  0.003 -0.006   -0.003  0.001 -0.002
 H         -0.000  0.000  0.000   -0.001  0.002  0.003   -0.000  0.001  0.001
 H         -0.000  0.000  0.000    0.001  0.000  0.000    0.001 -0.000  0.000
 H         -0.015 -0.040  0.014   -0.000 -0.002  0.001    0.012  0.030 -0.013
 H         -0.017 -0.000  0.022   -0.009  0.001  0.011    0.021 -0.004 -0.024
 H         -0.003 -0.002 -0.001   -0.001 -0.001 -0.001    0.002  0.002  0.001
 H          0.004  0.009 -0.004   -0.171 -0.396  0.160    0.333  0.759 -0.306
 H         -0.004  0.005 -0.000   -0.530  0.706 -0.020   -0.277  0.364 -0.009
 H         -0.615  0.677 -0.392    0.001 -0.001  0.000    0.005 -0.006  0.003
 TransDip   0.085 -0.055  0.022    0.064 -0.064 -0.006   -0.014 -0.118  0.031

 Mode:                52                     53                     54
 Frequency:      3214.14                3823.51                3826.19
 Force Cnst:      6.6441                 9.1880                 9.1998
 Red. Mass:       1.0916                 1.0667                 1.0666
 IR Active:          YES                    YES                    YES
 IR Intens:        0.438                141.177                106.405
 Raman Active:       YES                    YES                    YES
               X      Y      Z        X      Y      Z        X      Y      Z
 C         -0.003  0.004  0.001   -0.000 -0.000  0.000    0.000 -0.000 -0.000
 C         -0.001 -0.000  0.000    0.000 -0.000  0.000   -0.002 -0.000 -0.001
 O         -0.000  0.000  0.000    0.001 -0.001  0.001   -0.035  0.021 -0.047
 C         -0.028 -0.076  0.031   -0.000  0.000  0.000   -0.000  0.000 -0.000
 C          0.004 -0.003  0.000    0.000 -0.000  0.000    0.000 -0.000 -0.000
 O         -0.000  0.000  0.000    0.000  0.000  0.000    0.000  0.000  0.000
 O          0.000 -0.000 -0.000   -0.000  0.000  0.000    0.000 -0.000  0.000
 C          0.001  0.000 -0.000    0.000 -0.001  0.001    0.000 -0.000  0.000
 O         -0.000 -0.000 -0.000   -0.030 -0.055 -0.001   -0.001 -0.002 -0.000
 C          0.001  0.002 -0.001    0.000  0.000  0.000    0.000 -0.000  0.000
 C         -0.000  0.001 -0.000    0.000 -0.000  0.000   -0.000  0.000  0.000
 H          0.004 -0.002  0.002   -0.000  0.000 -0.000    0.008 -0.005  0.010
 H          0.002 -0.003 -0.004    0.000  0.000 -0.000   -0.001 -0.003  0.002
 H          0.001 -0.000 -0.001   -0.016  0.009 -0.021    0.570 -0.323  0.752
 H          0.353  0.855 -0.364    0.000  0.000 -0.000    0.001 -0.000  0.000
 H         -0.002 -0.000  0.002    0.001  0.000  0.003   -0.000 -0.000  0.000
 H         -0.000 -0.000 -0.000    0.463  0.884 -0.004    0.013  0.024 -0.000
 H         -0.012 -0.027  0.011   -0.002 -0.002  0.001   -0.000 -0.000  0.000
 H          0.007 -0.011  0.001    0.000 -0.000 -0.001    0.000 -0.000 -0.000
 H         -0.030  0.030 -0.014   -0.001  0.002 -0.001   -0.000  0.000  0.000
 TransDip  -0.008 -0.007  0.018    0.239  0.292  0.051    0.118 -0.149  0.270

 STANDARD THERMODYNAMIC QUANTITIES AT   298.15 K  AND     1.00 ATM

   This Molecule has  0 Imaginary Frequencies
   Zero point vibrational energy:       98.436 kcal/mol

   Atom    1 Element C  Has Mass   12.00000
   Atom    2 Element C  Has Mass   12.00000
   Atom    3 Element O  Has Mass   15.99491
   Atom    4 Element C  Has Mass   12.00000
   Atom    5 Element C  Has Mass   12.00000
   Atom    6 Element O  Has Mass   15.99491
   Atom    7 Element O  Has Mass   15.99491
   Atom    8 Element C  Has Mass   12.00000
   Atom    9 Element O  Has Mass   15.99491
   Atom   10 Element C  Has Mass   12.00000
   Atom   11 Element C  Has Mass   12.00000
   Atom   12 Element H  Has Mass    1.00783
   Atom   13 Element H  Has Mass    1.00783
   Atom   14 Element H  Has Mass    1.00783
   Atom   15 Element H  Has Mass    1.00783
   Atom   16 Element H  Has Mass    1.00783
   Atom   17 Element H  Has Mass    1.00783
   Atom   18 Element H  Has Mass    1.00783
   Atom   19 Element H  Has Mass    1.00783
   Atom   20 Element H  Has Mass    1.00783
   Molecular Mass:   157.050110 amu
   Principal axes and moments of inertia in amu*Bohr^2:
                             1           2           3
    Eigenvalues --     1307.31936  2048.97022  2807.33127
          X               0.89441     0.24491     0.37423
          Y              -0.05828     0.89343    -0.44541
          Z              -0.44343     0.37657     0.81337
   Rotational Symmetry Number is   1
   The Molecule is an Asymmetric Top
   Translational Enthalpy:        0.889 kcal/mol
   Rotational Enthalpy:           0.889 kcal/mol
   Vibrational Enthalpy:        103.547 kcal/mol
   gas constant (RT):             0.592 kcal/mol
   Translational Entropy:        41.063  cal/mol.K
   Rotational Entropy:           30.398  cal/mol.K
   Vibrational Entropy:          32.248  cal/mol.K

   Total Enthalpy:              105.917 kcal/mol
   Total Entropy:               103.709  cal/mol.K
 Total job time:  58940.05s(wall), 454541.40s(cpu) 
 Sat Apr 22 09:55:12 2023

        *************************************************************
        *                                                           *
        *  Thank you very much for using Q-Chem.  Have a nice day.  *
        *                                                           *
        *************************************************************


