
Running Job 1 of 1 Q_in.in
qchem Q_in.in_111525.0 /scratch/ari.fischer/qChem1516134.hpc-mn1/qchem111525/ 0
/usr/local/qchem-5.4.1/exe/qcprog.exe_s Q_in.in_111525.0 /scratch/ari.fischer/qChem1516134.hpc-mn1/qchem111525/
                  Welcome to Q-Chem
     A Quantum Leap Into The Future Of Chemistry


 Q-Chem 5.4, Q-Chem, Inc., Pleasanton, CA (2021)

 License issued to: Nanyang Technological University (site)

 E. Epifanovsky,  A. T. B. Gilbert,  Xintian Feng,  Joonho Lee,  Yuezhi Mao,  
 N. Mardirossian,  P. Pokhilko,  A. White,  M. Wormit,  M. P. Coons,  
 A. L. Dempwolff,  Zhengting Gan,  D. Hait,  P. R. Horn,  L. D. Jacobson,  
 I. Kaliman,  J. Kussmann,  A. W. Lange,  Ka Un Lao,  D. S. Levine,  Jie Liu,  
 S. C. McKenzie,  A. F. Morrison,  K. Nanda,  F. Plasser,  D. R. Rehn,  
 M. L. Vidal,  Zhi-Qiang You,  Ying Zhu,  B. Alam,  B. Albrecht,  
 A. Aldossary,  E. Alguire,  J. H. Andersen,  D. Barton,  K. Begam,  A. Behn,  
 Y. A. Bernard,  E. J. Berquist,  H. Burton,  A. Carreras,  K. Carter-Fenk,  
 R. Chakraborty,  A. D. Chien,  K. D. Closser,  V. Cofer-Shabica,  
 S. Dasgupta,  Jia Deng,  M. de Wergifosse,  M. Diedenhofen,  Hainam Do,  
 S. Ehlert,  Po-Tung Fang,  S. Fatehi,  Qingguo Feng,  T. Friedhoff,  
 J. Gayvert,  Qinghui Ge,  G. Gidofalvi,  M. Goldey,  J. Gomes,  
 C. Gonzalez-Espinoza,  S. Gulania,  A. Gunina,  M. W. D. Hanson-Heine,  
 P. H. P. Harbach,  A. W. Hauser,  M. F. Herbst,  M. Hernandez Vera,  
 M. Hodecker,  Z. C. Holden,  S. Houck,  Xunkun Huang,  Kerwin Hui,  
 B. C. Huynh,  M. Ivanov,  Hyunjun Ji,  Hanjie Jiang,  B. Kaduk,  S. Kaehler,  
 K. Khistyaev,  Jaehoon Kim,  P. Klunzinger,  Z. Koczor-Benda,  
 Joong Hoon Koh,  D. Kosenkov,  L. Koulias,  T. Kowalczyk,  C. M. Krauter,  
 K. Kue,  A. Kunitsa,  T. Kus,  A. Landau,  K. V. Lawler,  D. Lefrancois,  
 S. Lehtola,  Rain Li,  Yi-Pei Li,  Jiashu Liang,  M. Liebenthal,  
 Hung-Hsuan Lin,  You-Sheng Lin,  Fenglai Liu,  Kuan-Yu Liu,  
 M. Loipersberger,  A. Luenser,  A. Manjanath,  P. Manohar,  E. Mansoor,  
 S. F. Manzer,  Shan-Ping Mao,  A. V. Marenich,  T. Markovich,  S. Mason,  
 S. A. Maurer,  P. F. McLaughlin,  M. F. S. J. Menger,  J.-M. Mewes,  
 S. A. Mewes,  P. Morgante,  J. W. Mullinax,  K. J. Oosterbaan,  G. Paran,  
 Alexander C. Paul,  Suranjan K. Paul,  F. Pavosevic,  Zheng Pei,  S. Prager,  
 E. I. Proynov,  E. Ramos,  B. Rana,  A. E. Rask,  A. Rettig,  R. M. Richard,  
 F. Rob,  E. Rossomme,  T. Scheele,  M. Scheurer,  M. Schneider,  
 N. Sergueev,  S. M. Sharada,  W. Skomorowski,  D. W. Small,  C. J. Stein,  
 Yu-Chuan Su,  E. J. Sundstrom,  Zhen Tao,  J. Thirman,  T. Tsuchimochi,  
 N. M. Tubman,  S. P. Veccham,  O. Vydrov,  J. Wenzel,  J. Witte,  A. Yamada,  
 Kun Yao,  S. Yeganeh,  S. R. Yost,  A. Zech,  Igor Ying Zhang,  Xing Zhang,  
 Yu Zhang,  D. Zuev,  A. Aspuru-Guzik,  A. T. Bell,  N. A. Besley,  
 K. B. Bravaya,  B. R. Brooks,  D. Casanova,  Jeng-Da Chai,  S. Coriani,  
 C. J. Cramer,  A. E. DePrince, III,  R. A. DiStasio Jr.,  A. Dreuw,  
 B. D. Dunietz,  T. R. Furlani,  W. A. Goddard III,  S. Grimme,  
 S. Hammes-Schiffer,  T. Head-Gordon,  W. J. Hehre,  Chao-Ping Hsu,  
 T.-C. Jagau,  Yousung Jung,  A. Klamt,  Jing Kong,  D. S. Lambrecht,  
 WanZhen Liang,  N. J. Mayhall,  C. W. McCurdy,  J. B. Neaton,  
 C. Ochsenfeld,  J. A. Parkhill,  R. Peverati,  V. A. Rassolov,  Yihan Shao,  
 L. V. Slipchenko,  T. Stauch,  R. P. Steele,  J. E. Subotnik,  
 A. J. W. Thom,  A. Tkatchenko,  D. G. Truhlar,  T. Van Voorhis,  
 T. A. Wesolowski,  K. B. Whaley,  H. L. Woodcock III,  P. M. Zimmerman,  
 S. Faraji,  P. M. W. Gill,  M. Head-Gordon,  J. M. Herbert,  A. I. Krylov

 Additional authors for Version 5.4.1: 
 S. Kotaru,  Shaozhi Li,  Xiangyuan Li,  F. Matz,  A. Molle,  Haisheng Ren,  
 Yingli Su,  Hung-Yi Tsai,  C. Utku,  Fang Wang

 Contributors to earlier versions of Q-Chem not listed above: 
 R. D. Adamson,  B. Austin,  R. Baer,  J. Baker,  G. J. O. Beran,  
 K. Brandhorst,  S. T. Brown,  E. F. C. Byrd,  A. K. Chakraborty,  
 G. K. L. Chan,  Chun-Min Chang,  Yunqing Chen,  C.-L. Cheng,  
 Siu Hung Chien,  D. M. Chipman,  D. L. Crittenden,  H. Dachsel,  
 R. J. Doerksen,  A. D. Dutoi,  R. G. Edgar,  J. Fosso-Tande,  
 L. Fusti-Molnar,  D. Ghosh,  A. Ghysels,  A. Golubeva-Zadorozhnaya,  
 J. Gonthier,  M. S. Gordon,  S. R. Gwaltney,  G. Hawkins,  J. E. Herr,  
 A. Heyden,  S. Hirata,  E. G. Hohenstein,  G. Kedziora,  F. J. Keil,  
 C. Kelley,  Jihan Kim,  R. A. King,  R. Z. Khaliullin,  P. P. Korambath,  
 W. Kurlancheek,  A. Laurent,  A. M. Lee,  M. S. Lee,  S. V. Levchenko,  
 Ching Yeh Lin,  D. Liotard,  E. Livshits,  R. C. Lochan,  I. Lotan,  
 L. A. Martinez-Martinez,  P. E. Maslen,  N. Nair,  D. P. O'Neill,  
 D. Neuhauser,  E. Neuscamman,  C. M. Oana,  R. Olivares-Amaya,  R. Olson,  
 T. M. Perrine,  B. Peters,  P. A. Pieniazek,  A. Prociuk,  Y. M. Rhee,  
 J. Ritchie,  M. A. Rohrdanz,  E. Rosta,  N. J. Russ,  H. F. Schaefer III,  
 M. W. Schmidt,  N. E. Schultz,  S. Sharma,  N. Shenvi,  C. D. Sherrill,  
 A. C. Simmonett,  A. Sodt,  T. Stein,  D. Stuck,  K. S. Thanthiriwatte,  
 V. Vanovschi,  L. Vogt,  Tao Wang,  A. Warshel,  M. A. Watson,  
 C. F. Williams,  Q. Wu,  X. Xu,  Jun Yang,  W. Zhang,  Yan Zhao

 Please cite Q-Chem as follows:
 Y. Shao et al., Mol. Phys. 113, 184-215 (2015)
 DOI: 10.1080/00268976.2014.952696

 Q-Chem 5.4.1 for Intel X86 EM64T Linux

 Parts of Q-Chem use Armadillo 9.800.1 (Horizon Scraper).
 http://arma.sourceforge.net/

 Q-Chem begins on Thu Apr 20 21:49:11 2023  

 Host: 
0

     Scratch files written to /scratch/ari.fischer/qChem1516134.hpc-mn1/qchem111525//
 Aug1521 |scratch|qcdevops|jenkins|workspace|build_RNUM 8249   
 Processing $rem in /usr/local/qchem-5.4.1/config/preferences:
 Processing $rem in /home/ari.fischer/.qchemrc:
 Symmetry turned off for PCM/SM12/SMD calculation

 Checking the input file for inconsistencies... 	...done.

--------------------------------------------------------------
User input:
--------------------------------------------------------------
$molecule
0 2
C         0.8800249964   -0.3206087094   -0.1594880387
C         2.2287313727   -0.4120324980   -0.8262797368
O         2.6892321660    0.8118917248   -1.3733383961
C         0.1934180945    0.8243953059   -0.0647124078
C        -1.1265145747    0.8582521073    0.6380405750
O        -0.9215631731    1.2565939757    2.0503937659
O        -0.4119796144    2.4593801596    2.1309115927
C        -1.8605610822   -0.4773177724    0.7199016944
O        -2.6473334386   -0.5516191633   -0.4745808179
C        -0.9283983808   -1.6570773592    0.8175962654
C         0.3346802003   -1.5752243470    0.3907171523
H         2.9722736473   -0.7219513789   -0.0828607848
H         2.1977891668   -1.2022775812   -1.5902413997
H         2.0991987859    1.0317583169   -2.1126461481
H         0.5925155951    1.7544160839   -0.4559551107
H        -2.5150544510   -0.4422019314    1.6009038361
H        -3.1014435950   -1.4102685438   -0.4593029227
H        -1.3386022225   -2.5911164898    1.1933900810
H         0.9902541787   -2.4433181865    0.4185454942
H        -1.8012313716    1.6081838869    0.2180992066
$end

$rem
BASIS = 6-311++G(2df,2p)
GUI = 2
JOB_TYPE = Optimization
METHOD = wB97M-V
SCF_ALGORITHM = DIIS_GDM
MAX_SCF_CYCLES = 400
GEOM_OPT_MAX_CYCLES = 150
SCF_CONVERGENCE = 7
THRESH = 12
UNRESTRICTED = 1
Solvent_method = SMD
$end
--------------------------------------------------------------
 ----------------------------------------------------------------
             Standard Nuclear Orientation (Angstroms)
    I     Atom           X                Y                Z
 ----------------------------------------------------------------
    1      C       0.8800249964    -0.3206087094    -0.1594880387
    2      C       2.2287313727    -0.4120324980    -0.8262797368
    3      O       2.6892321660     0.8118917248    -1.3733383961
    4      C       0.1934180945     0.8243953059    -0.0647124078
    5      C      -1.1265145747     0.8582521073     0.6380405750
    6      O      -0.9215631731     1.2565939757     2.0503937659
    7      O      -0.4119796144     2.4593801596     2.1309115927
    8      C      -1.8605610822    -0.4773177724     0.7199016944
    9      O      -2.6473334386    -0.5516191633    -0.4745808179
   10      C      -0.9283983808    -1.6570773592     0.8175962654
   11      C       0.3346802003    -1.5752243470     0.3907171523
   12      H       2.9722736473    -0.7219513789    -0.0828607848
   13      H       2.1977891668    -1.2022775812    -1.5902413997
   14      H       2.0991987859     1.0317583169    -2.1126461481
   15      H       0.5925155951     1.7544160839    -0.4559551107
   16      H      -2.5150544510    -0.4422019314     1.6009038361
   17      H      -3.1014435950    -1.4102685438    -0.4593029227
   18      H      -1.3386022225    -2.5911164898     1.1933900810
   19      H       0.9902541787    -2.4433181865     0.4185454942
   20      H      -1.8012313716     1.6081838869     0.2180992066
 ----------------------------------------------------------------
 Nuclear Repulsion Energy =         625.66829774 hartrees
 There are       42 alpha and       41 beta electrons
 Requested basis set is 6-311++G(2df,2p)
 There are 142 shells and 464 basis functions

 Total QAlloc Memory Limit 288000 MB
 Mega-Array Size       188 MB
 MEM_STATIC part       192 MB
 
 Citation of the SMD model:
 Marenich, A.V.; Cramer, C.J.; Truhlar, D.G.
 J. Phys. Chem. B 2009, 113, 6378-6396.
 iSolventCode=           1
 Solvent: water                                                           
 
 vradii
            1           2           3           4           5           6
    1   1.8500000   1.8500000   1.5200000   1.8500000   1.8500000   1.5200000
            7           8           9          10          11          12
    1   1.5200000   1.8500000   1.5200000   1.8500000   1.8500000   1.2000000
           13          14          15          16          17          18
    1   1.2000000   1.2000000   1.2000000   1.2000000   1.2000000   1.2000000
           19          20
    1   1.2000000   1.2000000
 Changing PCM_VDW_RADII to SMD_RADIUS
 Discretize the solute cavity surface with Lebedev spheres
	Using 110 Lebedev grid points for each H atom
	Using 194 Lebedev grid points for other atoms
	Atomic van der Waals radii will be scaled by 1.20
 Remove points where switching function is < 1.0e-08
 Keep 1522 surface tesserae and discard 1602 interior tesserae
 Molecular Surface Area = 174.409 Angst**2
 A cutoff of  1.0D-12 yielded   8828 shell pairs
 There are     94066 function pairs (    117007 Cartesian)
 Smallest overlap matrix eigenvalue = 1.95E-06

 Scale SEOQF with 1.000000e-01/1.000000e-01/1.000000e-01

 Standard Electronic Orientation quadrupole field applied
 Nucleus-field energy     =     0.0000000058 hartrees
 Guess from superposition of atomic densities
 Warning:  Energy on first SCF cycle will be non-variational
 SAD guess density has 83.000000 electrons

 -----------------------------------------------------------------------
  General SCF calculation program by
  Eric Jon Sundstrom, Paul Horn, Yuezhi Mao, Dmitri Zuev, Alec White,
  David Stuck, Shaama M.S., Shane Yost, Joonho Lee, David Small,
  Daniel Levine, Susi Lehtola, Hugh Burton, Evgeny Epifanovsky,
  Bang C. Huynh
 -----------------------------------------------------------------------
 Exchange:     0.1500 Hartree-Fock + 1.0000 wB97M-V + LR-HF
 Correlation:  1.0000 wB97M-V
 Using SG-2 standard quadrature grid
 Nonlocal Correlation:  VV10 with C = 0.0100 and b = 6.00 and scale = 1.00000
 Grid used for NLC:  SG-1 standard quadrature
 
 Citation of the SMD model:
 Marenich, A.V.; Cramer, C.J.; Truhlar, D.G.
 J. Phys. Chem. B 2009, 113, 6378-6396.
 iSolventCode=           1
 Solvent: water                                                           
 
 vradii
            1           2           3           4           5           6
    1   1.8500000   1.8500000   1.5200000   1.8500000   1.8500000   1.5200000
            7           8           9          10          11          12
    1   1.5200000   1.8500000   1.5200000   1.8500000   1.8500000   1.2000000
           13          14          15          16          17          18
    1   1.2000000   1.2000000   1.2000000   1.2000000   1.2000000   1.2000000
           19          20
    1   1.2000000   1.2000000
 using 8 threads for integral computing
 -------------------------------------------------------
 OpenMP Integral computing Module                
 Release: version 1.0, May 2013, Q-Chem Inc. Pittsburgh 
 -------------------------------------------------------
 -------------------------------------------------------
 OpenMP BLAS3 based DFT computing Module                
 Release: version 1.0, May 2013, Q-Chem Inc. Pittsburgh 
 -------------------------------------------------------
 A unrestricted SCF calculation will be
 performed using DIIS, GDM
 SCF converges when RMS gradient is below 1.0e-07
 ---------------------------------------
  Cycle       Energy         DIIS error
 ---------------------------------------
    1    -575.6612413024      1.16e-02  
    2    -572.7570506682      1.23e-03  Done DIIS. Switching to GDM
 ---------------------------------------
  Cycle       Energy        RMS Gradient
 ---------------------------------------
    1    -572.7570506682      8.04e-02   Descent step
    2    -572.8755811617      1.41e-02   Normal BFGS step
    3    -572.8917973184      3.27e-02   Normal BFGS step
    4    -572.8953900645      6.13e-03   Normal BFGS step
    5    -572.8963763211      4.66e-03   Normal BFGS step
    6    -572.8965773747      3.69e-03   Normal BFGS step
    7    -572.8966451749      1.56e-03   Normal BFGS step
    8    -572.8966701098      2.65e-04   Normal BFGS step
    9    -572.8966722066      2.19e-04   Normal BFGS step
   10    -572.8966727590      1.86e-04   Normal BFGS step
   11    -572.8966728701      1.61e-04   Normal BFGS step
   12    -572.8966729296      1.31e-04   Normal BFGS step
   13    -572.8966729923      7.89e-05   Normal BFGS step
   14    -572.8966730319      2.44e-05   Normal BFGS step
   15    -572.8966730428      1.39e-05   Normal BFGS step
   16    -572.8966730466      7.63e-06   Normal BFGS step
   17    -572.8966730473      5.86e-06   Normal BFGS step
   18    -572.8966730476      4.39e-06   Normal BFGS step
   19    -572.8966730478      2.43e-06   Normal BFGS step
   20    -572.8966730479      7.45e-07   Normal BFGS step
   21    -572.8966730479      3.51e-07   Normal BFGS step
   22    -572.8966730479      1.35e-07   Normal BFGS step
   23    -572.8966730479      8.13e-08  Convergence criterion met
 ---------------------------------------
 SCF time:   CPU 3543.69s  wall 452.00s 
<S^2> =          0.754123474
(3)  G-ENP(liq) elect-nuc-pol free energy of system     -572.896673048 a.u.
(4)  G-CDS(liq) cavity-dispersion-solvent structure 
     free energy                                                3.0847 kcal/mol
(6)  G-S(liq) free energy of system                     -572.891757247 a.u.
 SCF   energy in the final basis set =     -572.8917572466
 Total energy in the final basis set =     -572.8917572466
 
 --------------------------------------------------------------
 
                    Orbital Energies (a.u.)
 --------------------------------------------------------------
 
 Alpha MOs
 -- Occupied --
-19.4631 -19.4160 -19.3468 -19.3415 -10.4127 -10.4083 -10.3919 -10.3651
-10.3541 -10.3506 -10.3442  -1.3380  -1.1650  -1.1598  -1.0254  -0.9628
 -0.8842  -0.8656  -0.8035  -0.7447  -0.7171  -0.6637  -0.6500  -0.6287
 -0.6169  -0.6070  -0.5969  -0.5665  -0.5599  -0.5415  -0.5350  -0.5180
 -0.4973  -0.4859  -0.4613  -0.4244  -0.4185  -0.4062  -0.3971  -0.3941
 -0.3909  -0.3301
 -- Virtual --
  0.0196   0.0256   0.0344   0.0383   0.0499   0.0552   0.0561   0.0614
  0.0810   0.0840   0.0915   0.1016   0.1115   0.1210   0.1257   0.1351
  0.1419   0.1447   0.1499   0.1544   0.1567   0.1596   0.1647   0.1664
  0.1723   0.1799   0.1860   0.1891   0.1946   0.1996   0.2041   0.2116
  0.2155   0.2193   0.2277   0.2299   0.2337   0.2472   0.2592   0.2650
  0.2726   0.2753   0.2831   0.2907   0.2929   0.2965   0.3036   0.3098
  0.3125   0.3197   0.3237   0.3250   0.3471   0.3514   0.3561   0.3630
  0.3716   0.3761   0.3835   0.3857   0.3905   0.3951   0.3960   0.4030
  0.4124   0.4209   0.4351   0.4426   0.4554   0.4589   0.4809   0.4828
  0.5072   0.5291   0.5432   0.5490   0.5654   0.5790   0.5962   0.6023
  0.6102   0.6219   0.6310   0.6352   0.6448   0.6515   0.6548   0.6715
  0.6803   0.6851   0.6918   0.7004   0.7058   0.7155   0.7241   0.7357
  0.7387   0.7528   0.7580   0.7631   0.7752   0.7845   0.7945   0.8054
  0.8135   0.8225   0.8404   0.8534   0.8681   0.8751   0.8802   0.9013
  0.9090   0.9320   0.9703   0.9738   0.9795   1.0048   1.0165   1.0278
  1.0594   1.0630   1.0664   1.0859   1.0991   1.1094   1.1296   1.1412
  1.1488   1.1548   1.1749   1.1792   1.1907   1.1995   1.2168   1.2182
  1.2252   1.2338   1.2407   1.2526   1.2617   1.2663   1.2720   1.2881
  1.3063   1.3156   1.3223   1.3310   1.3483   1.3605   1.3637   1.3767
  1.3918   1.4007   1.4122   1.4241   1.4344   1.4427   1.4599   1.4709
  1.4770   1.5045   1.5079   1.5186   1.5308   1.5348   1.5503   1.5573
  1.5775   1.5875   1.6009   1.6082   1.6217   1.6303   1.6468   1.6537
  1.6703   1.6786   1.6847   1.7163   1.7190   1.7462   1.7617   1.7848
  1.8192   1.8330   1.8445   1.8580   1.8780   1.9524   1.9656   1.9807
  2.0254   2.0359   2.0670   2.1318   2.1343   2.1466   2.1776   2.2113
  2.2280   2.2694   2.3236   2.3308   2.3543   2.3679   2.3876   2.4150
  2.4406   2.5642   2.5862   2.6315   2.6716   2.6937   2.7060   2.7645
  2.7801   2.8058   2.8160   2.8227   2.8429   2.8595   2.8613   2.8796
  2.8872   2.8963   2.9224   2.9388   2.9492   2.9619   2.9766   2.9844
  3.0024   3.0147   3.0366   3.0419   3.0487   3.0746   3.0970   3.1109
  3.1330   3.1689   3.1744   3.2007   3.2158   3.2376   3.2528   3.2791
  3.2954   3.3096   3.3135   3.3388   3.3467   3.3691   3.3828   3.4108
  3.4179   3.4320   3.4341   3.4580   3.4813   3.4896   3.4973   3.5106
  3.5282   3.5614   3.5758   3.5870   3.6023   3.6199   3.6375   3.6596
  3.6755   3.6890   3.7106   3.7238   3.7383   3.7520   3.7658   3.7733
  3.7983   3.8060   3.8205   3.8330   3.8419   3.8458   3.8618   3.8796
  3.8933   3.9034   3.9348   3.9461   3.9831   3.9881   4.0097   4.0432
  4.0656   4.0811   4.0996   4.1169   4.1375   4.1496   4.1592   4.1938
  4.2122   4.2198   4.2427   4.2467   4.2812   4.2862   4.3155   4.3172
  4.3487   4.3671   4.3708   4.3794   4.3924   4.4096   4.4149   4.4505
  4.4552   4.4872   4.5357   4.5751   4.5831   4.5928   4.6087   4.6317
  4.6546   4.6782   4.7046   4.7224   4.7630   4.7671   4.7890   4.8507
  4.9036   4.9062   4.9471   4.9506   4.9898   5.0304   5.0478   5.0893
  5.1005   5.1195   5.1271   5.1847   5.2096   5.2367   5.2558   5.2824
  5.2868   5.3061   5.3166   5.3340   5.3534   5.3712   5.4021   5.4111
  5.4348   5.4746   5.4883   5.5202   5.5439   5.5731   5.5988   5.6259
  5.6441   5.6660   5.6715   5.6973   5.7000   5.7195   5.7722   5.8325
  5.9011   5.9277   5.9712   6.0050   6.0226   6.0593   6.2279   6.4166
  6.4517   6.5734   6.6248   6.6480   6.8644   6.8880   6.9720   7.0962
  7.0975   7.1137   7.2140   7.2628   7.2782   7.2934   7.3382   7.3442
  7.3641   7.3878   7.4136   7.4342   7.6372   7.6686   7.7937   7.7972
  7.8293   8.0289   8.0918  24.3217  24.6017  24.7017  24.7641  24.8137
 25.1541  25.3281  50.4277  50.5371  50.5912  50.6182
 
 Beta MOs
 -- Occupied --
-19.4524 -19.3976 -19.3468 -19.3415 -10.4131 -10.4083 -10.3919 -10.3652
-10.3540 -10.3506 -10.3439  -1.3113  -1.1650  -1.1598  -1.0043  -0.9526
 -0.8839  -0.8565  -0.8026  -0.7410  -0.7164  -0.6548  -0.6414  -0.6188
 -0.6006  -0.5965  -0.5868  -0.5590  -0.5438  -0.5398  -0.5336  -0.5048
 -0.4970  -0.4736  -0.4537  -0.4238  -0.4151  -0.3959  -0.3934  -0.3870
 -0.3289
 -- Virtual --
 -0.0317   0.0200   0.0260   0.0345   0.0385   0.0501   0.0553   0.0563
  0.0617   0.0816   0.0842   0.0918   0.1021   0.1120   0.1216   0.1263
  0.1367   0.1430   0.1452   0.1507   0.1549   0.1568   0.1600   0.1650
  0.1666   0.1725   0.1808   0.1864   0.1893   0.1962   0.2001   0.2043
  0.2118   0.2160   0.2222   0.2289   0.2300   0.2363   0.2487   0.2600
  0.2699   0.2738   0.2758   0.2840   0.2930   0.2933   0.2985   0.3048
  0.3113   0.3135   0.3205   0.3241   0.3255   0.3476   0.3549   0.3575
  0.3634   0.3729   0.3767   0.3839   0.3868   0.3916   0.3956   0.3975
  0.4038   0.4129   0.4213   0.4362   0.4442   0.4568   0.4594   0.4822
  0.4829   0.5076   0.5297   0.5434   0.5493   0.5654   0.5792   0.5964
  0.6025   0.6103   0.6224   0.6310   0.6355   0.6450   0.6517   0.6553
  0.6720   0.6811   0.6853   0.6919   0.7012   0.7064   0.7159   0.7241
  0.7358   0.7392   0.7529   0.7584   0.7637   0.7758   0.7847   0.7948
  0.8057   0.8136   0.8229   0.8413   0.8537   0.8683   0.8754   0.8807
  0.9018   0.9093   0.9331   0.9710   0.9747   0.9797   1.0058   1.0169
  1.0300   1.0623   1.0638   1.0668   1.0882   1.1013   1.1108   1.1311
  1.1424   1.1522   1.1561   1.1797   1.1868   1.1969   1.2044   1.2193
  1.2238   1.2281   1.2408   1.2503   1.2573   1.2656   1.2688   1.2772
  1.2893   1.3073   1.3168   1.3233   1.3315   1.3496   1.3610   1.3647
  1.3785   1.3927   1.4018   1.4168   1.4252   1.4359   1.4445   1.4619
  1.4732   1.4789   1.5076   1.5119   1.5192   1.5335   1.5362   1.5535
  1.5608   1.5794   1.5902   1.6016   1.6120   1.6241   1.6304   1.6485
  1.6554   1.6788   1.6829   1.7016   1.7221   1.7289   1.7471   1.7640
  1.7874   1.8204   1.8372   1.8524   1.8609   1.8835   1.9595   1.9669
  1.9837   2.0269   2.0391   2.0676   2.1356   2.1378   2.1486   2.1830
  2.2149   2.2414   2.2751   2.3309   2.3405   2.3563   2.3710   2.3882
  2.4173   2.4425   2.5646   2.5872   2.6334   2.6762   2.6939   2.7090
  2.7652   2.7805   2.8066   2.8163   2.8230   2.8433   2.8598   2.8616
  2.8801   2.8876   2.8965   2.9225   2.9391   2.9496   2.9620   2.9768
  2.9845   3.0030   3.0153   3.0367   3.0421   3.0488   3.0746   3.0976
  3.1114   3.1333   3.1691   3.1746   3.2011   3.2163   3.2380   3.2533
  3.2794   3.2955   3.3098   3.3137   3.3390   3.3470   3.3694   3.3830
  3.4112   3.4180   3.4325   3.4345   3.4581   3.4814   3.4898   3.4974
  3.5110   3.5285   3.5618   3.5758   3.5875   3.6026   3.6201   3.6376
  3.6599   3.6757   3.6894   3.7107   3.7239   3.7388   3.7523   3.7660
  3.7736   3.7986   3.8060   3.8206   3.8331   3.8422   3.8461   3.8619
  3.8800   3.8938   3.9035   3.9351   3.9463   3.9834   3.9884   4.0100
  4.0436   4.0657   4.0811   4.1000   4.1170   4.1380   4.1498   4.1597
  4.1940   4.2123   4.2199   4.2431   4.2474   4.2816   4.2868   4.3158
  4.3176   4.3493   4.3678   4.3711   4.3797   4.3928   4.4107   4.4152
  4.4522   4.4558   4.4880   4.5366   4.5775   4.5890   4.5940   4.6304
  4.6339   4.6562   4.6795   4.7061   4.7300   4.7659   4.7750   4.7947
  4.8517   4.9101   4.9201   4.9490   4.9595   4.9930   5.0355   5.0628
  5.1223   5.1438   5.1501   5.1987   5.2122   5.2208   5.2762   5.2825
  5.2942   5.2993   5.3064   5.3203   5.3358   5.3596   5.3750   5.4042
  5.4239   5.4445   5.4808   5.4946   5.5326   5.5498   5.5749   5.6001
  5.6327   5.6450   5.6677   5.6721   5.7004   5.7055   5.7234   5.7847
  5.8428   5.9056   5.9295   5.9714   6.0053   6.0228   6.0603   6.2286
  6.4322   6.4986   6.5832   6.6268   6.6482   6.9478   6.9673   7.0331
  7.0967   7.1114   7.1424   7.2401   7.2778   7.2818   7.3234   7.3401
  7.3450   7.3643   7.3907   7.4403   7.4805   7.6373   7.6691   7.7942
  7.8115   7.8296   8.0408   8.1124  24.3218  24.6017  24.7015  24.7640
 24.8137  25.1542  25.3281  50.4405  50.5468  50.5913  50.6182
 --------------------------------------------------------------
 
          Ground-State Mulliken Net Atomic Charges

     Atom                 Charge (a.u.)    Spin (a.u.)
  --------------------------------------------------------
      1 C                     0.361735       0.001823
      2 C                    -0.396423       0.004446
      3 O                    -0.436209       0.000112
      4 C                    -0.178360       0.003382
      5 C                    -0.467115      -0.001679
      6 O                     0.069706       0.322659
      7 O                    -0.211415       0.662983
      8 C                    -0.408023       0.006204
      9 O                    -0.394662      -0.000545
     10 C                    -0.147367       0.004657
     11 C                    -0.349265      -0.011620
     12 H                     0.216422      -0.000391
     13 H                     0.225904      -0.000146
     14 H                     0.337870      -0.000092
     15 H                     0.299975       0.000036
     16 H                     0.237044      -0.000754
     17 H                     0.337741       0.000007
     18 H                     0.317763       0.000732
     19 H                     0.294566      -0.000285
     20 H                     0.290114       0.008469
  --------------------------------------------------------
  Sum of atomic charges =     0.000000
  Sum of spin   charges =     1.000000

 -----------------------------------------------------------------
                    Cartesian Multipole Moments
 -----------------------------------------------------------------
    Charge (ESU x 10^10)
                 0.0000
    Dipole Moment (Debye)
         X      -2.1304      Y      -5.8079      Z      -2.2208
       Tot       6.5728
    Quadrupole Moments (Debye-Ang)
        XX     -65.0606     XY       0.4100     YY     -63.3979
        XZ      -3.2987     YZ      -8.6674     ZZ     -69.9561
    Octopole Moments (Debye-Ang^2)
       XXX     -20.2025    XXY     -41.4370    XYY      -4.9847
       YYY     -45.4101    XXZ      -0.0446    XYZ       5.3892
       YYZ     -36.6544    XZZ      14.3543    YZZ     -18.7542
       ZZZ     -92.0153
    Hexadecapole Moments (Debye-Ang^3)
      XXXX   -1145.1523   XXXY     -16.6155   XXYY    -252.9208
      XYYY      -7.5397   YYYY    -680.0073   XXXZ     213.2035
      XXYZ     -14.1567   XYYZ      62.3828   YYYZ    -139.9641
      XXZZ    -276.3986   XYZZ       6.1222   YYZZ    -236.5175
      XZZZ     169.1519   YZZZ    -136.6089   ZZZZ    -577.3037
 -----------------------------------------------------------------
 Calculating analytic gradient of the SCF energy
 Gradient of CDS energy
            1           2           3           4           5           6
    1  -0.0000433   0.0009741  -0.0003056   0.0000799  -0.0001317   0.0000209
    2   0.0000636   0.0001039  -0.0001459   0.0001427   0.0000101   0.0000676
    3  -0.0000262  -0.0004732   0.0002874  -0.0000673   0.0001600  -0.0000067
            7           8           9          10          11          12
    1  -0.0000357  -0.0002546   0.0002248  -0.0001071   0.0001967  -0.0000246
    2   0.0000055   0.0001933   0.0001290  -0.0002429  -0.0002715   0.0000151
    3   0.0000561  -0.0001133   0.0001428   0.0002120   0.0000507   0.0002542
           13          14          15          16          17          18
    1  -0.0002456   0.0001134   0.0001024  -0.0000697  -0.0003938  -0.0000765
    2  -0.0001581   0.0002821   0.0001118   0.0000578  -0.0002088  -0.0001779
    3  -0.0000019  -0.0004302   0.0000108   0.0002043  -0.0002604   0.0000724
           19          20
    1   0.0001203  -0.0001442
    2  -0.0001245   0.0001470
    3  -0.0000059  -0.0000657
 Gradient of SCF Energy
            1           2           3           4           5           6
    1  -0.0010274  -0.0053854   0.0182324  -0.0083013   0.0032624  -0.0025021
    2  -0.0067725   0.0176023   0.0011297   0.0038111  -0.0021024  -0.0057295
    3   0.0001739  -0.0030784   0.0180849   0.0004101   0.0113733   0.0028300
            7           8           9          10          11          12
    1   0.0031438   0.0058720   0.0107928  -0.0063632   0.0104664   0.0047834
    2   0.0057721   0.0008350   0.0238230   0.0103854   0.0056782  -0.0048906
    3  -0.0012370  -0.0136498  -0.0071477   0.0032812  -0.0072346   0.0050601
           13          14          15          16          17          18
    1  -0.0004584  -0.0144782   0.0012096  -0.0074380  -0.0095408  -0.0071703
    2  -0.0094524  -0.0000219   0.0035081  -0.0009273  -0.0215382  -0.0136298
    3  -0.0072872  -0.0146729  -0.0037521   0.0097286   0.0045002   0.0050026
           19          20
    1   0.0089660  -0.0040638
    2  -0.0117298   0.0042495
    3  -0.0003251  -0.0020601
 Max gradient component =       2.382E-02
 RMS gradient           =       8.755E-03
 Computing fast CPCM-SWIG gradient
 Updating gradient with PCM contributions...
 -- total gradient after adding PCM contribution --
---------------------------------------------------
  Atom         X              Y              Z     
---------------------------------------------------
   1       0.002003      -0.004291       0.000304
   2      -0.000470       0.003722      -0.003068
   3       0.006134       0.000927       0.006707
   4      -0.002612       0.003148      -0.000066
   5       0.000720       0.000880       0.000407
   6      -0.003047      -0.007544       0.001883
   7       0.003052       0.006665      -0.000793
   8      -0.003289      -0.002129      -0.002227
   9       0.003917       0.008466      -0.002498
  10      -0.003368       0.000868       0.002359
  11       0.003218       0.000210      -0.001774
  12       0.002586      -0.000499       0.001874
  13       0.000098      -0.003050      -0.001970
  14      -0.005418      -0.000462      -0.005024
  15       0.001772       0.002843      -0.000941
  16      -0.001620       0.000326       0.003256
  17      -0.002416      -0.006498       0.001778
  18      -0.001267      -0.002851       0.001027
  19       0.002077      -0.002564      -0.000076
  20      -0.002071       0.001832      -0.001159
---------------------------------------------------
 Number of fixed atoms: 0
 Gradient time:  CPU 466.56 s  wall 67.24 s
 Geometry Optimization Parameters
   NAtoms,    NIC,     NZ,  NCons,   NDum,   NFix, NCnnct, MaxDiis
       20     141       0       0       0       0       0       0


** GEOMETRY OPTIMIZATION IN DELOCALIZED INTERNAL COORDINATES **
   Searching for a Minimum

   Optimization Cycle:   1

                       Coordinates (Angstroms)
     ATOM                X               Y               Z
      1  C         0.8800249964   -0.3206087094   -0.1594880387
      2  C         2.2287313727   -0.4120324980   -0.8262797368
      3  O         2.6892321660    0.8118917248   -1.3733383961
      4  C         0.1934180945    0.8243953059   -0.0647124078
      5  C        -1.1265145747    0.8582521073    0.6380405750
      6  O        -0.9215631731    1.2565939757    2.0503937659
      7  O        -0.4119796144    2.4593801596    2.1309115927
      8  C        -1.8605610822   -0.4773177724    0.7199016944
      9  O        -2.6473334386   -0.5516191633   -0.4745808179
     10  C        -0.9283983808   -1.6570773592    0.8175962654
     11  C         0.3346802003   -1.5752243470    0.3907171523
     12  H         2.9722736473   -0.7219513789   -0.0828607848
     13  H         2.1977891668   -1.2022775812   -1.5902413997
     14  H         2.0991987859    1.0317583169   -2.1126461481
     15  H         0.5925155951    1.7544160839   -0.4559551107
     16  H        -2.5150544510   -0.4422019314    1.6009038361
     17  H        -3.1014435950   -1.4102685438   -0.4593029227
     18  H        -1.3386022225   -2.5911164898    1.1933900810
     19  H         0.9902541787   -2.4433181865    0.4185454942
     20  H        -1.8012313716    1.6081838869    0.2180992066
   Point Group: c1    Number of degrees of freedom:    54


   Energy is   -572.891757247


 Attempting to generate delocalized internal coordinates
 Initial Hessian constructed with Jon Baker's OPTIMIZE code

 54 Hessian modes will be used to form the next step
  Hessian Eigenvalues:
     0.004839    0.008031    0.008212    0.011380    0.013330    0.013729
     0.015497    0.018155    0.018241    0.021472    0.024213    0.043488
     0.048189    0.058154    0.058851    0.067538    0.074538    0.076640
     0.082680    0.119487    0.135995    0.142668    0.159609    0.159850
     0.159966    0.160000    0.160000    0.171060    0.186325    0.212424
     0.220847    0.233118    0.249997    0.250000    0.288142    0.308329
     0.316225    0.319509    0.337283    0.338964    0.341099    0.343761
     0.343994    0.345026    0.350237    0.351429    0.353935    0.406687
     0.428381    0.530804    0.531506    0.547536    0.566194    0.648178

 Minimum search - taking simple RFO step
 Searching for Lamda that Minimizes Along All modes
 Value Taken    Lamda =  -0.00122303
 Step Taken.  Stepsize is  0.114922

                             Maximum     Tolerance    Cnvgd?
         Gradient           0.010103      0.000300      NO
         Displacement       0.044165      0.001200      NO
         Energy change     *********      0.000001      NO


 New Cartesian Coordinates Obtained by Inverse Iteration

 Displacement from previous Coordinates is:  0.189813
 ----------------------------------------------------------------
             Standard Nuclear Orientation (Angstroms)
    I     Atom           X                Y                Z
 ----------------------------------------------------------------
    1      C       0.8780494082    -0.3163431362    -0.1607003432
    2      C       2.2185515482    -0.4219643984    -0.8297473311
    3      O       2.7062834071     0.7960010453    -1.3664721084
    4      C       0.1952034764     0.8237480220    -0.0651933448
    5      C      -1.1208764678     0.8563759464     0.6362841363
    6      O      -0.9209059721     1.2615464697     2.0460876554
    7      O      -0.4543217606     2.4744450239     2.1386415282
    8      C      -1.8491613702    -0.4777990233     0.7211266605
    9      O      -2.6527263191    -0.5610748341    -0.4620374968
   10      C      -0.9197968223    -1.6533309546     0.8131459979
   11      C       0.3375663682    -1.5666852688     0.3921449379
   12      H       2.9513070286    -0.7588420743    -0.0945850838
   13      H       2.1678671724    -1.1949942191    -1.6022183498
   14      H       2.1349189189     1.0592275995    -2.0971117766
   15      H       0.5842899279     1.7485712457    -0.4646223877
   16      H      -2.4965175420    -0.4457095917     1.6005723809
   17      H      -3.1078410008    -1.4115351350    -0.4552587389
   18      H      -1.3246329343    -2.5830478741     1.1912576701
   19      H       0.9921410718    -2.4292268655     0.4225746494
   20      H      -1.7939618384     1.6004956227     0.2152052448
 ----------------------------------------------------------------
 Nuclear Repulsion Energy =         626.51047045 hartrees
 There are       42 alpha and       41 beta electrons
 Discretize the solute cavity surface with Lebedev spheres
	Using 110 Lebedev grid points for each H atom
	Using 194 Lebedev grid points for other atoms
	Atomic van der Waals radii will be scaled by 1.20
 Remove points where switching function is < 1.0e-08
 Keep 1515 surface tesserae and discard 1609 interior tesserae
 Molecular Surface Area = 173.970 Angst**2
 Applying Cartesian multipole field
    Component          Value
    ---------          -----
     (2,0,0)        1.00000E-11
     (0,2,0)        2.00000E-11
     (0,0,2)       -3.00000E-11
 Nucleus-field energy     =     0.0000000058 hartrees
 Requested basis set is 6-311++G(2df,2p)
 There are 142 shells and 464 basis functions
 A cutoff of  1.0D-12 yielded   8830 shell pairs
 There are     94074 function pairs (    117006 Cartesian)
 Smallest overlap matrix eigenvalue = 1.87E-06
 Guess MOs from SCF MO coefficient file

 -----------------------------------------------------------------------
  General SCF calculation program by
  Eric Jon Sundstrom, Paul Horn, Yuezhi Mao, Dmitri Zuev, Alec White,
  David Stuck, Shaama M.S., Shane Yost, Joonho Lee, David Small,
  Daniel Levine, Susi Lehtola, Hugh Burton, Evgeny Epifanovsky,
  Bang C. Huynh
 -----------------------------------------------------------------------
 Exchange:     0.1500 Hartree-Fock + 1.0000 wB97M-V + LR-HF
 Correlation:  1.0000 wB97M-V
 Using SG-2 standard quadrature grid
 Nonlocal Correlation:  VV10 with C = 0.0100 and b = 6.00 and scale = 1.00000
 Grid used for NLC:  SG-1 standard quadrature
 
 Citation of the SMD model:
 Marenich, A.V.; Cramer, C.J.; Truhlar, D.G.
 J. Phys. Chem. B 2009, 113, 6378-6396.
 iSolventCode=           1
 Solvent: water                                                           
 
 vradii
            1           2           3           4           5           6
    1   1.8500000   1.8500000   1.5200000   1.8500000   1.8500000   1.5200000
            7           8           9          10          11          12
    1   1.5200000   1.8500000   1.5200000   1.8500000   1.8500000   1.2000000
           13          14          15          16          17          18
    1   1.2000000   1.2000000   1.2000000   1.2000000   1.2000000   1.2000000
           19          20
    1   1.2000000   1.2000000
 -------------------------------------------------------
 OpenMP BLAS3 based DFT computing Module                
 Release: version 1.0, May 2013, Q-Chem Inc. Pittsburgh 
 -------------------------------------------------------
 A unrestricted SCF calculation will be
 performed using Roothaan-Hall, DIIS, GDM
 SCF converges when RMS gradient is below 1.0e-07
 ---------------------------------------
  Cycle       Energy         DIIS error
 ---------------------------------------
    1    -572.8589126488      2.08e-04  Roothaan Step
 ---------------------------------------
  Cycle       Energy         DIIS error
 ---------------------------------------
    1    -572.8905794788      2.00e-04  
    2    -572.8949840449      1.72e-04  Done DIIS. Switching to GDM
 ---------------------------------------
  Cycle       Energy        RMS Gradient
 ---------------------------------------
    1    -572.8949840449      8.42e-03   Normal BFGS step
    2    -572.8944873260      1.41e-02  Line search: overstep
    3    -572.8970604097      3.31e-03   Normal BFGS step
    4    -572.8972220972      1.56e-03   Normal BFGS step
    5    -572.8972688192      1.06e-03   Normal BFGS step
    6    -572.8972796727      5.10e-04   Normal BFGS step
    7    -572.8972819728      4.35e-04   Normal BFGS step
    8    -572.8972830472      3.61e-04   Normal BFGS step
    9    -572.8972835191      2.61e-04   Normal BFGS step
   10    -572.8972836991      2.02e-04   Normal BFGS step
   11    -572.8972838860      1.13e-04   Normal BFGS step
   12    -572.8972839855      4.15e-05   Normal BFGS step
   13    -572.8972840132      2.44e-05   Normal BFGS step
   14    -572.8972840229      1.33e-05   Normal BFGS step
   15    -572.8972840246      4.55e-06   Normal BFGS step
   16    -572.8972840250      1.55e-06   Normal BFGS step
   17    -572.8972840251      8.06e-07   Normal BFGS step
   18    -572.8972840251      3.99e-07   Normal BFGS step
   19    -572.8972840251      1.91e-07   Normal BFGS step
   20    -572.8972840251      1.36e-07   Normal BFGS step
   21    -572.8972840251      5.57e-08  Convergence criterion met
 ---------------------------------------
 SCF time:   CPU 3474.31s  wall 443.00s 
<S^2> =          0.754095256
(3)  G-ENP(liq) elect-nuc-pol free energy of system     -572.897284025 a.u.
(4)  G-CDS(liq) cavity-dispersion-solvent structure 
     free energy                                                3.0672 kcal/mol
(6)  G-S(liq) free energy of system                     -572.892396065 a.u.
 SCF   energy in the final basis set =     -572.8923960647
 Total energy in the final basis set =     -572.8923960647
 
 --------------------------------------------------------------
 
                    Orbital Energies (a.u.)
 --------------------------------------------------------------
 
 Alpha MOs
 -- Occupied --
-19.4632 -19.4154 -19.3455 -19.3404 -10.4116 -10.4070 -10.3906 -10.3634
-10.3516 -10.3484 -10.3425  -1.3414  -1.1652  -1.1600  -1.0265  -0.9649
 -0.8865  -0.8669  -0.8058  -0.7462  -0.7186  -0.6653  -0.6517  -0.6306
 -0.6184  -0.6078  -0.5986  -0.5676  -0.5615  -0.5426  -0.5360  -0.5186
 -0.4965  -0.4869  -0.4613  -0.4247  -0.4190  -0.4054  -0.3968  -0.3940
 -0.3901  -0.3308
 -- Virtual --
  0.0202   0.0261   0.0344   0.0384   0.0502   0.0553   0.0562   0.0618
  0.0808   0.0843   0.0916   0.1019   0.1117   0.1214   0.1266   0.1354
  0.1421   0.1451   0.1501   0.1545   0.1573   0.1600   0.1651   0.1666
  0.1726   0.1803   0.1860   0.1895   0.1951   0.1996   0.2048   0.2118
  0.2155   0.2198   0.2279   0.2308   0.2352   0.2474   0.2594   0.2676
  0.2732   0.2757   0.2832   0.2914   0.2931   0.2973   0.3042   0.3100
  0.3139   0.3209   0.3251   0.3256   0.3484   0.3525   0.3563   0.3642
  0.3728   0.3772   0.3851   0.3865   0.3913   0.3956   0.3971   0.4055
  0.4137   0.4213   0.4355   0.4423   0.4561   0.4601   0.4800   0.4842
  0.5084   0.5314   0.5443   0.5504   0.5662   0.5810   0.5983   0.6025
  0.6122   0.6235   0.6315   0.6364   0.6458   0.6531   0.6544   0.6728
  0.6827   0.6864   0.6944   0.7016   0.7080   0.7165   0.7268   0.7371
  0.7407   0.7540   0.7581   0.7648   0.7760   0.7862   0.7965   0.8051
  0.8153   0.8237   0.8444   0.8555   0.8700   0.8747   0.8817   0.9035
  0.9123   0.9346   0.9705   0.9754   0.9803   1.0032   1.0191   1.0274
  1.0582   1.0646   1.0700   1.0870   1.1004   1.1108   1.1303   1.1432
  1.1512   1.1544   1.1751   1.1806   1.1917   1.2000   1.2159   1.2192
  1.2278   1.2351   1.2436   1.2539   1.2637   1.2674   1.2734   1.2909
  1.3049   1.3181   1.3257   1.3337   1.3479   1.3627   1.3669   1.3801
  1.3942   1.4037   1.4174   1.4254   1.4382   1.4463   1.4635   1.4714
  1.4814   1.5063   1.5109   1.5217   1.5334   1.5374   1.5521   1.5619
  1.5826   1.5884   1.6036   1.6119   1.6254   1.6337   1.6511   1.6581
  1.6728   1.6822   1.6852   1.7122   1.7243   1.7495   1.7673   1.7909
  1.8186   1.8368   1.8448   1.8615   1.8778   1.9525   1.9740   1.9860
  2.0281   2.0389   2.0734   2.1328   2.1361   2.1481   2.1780   2.2135
  2.2327   2.2695   2.3263   2.3335   2.3535   2.3703   2.3887   2.4152
  2.4426   2.5580   2.5848   2.6299   2.6714   2.6962   2.7072   2.7615
  2.7804   2.8072   2.8204   2.8253   2.8455   2.8629   2.8644   2.8809
  2.8895   2.8966   2.9239   2.9385   2.9501   2.9619   2.9796   2.9889
  3.0038   3.0116   3.0374   3.0468   3.0546   3.0770   3.1024   3.1165
  3.1398   3.1690   3.1773   3.2005   3.2208   3.2421   3.2533   3.2815
  3.2987   3.3133   3.3168   3.3427   3.3508   3.3736   3.3835   3.4118
  3.4206   3.4340   3.4372   3.4576   3.4857   3.4921   3.5015   3.5153
  3.5338   3.5660   3.5778   3.5903   3.6070   3.6201   3.6421   3.6648
  3.6801   3.6953   3.7134   3.7273   3.7416   3.7546   3.7700   3.7791
  3.8004   3.8127   3.8271   3.8376   3.8449   3.8493   3.8681   3.8845
  3.8987   3.9107   3.9430   3.9533   3.9920   3.9931   4.0177   4.0528
  4.0720   4.0858   4.1050   4.1269   4.1448   4.1542   4.1667   4.2032
  4.2216   4.2287   4.2499   4.2517   4.2942   4.2957   4.3256   4.3305
  4.3614   4.3778   4.3855   4.3878   4.4027   4.4207   4.4272   4.4607
  4.4647   4.4950   4.5468   4.5867   4.5919   4.6052   4.6170   4.6428
  4.6694   4.6926   4.7195   4.7303   4.7720   4.7849   4.8037   4.8634
  4.9142   4.9156   4.9548   4.9713   5.0068   5.0400   5.0571   5.0890
  5.1000   5.1203   5.1339   5.1835   5.2207   5.2405   5.2610   5.2840
  5.2895   5.3071   5.3177   5.3369   5.3549   5.3802   5.4102   5.4167
  5.4477   5.4821   5.4940   5.5254   5.5488   5.5822   5.6072   5.6328
  5.6642   5.6814   5.6850   5.7028   5.7112   5.7357   5.7809   5.8447
  5.9202   5.9468   5.9863   6.0216   6.0469   6.0842   6.2573   6.4245
  6.4761   6.5929   6.6317   6.6537   6.8609   6.8896   6.9768   7.0968
  7.0983   7.1177   7.2209   7.2673   7.3135   7.3250   7.3283   7.3386
  7.3663   7.3897   7.4148   7.4369   7.6535   7.6815   7.7912   7.8002
  7.8300   8.0355   8.1058  24.3291  24.6201  24.7186  24.7840  24.8351
 25.1890  25.3655  50.4334  50.5399  50.5958  50.6216
 
 Beta MOs
 -- Occupied --
-19.4523 -19.3970 -19.3455 -19.3404 -10.4120 -10.4070 -10.3906 -10.3635
-10.3516 -10.3484 -10.3422  -1.3148  -1.1652  -1.1599  -1.0063  -0.9543
 -0.8862  -0.8576  -0.8050  -0.7424  -0.7179  -0.6563  -0.6436  -0.6200
 -0.6012  -0.5981  -0.5888  -0.5606  -0.5445  -0.5405  -0.5346  -0.5062
 -0.4961  -0.4741  -0.4545  -0.4241  -0.4156  -0.3959  -0.3936  -0.3862
 -0.3295
 -- Virtual --
 -0.0304   0.0207   0.0266   0.0345   0.0387   0.0504   0.0555   0.0564
  0.0621   0.0814   0.0844   0.0919   0.1024   0.1121   0.1221   0.1271
  0.1369   0.1431   0.1456   0.1508   0.1550   0.1574   0.1604   0.1654
  0.1668   0.1728   0.1812   0.1863   0.1897   0.1967   0.2002   0.2051
  0.2120   0.2159   0.2223   0.2292   0.2310   0.2376   0.2488   0.2603
  0.2718   0.2742   0.2767   0.2841   0.2929   0.2949   0.2995   0.3053
  0.3113   0.3148   0.3217   0.3257   0.3261   0.3488   0.3563   0.3578
  0.3645   0.3740   0.3779   0.3854   0.3877   0.3922   0.3965   0.3986
  0.4062   0.4142   0.4217   0.4366   0.4441   0.4572   0.4606   0.4812
  0.4844   0.5087   0.5321   0.5445   0.5507   0.5663   0.5813   0.5987
  0.6027   0.6124   0.6240   0.6316   0.6367   0.6460   0.6533   0.6550
  0.6734   0.6835   0.6866   0.6945   0.7024   0.7086   0.7170   0.7268
  0.7373   0.7412   0.7540   0.7585   0.7654   0.7767   0.7864   0.7967
  0.8054   0.8154   0.8241   0.8452   0.8557   0.8702   0.8750   0.8823
  0.9041   0.9126   0.9356   0.9717   0.9760   0.9804   1.0044   1.0195
  1.0294   1.0610   1.0659   1.0703   1.0891   1.1026   1.1125   1.1319
  1.1443   1.1547   1.1558   1.1805   1.1875   1.1986   1.2051   1.2185
  1.2260   1.2305   1.2422   1.2520   1.2584   1.2680   1.2693   1.2782
  1.2920   1.3060   1.3192   1.3267   1.3343   1.3494   1.3631   1.3678
  1.3818   1.3954   1.4047   1.4223   1.4267   1.4396   1.4482   1.4656
  1.4737   1.4834   1.5089   1.5147   1.5222   1.5358   1.5393   1.5547
  1.5657   1.5841   1.5922   1.6044   1.6161   1.6274   1.6339   1.6529
  1.6597   1.6822   1.6860   1.7011   1.7229   1.7300   1.7506   1.7692
  1.7935   1.8199   1.8402   1.8526   1.8637   1.8841   1.9592   1.9757
  1.9888   2.0293   2.0426   2.0740   2.1354   2.1413   2.1495   2.1830
  2.2171   2.2461   2.2744   2.3341   2.3423   2.3564   2.3734   2.3896
  2.4175   2.4448   2.5584   2.5857   2.6319   2.6760   2.6971   2.7094
  2.7623   2.7808   2.8082   2.8207   2.8255   2.8458   2.8631   2.8646
  2.8815   2.8897   2.8968   2.9239   2.9387   2.9505   2.9620   2.9798
  2.9889   3.0043   3.0122   3.0375   3.0470   3.0547   3.0770   3.1030
  3.1169   3.1401   3.1691   3.1775   3.2009   3.2213   3.2425   3.2538
  3.2819   3.2989   3.3134   3.3170   3.3429   3.3511   3.3738   3.3838
  3.4122   3.4207   3.4345   3.4376   3.4577   3.4858   3.4924   3.5016
  3.5157   3.5340   3.5664   3.5778   3.5907   3.6074   3.6204   3.6423
  3.6651   3.6803   3.6957   3.7135   3.7273   3.7420   3.7551   3.7702
  3.7794   3.8006   3.8127   3.8272   3.8378   3.8451   3.8495   3.8683
  3.8848   3.8993   3.9108   3.9434   3.9535   3.9923   3.9933   4.0181
  4.0531   4.0721   4.0858   4.1054   4.1271   4.1452   4.1545   4.1672
  4.2035   4.2217   4.2288   4.2502   4.2527   4.2946   4.2963   4.3261
  4.3306   4.3623   4.3785   4.3857   4.3880   4.4031   4.4218   4.4275
  4.4621   4.4655   4.4959   4.5480   4.5895   4.6012   4.6060   4.6370
  4.6438   4.6706   4.6940   4.7211   4.7408   4.7790   4.7882   4.8072
  4.8647   4.9215   4.9303   4.9614   4.9738   5.0105   5.0452   5.0729
  5.1298   5.1434   5.1494   5.1979   5.2181   5.2236   5.2797   5.2851
  5.2978   5.3020   5.3076   5.3215   5.3387   5.3609   5.3844   5.4132
  5.4315   5.4566   5.4875   5.4992   5.5384   5.5549   5.5827   5.6088
  5.6399   5.6652   5.6823   5.6859   5.7038   5.7182   5.7407   5.7931
  5.8552   5.9252   5.9477   5.9865   6.0218   6.0471   6.0853   6.2582
  6.4402   6.5235   6.6008   6.6359   6.6539   6.9442   6.9686   7.0372
  7.0978   7.1141   7.1444   7.2475   7.3069   7.3136   7.3277   7.3367
  7.3396   7.3664   7.3921   7.4412   7.4832   7.6535   7.6820   7.7915
  7.8142   7.8304   8.0478   8.1262  24.3292  24.6202  24.7184  24.7839
 24.8351  25.1890  25.3655  50.4462  50.5496  50.5959  50.6217
 --------------------------------------------------------------
 
          Ground-State Mulliken Net Atomic Charges

     Atom                 Charge (a.u.)    Spin (a.u.)
  --------------------------------------------------------
      1 C                     0.372004       0.003271
      2 C                    -0.399829       0.005169
      3 O                    -0.440784       0.000112
      4 C                    -0.233289       0.003099
      5 C                    -0.468057      -0.002464
      6 O                     0.075320       0.326024
      7 O                    -0.214961       0.659704
      8 C                    -0.406868       0.005462
      9 O                    -0.397468      -0.000487
     10 C                    -0.140427       0.004830
     11 C                    -0.308925      -0.011968
     12 H                     0.219642      -0.000358
     13 H                     0.230523      -0.000156
     14 H                     0.337209      -0.000086
     15 H                     0.298323       0.000033
     16 H                     0.237819      -0.000762
     17 H                     0.337226       0.000003
     18 H                     0.317579       0.000676
     19 H                     0.294961      -0.000259
     20 H                     0.290002       0.008157
  --------------------------------------------------------
  Sum of atomic charges =     0.000000
  Sum of spin   charges =     1.000000

 -----------------------------------------------------------------
                    Cartesian Multipole Moments
 -----------------------------------------------------------------
    Charge (ESU x 10^10)
                 0.0000
    Dipole Moment (Debye)
         X      -2.0781      Y      -5.7693      Z      -2.2538
       Tot       6.5332
    Quadrupole Moments (Debye-Ang)
        XX     -65.3892     XY       0.7002     YY     -63.3484
        XZ      -3.2098     YZ      -8.9633     ZZ     -69.8481
    Octopole Moments (Debye-Ang^2)
       XXX     -20.8188    XXY     -41.1463    XYY      -3.9751
       YYY     -45.7185    XXZ      -0.5310    XYZ       5.0936
       YYZ     -37.4615    XZZ      14.7838    YZZ     -18.6885
       ZZZ     -92.0451
    Hexadecapole Moments (Debye-Ang^3)
      XXXX   -1150.6399   XXXY     -13.6677   XXYY    -252.1034
      XYYY      -2.9929   YYYY    -682.7310   XXXZ     215.2991
      XXYZ     -16.3055   XYYZ      62.8819   YYYZ    -143.5595
      XXZZ    -275.5148   XYZZ       8.6825   YYZZ    -236.2378
      XZZZ     171.0051   YZZZ    -139.3275   ZZZZ    -576.9320
 -----------------------------------------------------------------
 Calculating analytic gradient of the SCF energy
 Gradient of CDS energy
            1           2           3           4           5           6
    1  -0.0000484   0.0009638  -0.0003102   0.0000884  -0.0001353   0.0000180
    2   0.0000518   0.0000997  -0.0001660   0.0001455   0.0000113   0.0000674
    3  -0.0000254  -0.0004202   0.0002571  -0.0000691   0.0001583  -0.0000064
            7           8           9          10          11          12
    1  -0.0000350  -0.0002432   0.0002257  -0.0001054   0.0001940  -0.0000365
    2   0.0000045   0.0001907   0.0001306  -0.0002435  -0.0002664   0.0000036
    3   0.0000562  -0.0001090   0.0001469   0.0002050   0.0000544   0.0002482
           13          14          15          16          17          18
    1  -0.0002356   0.0001263   0.0000974  -0.0000726  -0.0003971  -0.0000738
    2  -0.0001306   0.0002948   0.0001066   0.0000565  -0.0002096  -0.0001731
    3  -0.0000245  -0.0004236   0.0000109   0.0001963  -0.0002579   0.0000712
           19          20
    1   0.0001212  -0.0001415
    2  -0.0001168   0.0001429
    3  -0.0000045  -0.0000639
 Gradient of SCF Energy
            1           2           3           4           5           6
    1  -0.0035846  -0.0045359   0.0123399  -0.0060551   0.0031104  -0.0003930
    2  -0.0044112   0.0141518  -0.0001124   0.0016535  -0.0028183  -0.0003883
    3   0.0004215   0.0003105   0.0114761   0.0006515   0.0116704   0.0007176
            7           8           9          10          11          12
    1   0.0010844   0.0091160   0.0071956  -0.0028319   0.0071045   0.0020981
    2   0.0015956   0.0031458   0.0153924   0.0099055   0.0054569  -0.0048437
    3  -0.0000675  -0.0120541  -0.0043555   0.0009156  -0.0062867   0.0034188
           13          14          15          16          17          18
    1  -0.0006219  -0.0093893  -0.0002670  -0.0057900  -0.0076152  -0.0056275
    2  -0.0062839   0.0014925   0.0007220  -0.0014062  -0.0155539  -0.0107904
    3  -0.0052167  -0.0103908  -0.0028675   0.0063098   0.0023207   0.0041086
           19          20
    1   0.0067658  -0.0021033
    2  -0.0091187   0.0022110
    3  -0.0002427  -0.0008396
 Max gradient component =       1.555E-02
 RMS gradient           =       6.464E-03
 Computing fast CPCM-SWIG gradient
 Updating gradient with PCM contributions...
 -- total gradient after adding PCM contribution --
---------------------------------------------------
  Atom         X              Y              Z     
---------------------------------------------------
   1      -0.000582      -0.001085       0.000463
   2       0.000364       0.000113       0.000210
   3       0.000198       0.000384      -0.000029
   4       0.000039       0.000145      -0.000278
   5       0.000656       0.000143       0.000354
   6      -0.000874      -0.002066      -0.000246
   7       0.000935       0.002348       0.000398
   8      -0.000119       0.000236      -0.000462
   9       0.000358       0.000115       0.000029
  10       0.000520       0.000218       0.000118
  11      -0.000639       0.000431      -0.000242
  12      -0.000010      -0.000208       0.000171
  13       0.000070      -0.000052       0.000165
  14      -0.000328       0.000339      -0.000642
  15       0.000047      -0.000327       0.000099
  16      -0.000050      -0.000086      -0.000083
  17      -0.000459      -0.000565      -0.000162
  18       0.000177       0.000015       0.000059
  19      -0.000151       0.000079      -0.000043
  20      -0.000150      -0.000178       0.000120
---------------------------------------------------
 Number of fixed atoms: 0
 Gradient time:  CPU 467.10 s  wall 66.86 s
 Geometry Optimization Parameters
   NAtoms,    NIC,     NZ,  NCons,   NDum,   NFix, NCnnct, MaxDiis
       20     141       0       0       0       0       0       0

 Cartesian Hessian Update
 Hessian updated using BFGS update


** GEOMETRY OPTIMIZATION IN DELOCALIZED INTERNAL COORDINATES **
   Searching for a Minimum

   Optimization Cycle:   2

                       Coordinates (Angstroms)
     ATOM                X               Y               Z
      1  C         0.8780494082   -0.3163431362   -0.1607003432
      2  C         2.2185515482   -0.4219643984   -0.8297473311
      3  O         2.7062834071    0.7960010453   -1.3664721084
      4  C         0.1952034764    0.8237480220   -0.0651933448
      5  C        -1.1208764678    0.8563759464    0.6362841363
      6  O        -0.9209059721    1.2615464697    2.0460876554
      7  O        -0.4543217606    2.4744450239    2.1386415282
      8  C        -1.8491613702   -0.4777990233    0.7211266605
      9  O        -2.6527263191   -0.5610748341   -0.4620374968
     10  C        -0.9197968223   -1.6533309546    0.8131459979
     11  C         0.3375663682   -1.5666852688    0.3921449379
     12  H         2.9513070286   -0.7588420743   -0.0945850838
     13  H         2.1678671724   -1.1949942191   -1.6022183498
     14  H         2.1349189189    1.0592275995   -2.0971117766
     15  H         0.5842899279    1.7485712457   -0.4646223877
     16  H        -2.4965175420   -0.4457095917    1.6005723809
     17  H        -3.1078410008   -1.4115351350   -0.4552587389
     18  H        -1.3246329343   -2.5830478741    1.1912576701
     19  H         0.9921410718   -2.4292268655    0.4225746494
     20  H        -1.7939618384    1.6004956227    0.2152052448
   Point Group: c1    Number of degrees of freedom:    54


   Energy is   -572.892396065

 Hessian updated using BFGS update

 54 Hessian modes will be used to form the next step
  Hessian Eigenvalues:
     0.004846    0.007801    0.008102    0.011379    0.013321    0.013699
     0.015438    0.018134    0.018228    0.021470    0.024214    0.043498
     0.048144    0.058341    0.058871    0.067852    0.074572    0.076680
     0.082747    0.119575    0.136308    0.142883    0.159300    0.159622
     0.159954    0.159992    0.165253    0.171830    0.186395    0.212249
     0.219723    0.233118    0.243119    0.253082    0.287184    0.308428
     0.314958    0.319614    0.337354    0.338683    0.340367    0.343515
     0.344702    0.347796    0.350863    0.352317    0.360916    0.406873
     0.428994    0.513967    0.531148    0.547415    0.578138    0.636125

 Minimum search - taking simple RFO step
 Searching for Lamda that Minimizes Along All modes
 Value Taken    Lamda =  -0.00006753
 Step Taken.  Stepsize is  0.065688

                             Maximum     Tolerance    Cnvgd?
         Gradient           0.001692      0.000300      NO
         Displacement       0.029061      0.001200      NO
         Energy change     -0.000639      0.000001      NO


 New Cartesian Coordinates Obtained by Inverse Iteration

 Displacement from previous Coordinates is:  0.123583
 ----------------------------------------------------------------
             Standard Nuclear Orientation (Angstroms)
    I     Atom           X                Y                Z
 ----------------------------------------------------------------
    1      C       0.8787441010    -0.3153910078    -0.1630331751
    2      C       2.2172846542    -0.4260814203    -0.8334899093
    3      O       2.7216842343     0.7932033559    -1.3485841720
    4      C       0.1946217909     0.8238818197    -0.0679434681
    5      C      -1.1223237783     0.8552897048     0.6322276740
    6      O      -0.9232322250     1.2674792705     2.0396417056
    7      O      -0.4679076051     2.4825963366     2.1241983919
    8      C      -1.8475975666    -0.4793438385     0.7253464790
    9      O      -2.6608464973    -0.5623553847    -0.4508993346
   10      C      -0.9181269036    -1.6552152631     0.8109992581
   11      C       0.3395659117    -1.5668123398     0.3904303744
   12      H       2.9460871066    -0.7815133628    -0.1039273571
   13      H       2.1579969521    -1.1857989310    -1.6182482741
   14      H       2.1539341243     1.0764163642    -2.0730377065
   15      H       0.5801353374     1.7491446998    -0.4703931992
   16      H      -2.4881284972    -0.4460365597     1.6094700826
   17      H      -3.1133481471    -1.4129583661    -0.4400867211
   18      H      -1.3226672736    -2.5851589018     1.1884405252
   19      H       0.9953145662    -2.4284880268     0.4202633251
   20      H      -1.7957539850     1.5969994511     0.2077194014
 ----------------------------------------------------------------
 Nuclear Repulsion Energy =         626.54344128 hartrees
 There are       42 alpha and       41 beta electrons
 Discretize the solute cavity surface with Lebedev spheres
	Using 110 Lebedev grid points for each H atom
	Using 194 Lebedev grid points for other atoms
	Atomic van der Waals radii will be scaled by 1.20
 Remove points where switching function is < 1.0e-08
 Keep 1520 surface tesserae and discard 1604 interior tesserae
 Molecular Surface Area = 173.838 Angst**2
 Applying Cartesian multipole field
    Component          Value
    ---------          -----
     (2,0,0)        1.00000E-11
     (0,2,0)        2.00000E-11
     (0,0,2)       -3.00000E-11
 Nucleus-field energy     =     0.0000000060 hartrees
 Requested basis set is 6-311++G(2df,2p)
 There are 142 shells and 464 basis functions
 A cutoff of  1.0D-12 yielded   8828 shell pairs
 There are     94059 function pairs (    116980 Cartesian)
 Smallest overlap matrix eigenvalue = 1.84E-06
 Guess MOs from SCF MO coefficient file

 -----------------------------------------------------------------------
  General SCF calculation program by
  Eric Jon Sundstrom, Paul Horn, Yuezhi Mao, Dmitri Zuev, Alec White,
  David Stuck, Shaama M.S., Shane Yost, Joonho Lee, David Small,
  Daniel Levine, Susi Lehtola, Hugh Burton, Evgeny Epifanovsky,
  Bang C. Huynh
 -----------------------------------------------------------------------
 Exchange:     0.1500 Hartree-Fock + 1.0000 wB97M-V + LR-HF
 Correlation:  1.0000 wB97M-V
 Using SG-2 standard quadrature grid
 Nonlocal Correlation:  VV10 with C = 0.0100 and b = 6.00 and scale = 1.00000
 Grid used for NLC:  SG-1 standard quadrature
 
 Citation of the SMD model:
 Marenich, A.V.; Cramer, C.J.; Truhlar, D.G.
 J. Phys. Chem. B 2009, 113, 6378-6396.
 iSolventCode=           1
 Solvent: water                                                           
 
 vradii
            1           2           3           4           5           6
    1   1.8500000   1.8500000   1.5200000   1.8500000   1.8500000   1.5200000
            7           8           9          10          11          12
    1   1.5200000   1.8500000   1.5200000   1.8500000   1.8500000   1.2000000
           13          14          15          16          17          18
    1   1.2000000   1.2000000   1.2000000   1.2000000   1.2000000   1.2000000
           19          20
    1   1.2000000   1.2000000
 -------------------------------------------------------
 OpenMP BLAS3 based DFT computing Module                
 Release: version 1.0, May 2013, Q-Chem Inc. Pittsburgh 
 -------------------------------------------------------
 A unrestricted SCF calculation will be
 performed using Roothaan-Hall, DIIS, GDM
 SCF converges when RMS gradient is below 1.0e-07
 ---------------------------------------
  Cycle       Energy         DIIS error
 ---------------------------------------
    1    -572.8600253550      1.87e-04  Roothaan Step
 ---------------------------------------
  Cycle       Energy         DIIS error
 ---------------------------------------
    1    -572.8907641040      2.00e-04  
    2    -572.8950393457      1.72e-04  Done DIIS. Switching to GDM
 ---------------------------------------
  Cycle       Energy        RMS Gradient
 ---------------------------------------
    1    -572.8950393457      7.97e-03   Normal BFGS step
    2    -572.8945350032      1.36e-02  Line search: overstep
    3    -572.8971144814      3.00e-03   Normal BFGS step
    4    -572.8972598346      1.52e-03   Normal BFGS step
    5    -572.8973034068      9.51e-04   Normal BFGS step
    6    -572.8973119688      2.72e-04   Normal BFGS step
    7    -572.8973136828      2.18e-04   Normal BFGS step
    8    -572.8973142269      1.20e-04   Normal BFGS step
    9    -572.8973144147      6.03e-05   Normal BFGS step
   10    -572.8973144417      5.38e-05   Normal BFGS step
   11    -572.8973144513      4.73e-05   Normal BFGS step
   12    -572.8973144575      3.52e-05   Normal BFGS step
   13    -572.8973144612      2.25e-05   Normal BFGS step
   14    -572.8973144645      1.21e-05   Normal BFGS step
   15    -572.8973144655      3.43e-06   Normal BFGS step
   16    -572.8973144657      1.08e-06   Normal BFGS step
   17    -572.8973144658      3.83e-07   Normal BFGS step
   18    -572.8973144658      3.34e-07   Normal BFGS step
   19    -572.8973144658      2.38e-07   Normal BFGS step
   20    -572.8973144658      1.77e-07   Normal BFGS step
   21    -572.8973144658      6.62e-08  Convergence criterion met
 ---------------------------------------
 SCF time:   CPU 3429.38s  wall 437.00s 
<S^2> =          0.754082694
(3)  G-ENP(liq) elect-nuc-pol free energy of system     -572.897314466 a.u.
(4)  G-CDS(liq) cavity-dispersion-solvent structure 
     free energy                                                3.0620 kcal/mol
(6)  G-S(liq) free energy of system                     -572.892434906 a.u.
 SCF   energy in the final basis set =     -572.8924349064
 Total energy in the final basis set =     -572.8924349064
 
 --------------------------------------------------------------
 
                    Orbital Energies (a.u.)
 --------------------------------------------------------------
 
 Alpha MOs
 -- Occupied --
-19.4632 -19.4149 -19.3453 -19.3403 -10.4115 -10.4069 -10.3905 -10.3635
-10.3517 -10.3485 -10.3427  -1.3430  -1.1655  -1.1605  -1.0263  -0.9647
 -0.8865  -0.8669  -0.8060  -0.7465  -0.7188  -0.6655  -0.6520  -0.6311
 -0.6186  -0.6082  -0.5988  -0.5677  -0.5620  -0.5427  -0.5357  -0.5187
 -0.4963  -0.4873  -0.4616  -0.4250  -0.4189  -0.4049  -0.3967  -0.3941
 -0.3897  -0.3309
 -- Virtual --
  0.0202   0.0263   0.0344   0.0385   0.0504   0.0553   0.0561   0.0620
  0.0807   0.0845   0.0917   0.1020   0.1118   0.1215   0.1268   0.1356
  0.1421   0.1452   0.1500   0.1545   0.1573   0.1601   0.1651   0.1667
  0.1725   0.1804   0.1860   0.1897   0.1953   0.1996   0.2053   0.2117
  0.2154   0.2202   0.2283   0.2313   0.2361   0.2475   0.2597   0.2681
  0.2730   0.2759   0.2831   0.2906   0.2930   0.2979   0.3040   0.3093
  0.3139   0.3208   0.3253   0.3260   0.3483   0.3528   0.3563   0.3642
  0.3729   0.3772   0.3853   0.3869   0.3910   0.3957   0.3973   0.4061
  0.4140   0.4208   0.4350   0.4419   0.4557   0.4599   0.4789   0.4843
  0.5088   0.5321   0.5440   0.5501   0.5664   0.5812   0.5986   0.6033
  0.6118   0.6237   0.6314   0.6363   0.6453   0.6536   0.6542   0.6724
  0.6828   0.6873   0.6946   0.7014   0.7079   0.7164   0.7276   0.7367
  0.7406   0.7539   0.7578   0.7652   0.7756   0.7858   0.7961   0.8045
  0.8154   0.8230   0.8449   0.8554   0.8700   0.8742   0.8823   0.9040
  0.9130   0.9353   0.9701   0.9755   0.9802   1.0023   1.0204   1.0274
  1.0573   1.0652   1.0712   1.0874   1.1005   1.1116   1.1299   1.1426
  1.1506   1.1551   1.1750   1.1803   1.1919   1.2006   1.2142   1.2199
  1.2280   1.2350   1.2446   1.2542   1.2634   1.2671   1.2726   1.2912
  1.3032   1.3185   1.3261   1.3339   1.3476   1.3628   1.3675   1.3806
  1.3945   1.4044   1.4183   1.4248   1.4391   1.4473   1.4640   1.4705
  1.4815   1.5063   1.5110   1.5215   1.5333   1.5366   1.5512   1.5614
  1.5838   1.5885   1.6031   1.6119   1.6260   1.6340   1.6515   1.6580
  1.6737   1.6820   1.6852   1.7117   1.7258   1.7506   1.7681   1.7912
  1.8191   1.8377   1.8450   1.8620   1.8780   1.9530   1.9773   1.9876
  2.0265   2.0404   2.0740   2.1324   2.1360   2.1484   2.1774   2.2139
  2.2352   2.2688   2.3264   2.3364   2.3545   2.3698   2.3886   2.4149
  2.4423   2.5581   2.5833   2.6298   2.6707   2.6949   2.7090   2.7609
  2.7802   2.8075   2.8206   2.8248   2.8455   2.8636   2.8651   2.8817
  2.8896   2.8961   2.9235   2.9382   2.9508   2.9613   2.9797   2.9906
  3.0033   3.0108   3.0366   3.0477   3.0547   3.0777   3.1030   3.1162
  3.1404   3.1676   3.1773   3.1996   3.2220   3.2439   3.2531   3.2811
  3.2999   3.3140   3.3170   3.3423   3.3505   3.3748   3.3834   3.4112
  3.4221   3.4333   3.4378   3.4569   3.4853   3.4925   3.5013   3.5143
  3.5330   3.5669   3.5773   3.5907   3.6072   3.6187   3.6429   3.6649
  3.6801   3.6951   3.7125   3.7279   3.7422   3.7548   3.7699   3.7803
  3.7992   3.8141   3.8273   3.8372   3.8444   3.8496   3.8685   3.8856
  3.8985   3.9123   3.9432   3.9531   3.9926   3.9933   4.0186   4.0523
  4.0722   4.0865   4.1046   4.1262   4.1447   4.1559   4.1671   4.2040
  4.2215   4.2296   4.2495   4.2530   4.2939   4.2979   4.3264   4.3315
  4.3627   4.3774   4.3849   4.3879   4.4032   4.4211   4.4283   4.4603
  4.4642   4.4926   4.5473   4.5863   4.5929   4.6045   4.6180   4.6414
  4.6698   4.6936   4.7199   4.7312   4.7720   4.7848   4.8032   4.8635
  4.9143   4.9182   4.9551   4.9719   5.0077   5.0400   5.0567   5.0892
  5.1000   5.1212   5.1351   5.1837   5.2209   5.2413   5.2632   5.2839
  5.2901   5.3073   5.3183   5.3380   5.3557   5.3789   5.4097   5.4179
  5.4482   5.4821   5.4952   5.5271   5.5489   5.5830   5.6082   5.6346
  5.6665   5.6838   5.6869   5.7048   5.7124   5.7366   5.7842   5.8460
  5.9219   5.9479   5.9873   6.0237   6.0494   6.0865   6.2587   6.4259
  6.4858   6.5994   6.6344   6.6576   6.8620   6.8912   6.9795   7.0969
  7.0989   7.1187   7.2245   7.2681   7.3196   7.3284   7.3307   7.3398
  7.3672   7.3900   7.4161   7.4371   7.6534   7.6805   7.7917   7.7999
  7.8305   8.0381   8.1122  24.3285  24.6205  24.7192  24.7855  24.8384
 25.1879  25.3654  50.4364  50.5413  50.5969  50.6221
 
 Beta MOs
 -- Occupied --
-19.4523 -19.3966 -19.3454 -19.3403 -10.4119 -10.4069 -10.3904 -10.3636
-10.3517 -10.3485 -10.3424  -1.3164  -1.1655  -1.1605  -1.0063  -0.9542
 -0.8862  -0.8575  -0.8051  -0.7426  -0.7180  -0.6565  -0.6438  -0.6201
 -0.6015  -0.5986  -0.5888  -0.5611  -0.5445  -0.5408  -0.5343  -0.5065
 -0.4960  -0.4746  -0.4547  -0.4244  -0.4154  -0.3959  -0.3936  -0.3858
 -0.3295
 -- Virtual --
 -0.0298   0.0206   0.0268   0.0345   0.0388   0.0505   0.0555   0.0563
  0.0623   0.0813   0.0846   0.0921   0.1025   0.1123   0.1222   0.1272
  0.1371   0.1431   0.1457   0.1506   0.1550   0.1575   0.1605   0.1654
  0.1670   0.1727   0.1813   0.1863   0.1898   0.1969   0.2001   0.2056
  0.2119   0.2158   0.2225   0.2296   0.2314   0.2384   0.2490   0.2606
  0.2719   0.2744   0.2769   0.2840   0.2918   0.2952   0.3000   0.3052
  0.3107   0.3149   0.3216   0.3259   0.3266   0.3487   0.3564   0.3581
  0.3646   0.3741   0.3779   0.3855   0.3881   0.3918   0.3965   0.3989
  0.4068   0.4145   0.4212   0.4361   0.4437   0.4569   0.4604   0.4800
  0.4845   0.5091   0.5328   0.5442   0.5504   0.5665   0.5814   0.5990
  0.6034   0.6120   0.6241   0.6314   0.6366   0.6454   0.6539   0.6548
  0.6729   0.6836   0.6875   0.6948   0.7021   0.7086   0.7168   0.7276
  0.7369   0.7411   0.7539   0.7582   0.7657   0.7763   0.7860   0.7963
  0.8048   0.8155   0.8234   0.8457   0.8557   0.8703   0.8745   0.8828
  0.9046   0.9133   0.9363   0.9712   0.9760   0.9804   1.0036   1.0206
  1.0294   1.0597   1.0670   1.0715   1.0893   1.1027   1.1133   1.1315
  1.1438   1.1541   1.1564   1.1800   1.1876   1.1991   1.2056   1.2170
  1.2266   1.2303   1.2422   1.2531   1.2586   1.2675   1.2684   1.2781
  1.2922   1.3044   1.3196   1.3270   1.3345   1.3490   1.3632   1.3684
  1.3822   1.3958   1.4055   1.4230   1.4265   1.4405   1.4492   1.4661
  1.4728   1.4836   1.5093   1.5142   1.5221   1.5354   1.5385   1.5539
  1.5654   1.5856   1.5920   1.6039   1.6162   1.6277   1.6343   1.6534
  1.6595   1.6823   1.6866   1.7010   1.7228   1.7312   1.7519   1.7699
  1.7938   1.8204   1.8408   1.8531   1.8640   1.8845   1.9596   1.9790
  1.9904   2.0277   2.0440   2.0746   2.1348   2.1418   2.1492   2.1825
  2.2174   2.2485   2.2734   2.3345   2.3445   2.3583   2.3730   2.3895
  2.4172   2.4444   2.5585   2.5843   2.6318   2.6751   2.6963   2.7110
  2.7617   2.7805   2.8085   2.8210   2.8251   2.8458   2.8638   2.8652
  2.8824   2.8898   2.8963   2.9236   2.9385   2.9512   2.9615   2.9799
  2.9906   3.0038   3.0114   3.0367   3.0479   3.0547   3.0776   3.1036
  3.1166   3.1407   3.1677   3.1775   3.2001   3.2225   3.2443   3.2535
  3.2815   3.3000   3.3142   3.3171   3.3425   3.3508   3.3749   3.3836
  3.4116   3.4221   3.4338   3.4382   3.4571   3.4853   3.4927   3.5013
  3.5147   3.5333   3.5673   3.5773   3.5911   3.6075   3.6190   3.6430
  3.6652   3.6802   3.6955   3.7127   3.7280   3.7426   3.7553   3.7700
  3.7805   3.7994   3.8142   3.8275   3.8374   3.8446   3.8499   3.8687
  3.8859   3.8991   3.9124   3.9436   3.9533   3.9929   3.9936   4.0190
  4.0527   4.0723   4.0865   4.1050   4.1263   4.1451   4.1562   4.1675
  4.2042   4.2217   4.2298   4.2497   4.2540   4.2943   4.2984   4.3268
  4.3316   4.3636   4.3781   4.3851   4.3881   4.4035   4.4221   4.4285
  4.4615   4.4652   4.4935   4.5484   4.5889   4.6030   4.6050   4.6376
  4.6425   4.6710   4.6951   4.7215   4.7418   4.7786   4.7885   4.8067
  4.8649   4.9227   4.9316   4.9617   4.9745   5.0114   5.0448   5.0730
  5.1308   5.1434   5.1495   5.1982   5.2185   5.2238   5.2799   5.2852
  5.2987   5.3042   5.3077   5.3221   5.3399   5.3618   5.3830   5.4125
  5.4327   5.4570   5.4887   5.4997   5.5393   5.5556   5.5837   5.6099
  5.6413   5.6676   5.6848   5.6877   5.7057   5.7193   5.7417   5.7966
  5.8568   5.9268   5.9489   5.9875   6.0240   6.0495   6.0875   6.2595
  6.4416   6.5334   6.6061   6.6399   6.6578   6.9450   6.9699   7.0398
  7.0974   7.1147   7.1462   7.2511   7.3096   7.3197   7.3289   7.3391
  7.3412   7.3673   7.3923   7.4425   7.4833   7.6535   7.6810   7.7920
  7.8139   7.8310   8.0505   8.1326  24.3285  24.6206  24.7189  24.7854
 24.8384  25.1879  25.3655  50.4491  50.5510  50.5970  50.6222
 --------------------------------------------------------------
 
          Ground-State Mulliken Net Atomic Charges

     Atom                 Charge (a.u.)    Spin (a.u.)
  --------------------------------------------------------
      1 C                     0.375288       0.003352
      2 C                    -0.400525       0.005194
      3 O                    -0.440960       0.000126
      4 C                    -0.258293       0.003415
      5 C                    -0.462469      -0.002809
      6 O                     0.077183       0.327030
      7 O                    -0.216289       0.658662
      8 C                    -0.403439       0.005409
      9 O                    -0.396387      -0.000456
     10 C                    -0.144768       0.004745
     11 C                    -0.289972      -0.011894
     12 H                     0.219165      -0.000350
     13 H                     0.231581      -0.000164
     14 H                     0.336976      -0.000087
     15 H                     0.296939       0.000076
     16 H                     0.236762      -0.000768
     17 H                     0.336584       0.000004
     18 H                     0.317399       0.000663
     19 H                     0.295207      -0.000249
     20 H                     0.290018       0.008103
  --------------------------------------------------------
  Sum of atomic charges =     0.000000
  Sum of spin   charges =     1.000000

 -----------------------------------------------------------------
                    Cartesian Multipole Moments
 -----------------------------------------------------------------
    Charge (ESU x 10^10)
                 0.0000
    Dipole Moment (Debye)
         X      -2.0639      Y      -5.7530      Z      -2.2600
       Tot       6.5164
    Quadrupole Moments (Debye-Ang)
        XX     -65.6077     XY       0.8087     YY     -63.3294
        XZ      -3.3169     YZ      -9.1029     ZZ     -69.7557
    Octopole Moments (Debye-Ang^2)
       XXX     -21.0840    XXY     -41.1106    XYY      -3.5761
       YYY     -45.9268    XXZ      -0.7045    XYZ       5.0390
       YYZ     -37.6985    XZZ      14.9310    YZZ     -18.5042
       ZZZ     -91.3712
    Hexadecapole Moments (Debye-Ang^3)
      XXXX   -1159.1600   XXXY     -13.0543   XXYY    -252.6069
      XYYY      -1.3037   YYYY    -685.7013   XXXZ     214.9196
      XXYZ     -17.4392   XYYZ      62.6798   YYYZ    -144.5152
      XXZZ    -274.8447   XYZZ       9.3782   YYZZ    -235.5825
      XZZZ     171.5715   YZZZ    -138.7137   ZZZZ    -571.9207
 -----------------------------------------------------------------
 Calculating analytic gradient of the SCF energy
 Gradient of CDS energy
            1           2           3           4           5           6
    1  -0.0000496   0.0010060  -0.0003545   0.0000921  -0.0001370   0.0000171
    2   0.0000480   0.0002102  -0.0002779   0.0001456   0.0000109   0.0000675
    3  -0.0000280  -0.0004689   0.0003015  -0.0000711   0.0001581  -0.0000064
            7           8           9          10          11          12
    1  -0.0000350  -0.0002432   0.0002258  -0.0001057   0.0001940  -0.0000357
    2   0.0000045   0.0001906   0.0001316  -0.0002452  -0.0002671   0.0000011
    3   0.0000556  -0.0001066   0.0001455   0.0002024   0.0000553   0.0002459
           13          14          15          16          17          18
    1  -0.0002382   0.0001320   0.0000948  -0.0000716  -0.0003991  -0.0000734
    2  -0.0001296   0.0003020   0.0001062   0.0000574  -0.0002101  -0.0001727
    3  -0.0000244  -0.0004169   0.0000129   0.0001960  -0.0002549   0.0000710
           19          20
    1   0.0001224  -0.0001413
    2  -0.0001151   0.0001423
    3  -0.0000029  -0.0000641
 Gradient of SCF Energy
            1           2           3           4           5           6
    1  -0.0032200  -0.0048789   0.0119414  -0.0061199   0.0024963   0.0002168
    2  -0.0039783   0.0141094  -0.0008881   0.0018841  -0.0026713   0.0011717
    3   0.0002231  -0.0000586   0.0114348   0.0013016   0.0114096   0.0008098
            7           8           9          10          11          12
    1   0.0001923   0.0091097   0.0068428  -0.0033882   0.0078833   0.0020468
    2  -0.0006461   0.0029972   0.0149845   0.0096314   0.0050455  -0.0044733
    3  -0.0005984  -0.0114675  -0.0042545   0.0007156  -0.0065293   0.0030901
           13          14          15          16          17          18
    1  -0.0006405  -0.0088908  -0.0002342  -0.0057036  -0.0069071  -0.0056723
    2  -0.0060401   0.0012874   0.0009937  -0.0013231  -0.0146194  -0.0106866
    3  -0.0052977  -0.0094373  -0.0031244   0.0061654   0.0025891   0.0040837
           19          20
    1   0.0068349  -0.0019089
    2  -0.0090957   0.0023172
    3  -0.0001947  -0.0008604
 Max gradient component =       1.498E-02
 RMS gradient           =       6.301E-03
 Computing fast CPCM-SWIG gradient
 Updating gradient with PCM contributions...
 -- total gradient after adding PCM contribution --
---------------------------------------------------
  Atom         X              Y              Z     
---------------------------------------------------
   1      -0.000206      -0.000291       0.000120
   2      -0.000061       0.000036      -0.000296
   3      -0.000226      -0.000098      -0.000122
   4       0.000066       0.000171       0.000067
   5       0.000170       0.000304      -0.000033
   6      -0.000249      -0.000464      -0.000122
   7       0.000022       0.000046      -0.000181
   8      -0.000070       0.000055       0.000224
   9       0.000108      -0.000270       0.000181
  10       0.000106      -0.000113      -0.000053
  11      -0.000072       0.000178      -0.000117
  12      -0.000018       0.000255      -0.000118
  13       0.000104       0.000086       0.000204
  14       0.000176      -0.000173       0.000319
  15      -0.000053      -0.000238      -0.000028
  16      -0.000028      -0.000009      -0.000256
  17       0.000166       0.000350       0.000049
  18       0.000153       0.000138       0.000020
  19      -0.000100       0.000096       0.000009
  20       0.000012      -0.000058       0.000132
---------------------------------------------------
 Number of fixed atoms: 0
 Gradient time:  CPU 467.75 s  wall 67.19 s
 Geometry Optimization Parameters
   NAtoms,    NIC,     NZ,  NCons,   NDum,   NFix, NCnnct, MaxDiis
       20     141       0       0       0       0       0       0

 Cartesian Hessian Update
 Hessian updated using BFGS update


** GEOMETRY OPTIMIZATION IN DELOCALIZED INTERNAL COORDINATES **
   Searching for a Minimum

   Optimization Cycle:   3

                       Coordinates (Angstroms)
     ATOM                X               Y               Z
[...]
    1  -0.0002408   0.0001396   0.0000922  -0.0000681  -0.0004011  -0.0000748
    2  -0.0001193   0.0003056   0.0001061   0.0000585  -0.0002113  -0.0001721
    3  -0.0000387  -0.0004119   0.0000164   0.0001968  -0.0002495   0.0000703
           19          20
    1   0.0001231  -0.0001412
    2  -0.0001146   0.0001403
    3  -0.0000023  -0.0000655
 Gradient of SCF Energy
            1           2           3           4           5           6
    1  -0.0029392  -0.0046751   0.0121528  -0.0063240   0.0021371   0.0004403
    2  -0.0040394   0.0143143  -0.0011107   0.0018102  -0.0028432   0.0015520
    3   0.0001102   0.0004962   0.0117554   0.0015392   0.0114888   0.0009780
            7           8           9          10          11          12
    1   0.0001684   0.0089808   0.0064526  -0.0035897   0.0081422   0.0020460
    2  -0.0005465   0.0030322   0.0153137   0.0098693   0.0047164  -0.0049043
    3  -0.0003881  -0.0117941  -0.0043948   0.0008017  -0.0067253   0.0031854
           13          14          15          16          17          18
    1  -0.0008254  -0.0090927  -0.0000763  -0.0054389  -0.0068380  -0.0058925
    2  -0.0060118   0.0017805   0.0013870  -0.0013458  -0.0150640  -0.0109065
    3  -0.0057308  -0.0099086  -0.0031682   0.0064763   0.0025339   0.0040535
           19          20
    1   0.0069825  -0.0018110
    2  -0.0092759   0.0022725
    3  -0.0002682  -0.0010405
 Max gradient component =       1.531E-02
 RMS gradient           =       6.422E-03
 Computing fast CPCM-SWIG gradient
 Updating gradient with PCM contributions...
 -- total gradient after adding PCM contribution --
---------------------------------------------------
  Atom         X              Y              Z     
---------------------------------------------------
   1       0.000011       0.000004       0.000020
   2       0.000012       0.000009       0.000035
   3       0.000023       0.000022       0.000009
   4      -0.000015      -0.000018      -0.000051
   5       0.000010      -0.000014      -0.000060
   6      -0.000050      -0.000089       0.000053
   7       0.000023       0.000093      -0.000016
   8      -0.000025       0.000009      -0.000032
   9       0.000050       0.000019       0.000010
  10       0.000044       0.000021       0.000006
  11      -0.000019      -0.000015       0.000025
  12      -0.000002      -0.000012      -0.000003
  13      -0.000007       0.000001      -0.000017
  14      -0.000033       0.000020      -0.000045
  15      -0.000013       0.000009       0.000005
  16       0.000003      -0.000012       0.000022
  17      -0.000025      -0.000048       0.000022
  18       0.000006      -0.000008       0.000009
  19       0.000018       0.000011       0.000010
  20      -0.000014      -0.000003      -0.000003
---------------------------------------------------
 Number of fixed atoms: 0
 Gradient time:  CPU 401.89 s  wall 57.87 s
 Geometry Optimization Parameters
   NAtoms,    NIC,     NZ,  NCons,   NDum,   NFix, NCnnct, MaxDiis
       20     141       0       0       0       0       0       0

 Cartesian Hessian Update
 Hessian updated using BFGS update


** GEOMETRY OPTIMIZATION IN DELOCALIZED INTERNAL COORDINATES **
   Searching for a Minimum

   Optimization Cycle:   7

                       Coordinates (Angstroms)
     ATOM                X               Y               Z
      1  C         0.8807695000   -0.3182937053   -0.1660397863
      2  C         2.2197407002   -0.4296449134   -0.8355523781
      3  O         2.7396016214    0.7946936988   -1.3235581324
      4  C         0.1973027069    0.8211411207   -0.0684693409
      5  C        -1.1219090464    0.8537847025    0.6272137632
      6  O        -0.9258037272    1.2865496310    2.0300595576
      7  O        -0.4982684747    2.5125625603    2.0999245609
      8  C        -1.8453169091   -0.4814382808    0.7336629236
      9  O        -2.6803047523   -0.5653695009   -0.4277931093
     10  C        -0.9177716051   -1.6593142140    0.8052619230
     11  C         0.3386378598   -1.5720654192    0.3804341732
     12  H         2.9423547239   -0.8115710657   -0.1130332186
     13  H         2.1515600193   -1.1707162673   -1.6378075458
     14  H         2.1803347509    1.0975896515   -2.0471901788
     15  H         0.5851037131    1.7487724462   -0.4643589050
     16  H        -2.4694715293   -0.4469289538    1.6299649894
     17  H        -3.1227039761   -1.4217672430   -0.4153109372
     18  H        -1.3243249089   -2.5908158073    1.1775703502
     19  H         0.9921146837   -2.4359402785    0.4022997370
     20  H        -1.7962090503    1.5886294383    0.1918154544
   Point Group: c1    Number of degrees of freedom:    54


   Energy is   -572.892451429

 Hessian updated using BFGS update

 54 Hessian modes will be used to form the next step
  Hessian Eigenvalues:
     0.001634    0.005093    0.005640    0.010493    0.013155    0.013515
     0.015464    0.018124    0.018284    0.021338    0.024182    0.043697
     0.048708    0.058906    0.059893    0.068175    0.075150    0.076847
     0.082840    0.120969    0.140655    0.143805    0.157870    0.159449
     0.159880    0.161360    0.168774    0.171008    0.186222    0.212913
     0.219519    0.233101    0.241336    0.272287    0.301468    0.308425
     0.315181    0.318972    0.337652    0.339368    0.341056    0.344947
     0.346811    0.349343    0.350902    0.352425    0.359682    0.416313
     0.448230    0.531431    0.546301    0.550616    0.584130    0.655886

 Minimum search - taking simple RFO step
 Searching for Lamda that Minimizes Along All modes
 Value Taken    Lamda =  -0.00000027
 Step Taken.  Stepsize is  0.007994

                             Maximum     Tolerance    Cnvgd?
         Gradient           0.000089      0.000300     YES
         Displacement       0.003011      0.001200      NO
         Energy change     -0.000001      0.000001     YES

 Final energy is   -572.892451428948     


 ******************************
 **  OPTIMIZATION CONVERGED  **
 ******************************

                       Coordinates (Angstroms)
     ATOM                X               Y               Z
      1  C         0.8807695000   -0.3182937053   -0.1660397863
      2  C         2.2197407002   -0.4296449134   -0.8355523781
      3  O         2.7396016214    0.7946936988   -1.3235581324
      4  C         0.1973027069    0.8211411207   -0.0684693409
      5  C        -1.1219090464    0.8537847025    0.6272137632
      6  O        -0.9258037272    1.2865496310    2.0300595576
      7  O        -0.4982684747    2.5125625603    2.0999245609
      8  C        -1.8453169091   -0.4814382808    0.7336629236
      9  O        -2.6803047523   -0.5653695009   -0.4277931093
     10  C        -0.9177716051   -1.6593142140    0.8052619230
     11  C         0.3386378598   -1.5720654192    0.3804341732
     12  H         2.9423547239   -0.8115710657   -0.1130332186
     13  H         2.1515600193   -1.1707162673   -1.6378075458
     14  H         2.1803347509    1.0975896515   -2.0471901788
     15  H         0.5851037131    1.7487724462   -0.4643589050
     16  H        -2.4694715293   -0.4469289538    1.6299649894
     17  H        -3.1227039761   -1.4217672430   -0.4153109372
     18  H        -1.3243249089   -2.5908158073    1.1775703502
     19  H         0.9921146837   -2.4359402785    0.4022997370
     20  H        -1.7962090503    1.5886294383    0.1918154544

Z-matrix Print:
$molecule
0 2
O 
O  1 1.300298
C  1 1.481121 2 111.710642
H  3 1.088232 1 105.289093 2 -55.391467 0
C  3 1.491764 1 109.330026 2 65.214866 0
H  5 1.080564 3 117.998437 1 -82.640094 0
C  5 1.332276 3 120.433378 1 95.902473 0
C  7 1.471219 5 120.837553 3 1.416958 0
H  8 1.083416 7 117.693884 5 -171.374653 0
C  8 1.329156 7 121.532711 5 10.196981 0
H  10 1.082402 8 121.431264 7 178.014994 0
C  10 1.500953 8 121.157277 7 0.582808 0
H  12 1.092757 10 109.793142 8 -140.892369 0
O  12 1.432909 10 110.658968 8 98.117438 0
H  14 0.963997 12 107.996842 10 53.991914 0
C  7 1.501163 5 123.620016 3 -179.276148 0
H  16 1.090904 7 108.748309 5 121.565026 0
H  16 1.094280 7 108.761822 5 -122.430458 0
O  16 1.416831 7 114.632241 5 2.239932 0
H  19 0.963415 16 108.505449 7 -66.885124 0
$end

 
 --------------------------------------------------------------
 
                    Orbital Energies (a.u.)
 --------------------------------------------------------------
 
 Alpha MOs
 -- Occupied --
-19.4632 -19.4149 -19.3454 -19.3404 -10.4117 -10.4071 -10.3906 -10.3636
-10.3519 -10.3486 -10.3428  -1.3429  -1.1654  -1.1603  -1.0260  -0.9647
 -0.8866  -0.8669  -0.8061  -0.7466  -0.7189  -0.6651  -0.6516  -0.6312
 -0.6189  -0.6082  -0.5986  -0.5675  -0.5622  -0.5426  -0.5357  -0.5184
 -0.4960  -0.4876  -0.4617  -0.4254  -0.4189  -0.4047  -0.3966  -0.3943
 -0.3896  -0.3308
 -- Virtual --
  0.0203   0.0265   0.0344   0.0386   0.0505   0.0553   0.0561   0.0622
  0.0804   0.0848   0.0919   0.1020   0.1119   0.1216   0.1267   0.1358
  0.1422   0.1453   0.1497   0.1544   0.1573   0.1602   0.1651   0.1670
  0.1723   0.1804   0.1861   0.1899   0.1953   0.1997   0.2059   0.2116
  0.2152   0.2201   0.2288   0.2315   0.2367   0.2475   0.2597   0.2678
  0.2729   0.2757   0.2829   0.2893   0.2929   0.2984   0.3037   0.3077
  0.3136   0.3208   0.3250   0.3263   0.3479   0.3525   0.3561   0.3639
  0.3735   0.3770   0.3854   0.3874   0.3908   0.3954   0.3978   0.4066
  0.4143   0.4194   0.4341   0.4408   0.4550   0.4597   0.4770   0.4842
  0.5089   0.5325   0.5436   0.5507   0.5665   0.5813   0.5979   0.6039
  0.6116   0.6241   0.6310   0.6363   0.6449   0.6531   0.6545   0.6710
  0.6828   0.6883   0.6943   0.7005   0.7080   0.7152   0.7274   0.7360
  0.7399   0.7536   0.7571   0.7651   0.7744   0.7851   0.7953   0.8029
  0.8149   0.8219   0.8453   0.8554   0.8702   0.8733   0.8827   0.9047
  0.9140   0.9359   0.9685   0.9752   0.9798   1.0007   1.0218   1.0274
  1.0548   1.0662   1.0728   1.0874   1.1000   1.1127   1.1289   1.1405
  1.1482   1.1578   1.1743   1.1804   1.1914   1.2000   1.2117   1.2208
  1.2279   1.2341   1.2464   1.2543   1.2627   1.2666   1.2722   1.2919
  1.3012   1.3190   1.3257   1.3338   1.3471   1.3622   1.3681   1.3809
  1.3952   1.4031   1.4197   1.4241   1.4403   1.4480   1.4641   1.4681
  1.4796   1.5046   1.5103   1.5201   1.5327   1.5359   1.5498   1.5608
  1.5830   1.5876   1.6021   1.6119   1.6260   1.6336   1.6514   1.6572
  1.6728   1.6805   1.6844   1.7095   1.7278   1.7521   1.7679   1.7898
  1.8201   1.8377   1.8451   1.8606   1.8757   1.9518   1.9799   1.9885
  2.0247   2.0430   2.0744   2.1314   2.1355   2.1485   2.1752   2.2138
  2.2327   2.2686   2.3252   2.3381   2.3538   2.3692   2.3876   2.4141
  2.4413   2.5567   2.5789   2.6303   2.6697   2.6933   2.7107   2.7594
  2.7784   2.8073   2.8205   2.8248   2.8453   2.8626   2.8664   2.8820
  2.8894   2.8940   2.9223   2.9379   2.9517   2.9602   2.9788   2.9910
  3.0012   3.0085   3.0348   3.0482   3.0549   3.0779   3.1039   3.1148
  3.1401   3.1656   3.1769   3.1996   3.2213   3.2465   3.2535   3.2810
  3.3005   3.3133   3.3163   3.3409   3.3491   3.3749   3.3830   3.4096
  3.4239   3.4301   3.4389   3.4548   3.4834   3.4917   3.5001   3.5120
  3.5318   3.5674   3.5765   3.5888   3.6066   3.6172   3.6432   3.6655
  3.6803   3.6951   3.7118   3.7282   3.7417   3.7541   3.7693   3.7810
  3.7972   3.8153   3.8282   3.8348   3.8446   3.8492   3.8698   3.8869
  3.8975   3.9134   3.9414   3.9533   3.9912   3.9927   4.0192   4.0510
  4.0716   4.0870   4.1029   4.1251   4.1444   4.1540   4.1682   4.2044
  4.2211   4.2300   4.2474   4.2529   4.2916   4.2993   4.3250   4.3315
  4.3621   4.3742   4.3820   4.3890   4.4036   4.4206   4.4273   4.4577
  4.4627   4.4897   4.5463   4.5846   4.5936   4.6018   4.6187   4.6379
  4.6680   4.6943   4.7206   4.7306   4.7707   4.7839   4.7996   4.8626
  4.9143   4.9186   4.9534   4.9731   5.0080   5.0388   5.0555   5.0893
  5.0994   5.1208   5.1342   5.1826   5.2196   5.2425   5.2633   5.2838
  5.2905   5.3065   5.3179   5.3374   5.3554   5.3769   5.4073   5.4176
  5.4473   5.4810   5.4943   5.5271   5.5450   5.5826   5.6070   5.6349
  5.6662   5.6818   5.6858   5.7025   5.7105   5.7358   5.7821   5.8445
  5.9202   5.9481   5.9836   6.0236   6.0491   6.0865   6.2621   6.4232
  6.4862   6.5986   6.6318   6.6563   6.8604   6.8913   6.9798   7.0964
  7.0977   7.1189   7.2236   7.2660   7.3172   7.3274   7.3286   7.3399
  7.3671   7.3892   7.4166   7.4366   7.6532   7.6782   7.7912   7.7985
  7.8298   8.0369   8.1111  24.3265  24.6204  24.7179  24.7830  24.8370
 25.1862  25.3664  50.4364  50.5395  50.5962  50.6206
 
 Beta MOs
 -- Occupied --
-19.4523 -19.3966 -19.3454 -19.3404 -10.4121 -10.4071 -10.3906 -10.3637
-10.3518 -10.3486 -10.3425  -1.3162  -1.1653  -1.1603  -1.0060  -0.9541
 -0.8863  -0.8575  -0.8052  -0.7428  -0.7181  -0.6561  -0.6437  -0.6201
 -0.6016  -0.5988  -0.5884  -0.5614  -0.5439  -0.5408  -0.5344  -0.5068
 -0.4955  -0.4748  -0.4550  -0.4246  -0.4153  -0.3959  -0.3937  -0.3858
 -0.3295
 -- Virtual --
 -0.0297   0.0207   0.0271   0.0344   0.0389   0.0507   0.0555   0.0564
  0.0625   0.0810   0.0849   0.0923   0.1025   0.1123   0.1224   0.1272
  0.1373   0.1431   0.1458   0.1504   0.1549   0.1575   0.1605   0.1654
  0.1673   0.1726   0.1813   0.1864   0.1901   0.1969   0.2003   0.2062
  0.2118   0.2156   0.2223   0.2303   0.2317   0.2389   0.2488   0.2606
  0.2714   0.2743   0.2767   0.2838   0.2904   0.2953   0.3005   0.3049
  0.3090   0.3147   0.3216   0.3257   0.3270   0.3483   0.3559   0.3580
  0.3644   0.3747   0.3777   0.3856   0.3884   0.3915   0.3962   0.3995
  0.4075   0.4148   0.4198   0.4352   0.4426   0.4562   0.4601   0.4781
  0.4844   0.5093   0.5332   0.5439   0.5510   0.5666   0.5815   0.5984
  0.6040   0.6118   0.6245   0.6311   0.6366   0.6451   0.6538   0.6546
  0.6715   0.6834   0.6886   0.6945   0.7013   0.7087   0.7157   0.7274
  0.7362   0.7403   0.7537   0.7575   0.7657   0.7750   0.7853   0.7955
  0.8031   0.8150   0.8223   0.8462   0.8557   0.8705   0.8735   0.8833
  0.9053   0.9144   0.9370   0.9696   0.9757   0.9800   1.0021   1.0221
  1.0290   1.0569   1.0685   1.0732   1.0891   1.1023   1.1143   1.1304
  1.1421   1.1512   1.1593   1.1793   1.1878   1.1981   1.2061   1.2148
  1.2277   1.2294   1.2418   1.2547   1.2581   1.2667   1.2679   1.2778
  1.2929   1.3025   1.3202   1.3265   1.3346   1.3486   1.3626   1.3689
  1.3826   1.3964   1.4042   1.4238   1.4264   1.4418   1.4499   1.4664
  1.4703   1.4816   1.5081   1.5131   1.5207   1.5339   1.5382   1.5525
  1.5650   1.5867   1.5893   1.6031   1.6161   1.6275   1.6340   1.6535
  1.6586   1.6803   1.6857   1.7004   1.7211   1.7329   1.7533   1.7696
  1.7922   1.8217   1.8406   1.8529   1.8628   1.8821   1.9584   1.9813
  1.9916   2.0260   2.0464   2.0752   2.1341   2.1412   2.1492   2.1803
  2.2176   2.2458   2.2728   2.3334   2.3457   2.3585   2.3723   2.3886
  2.4162   2.4435   2.5571   2.5799   2.6323   2.6740   2.6950   2.7124
  2.7602   2.7787   2.8083   2.8209   2.8251   2.8457   2.8628   2.8666
  2.8827   2.8896   2.8942   2.9224   2.9381   2.9521   2.9603   2.9790
  2.9911   3.0016   3.0091   3.0349   3.0484   3.0550   3.0779   3.1045
  3.1152   3.1404   3.1657   3.1771   3.2000   3.2218   3.2469   3.2539
  3.2814   3.3007   3.3135   3.3164   3.3410   3.3494   3.3750   3.3833
  3.4101   3.4239   3.4306   3.4393   3.4550   3.4835   3.4920   3.5002
  3.5124   3.5321   3.5678   3.5766   3.5892   3.6069   3.6175   3.6434
  3.6658   3.6804   3.6955   3.7119   3.7283   3.7420   3.7546   3.7695
  3.7813   3.7974   3.8153   3.8284   3.8351   3.8447   3.8494   3.8700
  3.8872   3.8980   3.9135   3.9418   3.9535   3.9915   3.9929   4.0195
  4.0513   4.0717   4.0871   4.1033   4.1253   4.1449   4.1543   4.1687
  4.2046   4.2212   4.2302   4.2477   4.2539   4.2920   4.2998   4.3253
  4.3317   4.3631   4.3750   4.3823   4.3892   4.4039   4.4216   4.4276
  4.4586   4.4641   4.4905   4.5474   4.5870   4.6022   4.6048   4.6374
  4.6391   4.6693   4.6958   4.7222   4.7419   4.7763   4.7873   4.8036
  4.8640   4.9227   4.9319   4.9600   4.9759   5.0119   5.0431   5.0721
  5.1296   5.1436   5.1489   5.1977   5.2179   5.2226   5.2807   5.2853
  5.2985   5.3047   5.3070   5.3216   5.3394   5.3616   5.3809   5.4099
  5.4318   5.4566   5.4877   5.4988   5.5393   5.5519   5.5832   5.6088
  5.6415   5.6673   5.6830   5.6864   5.7035   5.7175   5.7405   5.7944
  5.8556   5.9250   5.9490   5.9837   6.0238   6.0493   6.0875   6.2630
  6.4388   6.5338   6.6049   6.6377   6.6565   6.9434   6.9701   7.0403
  7.0970   7.1136   7.1461   7.2502   7.3073   7.3173   7.3280   7.3373
  7.3412   7.3672   7.3913   7.4430   7.4829   7.6532   7.6787   7.7916
  7.8123   7.8304   8.0493   8.1315  24.3266  24.6205  24.7177  24.7829
 24.8370  25.1862  25.3665  50.4492  50.5492  50.5962  50.6206
 --------------------------------------------------------------
 
          Ground-State Mulliken Net Atomic Charges

     Atom                 Charge (a.u.)    Spin (a.u.)
  --------------------------------------------------------
      1 C                     0.393688       0.004052
      2 C                    -0.400788       0.005395
      3 O                    -0.442081       0.000132
      4 C                    -0.290012       0.003927
      5 C                    -0.456008      -0.003803
      6 O                     0.077921       0.327727
      7 O                    -0.216935       0.658226
      8 C                    -0.407102       0.004972
      9 O                    -0.395183      -0.000388
     10 C                    -0.141526       0.004923
     11 C                    -0.277001      -0.012271
     12 H                     0.218496      -0.000316
     13 H                     0.232383      -0.000171
     14 H                     0.337547      -0.000086
     15 H                     0.294144       0.000130
     16 H                     0.234899      -0.000770
     17 H                     0.336138       0.000011
     18 H                     0.317730       0.000643
     19 H                     0.295303      -0.000240
     20 H                     0.288389       0.007906
  --------------------------------------------------------
  Sum of atomic charges =     0.000000
  Sum of spin   charges =     1.000000

 -----------------------------------------------------------------
                    Cartesian Multipole Moments
 -----------------------------------------------------------------
    Charge (ESU x 10^10)
                 0.0000
    Dipole Moment (Debye)
         X      -1.9811      Y      -5.7858      Z      -2.2889
       Tot       6.5299
    Quadrupole Moments (Debye-Ang)
        XX     -66.0111     XY       1.0341     YY     -63.3937
        XZ      -3.4404     YZ      -9.2644     ZZ     -69.5486
    Octopole Moments (Debye-Ang^2)
       XXX     -20.2970    XXY     -41.3727    XYY      -2.9066
       YYY     -47.2038    XXZ      -1.2269    XYZ       5.1455
       YYZ     -38.1883    XZZ      15.3813    YZZ     -18.3799
       ZZZ     -90.6249
    Hexadecapole Moments (Debye-Ang^3)
      XXXX   -1174.7928   XXXY     -12.0072   XXYY    -254.4984
      XYYY       1.9764   YYYY    -695.8410   XXXZ     214.8992
      XXYZ     -19.3523   XYYZ      63.1102   YYYZ    -147.0440
      XXZZ    -273.6893   XYZZ      10.6934   YYZZ    -235.8781
      XZZZ     172.6687   YZZZ    -138.9782   ZZZZ    -562.8644
 -----------------------------------------------------------------
 Total job time:  3483.18s(wall), 26894.69s(cpu) 
 Thu Apr 20 22:47:14 2023

        *************************************************************
        *                                                           *
        *  Thank you very much for using Q-Chem.  Have a nice day.  *
        *                                                           *
        *************************************************************


