
Running Job 1 of 2 Q_in.in
qchem Q_in.in_222835.0 /scratch/ari.fischer/qChem2292581.hpc-mn1/qchem222835/ 0
/usr/local/qchem-5.4.1/exe/qcprog.exe_s Q_in.in_222835.0 /scratch/ari.fischer/qChem2292581.hpc-mn1/qchem222835/
                  Welcome to Q-Chem
     A Quantum Leap Into The Future Of Chemistry


 Q-Chem 5.4, Q-Chem, Inc., Pleasanton, CA (2021)

 License issued to: Nanyang Technological University (site)

 E. Epifanovsky,  A. T. B. Gilbert,  Xintian Feng,  Joonho Lee,  Yuezhi Mao,  
 N. Mardirossian,  P. Pokhilko,  A. White,  M. Wormit,  M. P. Coons,  
 A. L. Dempwolff,  Zhengting Gan,  D. Hait,  P. R. Horn,  L. D. Jacobson,  
 I. Kaliman,  J. Kussmann,  A. W. Lange,  Ka Un Lao,  D. S. Levine,  Jie Liu,  
 S. C. McKenzie,  A. F. Morrison,  K. Nanda,  F. Plasser,  D. R. Rehn,  
 M. L. Vidal,  Zhi-Qiang You,  Ying Zhu,  B. Alam,  B. Albrecht,  
 A. Aldossary,  E. Alguire,  J. H. Andersen,  D. Barton,  K. Begam,  A. Behn,  
 Y. A. Bernard,  E. J. Berquist,  H. Burton,  A. Carreras,  K. Carter-Fenk,  
 R. Chakraborty,  A. D. Chien,  K. D. Closser,  V. Cofer-Shabica,  
 S. Dasgupta,  Jia Deng,  M. de Wergifosse,  M. Diedenhofen,  Hainam Do,  
 S. Ehlert,  Po-Tung Fang,  S. Fatehi,  Qingguo Feng,  T. Friedhoff,  
 J. Gayvert,  Qinghui Ge,  G. Gidofalvi,  M. Goldey,  J. Gomes,  
 C. Gonzalez-Espinoza,  S. Gulania,  A. Gunina,  M. W. D. Hanson-Heine,  
 P. H. P. Harbach,  A. W. Hauser,  M. F. Herbst,  M. Hernandez Vera,  
 M. Hodecker,  Z. C. Holden,  S. Houck,  Xunkun Huang,  Kerwin Hui,  
 B. C. Huynh,  M. Ivanov,  Hyunjun Ji,  Hanjie Jiang,  B. Kaduk,  S. Kaehler,  
 K. Khistyaev,  Jaehoon Kim,  P. Klunzinger,  Z. Koczor-Benda,  
 Joong Hoon Koh,  D. Kosenkov,  L. Koulias,  T. Kowalczyk,  C. M. Krauter,  
 K. Kue,  A. Kunitsa,  T. Kus,  A. Landau,  K. V. Lawler,  D. Lefrancois,  
 S. Lehtola,  Rain Li,  Yi-Pei Li,  Jiashu Liang,  M. Liebenthal,  
 Hung-Hsuan Lin,  You-Sheng Lin,  Fenglai Liu,  Kuan-Yu Liu,  
 M. Loipersberger,  A. Luenser,  A. Manjanath,  P. Manohar,  E. Mansoor,  
 S. F. Manzer,  Shan-Ping Mao,  A. V. Marenich,  T. Markovich,  S. Mason,  
 S. A. Maurer,  P. F. McLaughlin,  M. F. S. J. Menger,  J.-M. Mewes,  
 S. A. Mewes,  P. Morgante,  J. W. Mullinax,  K. J. Oosterbaan,  G. Paran,  
 Alexander C. Paul,  Suranjan K. Paul,  F. Pavosevic,  Zheng Pei,  S. Prager,  
 E. I. Proynov,  E. Ramos,  B. Rana,  A. E. Rask,  A. Rettig,  R. M. Richard,  
 F. Rob,  E. Rossomme,  T. Scheele,  M. Scheurer,  M. Schneider,  
 N. Sergueev,  S. M. Sharada,  W. Skomorowski,  D. W. Small,  C. J. Stein,  
 Yu-Chuan Su,  E. J. Sundstrom,  Zhen Tao,  J. Thirman,  T. Tsuchimochi,  
 N. M. Tubman,  S. P. Veccham,  O. Vydrov,  J. Wenzel,  J. Witte,  A. Yamada,  
 Kun Yao,  S. Yeganeh,  S. R. Yost,  A. Zech,  Igor Ying Zhang,  Xing Zhang,  
 Yu Zhang,  D. Zuev,  A. Aspuru-Guzik,  A. T. Bell,  N. A. Besley,  
 K. B. Bravaya,  B. R. Brooks,  D. Casanova,  Jeng-Da Chai,  S. Coriani,  
 C. J. Cramer,  A. E. DePrince, III,  R. A. DiStasio Jr.,  A. Dreuw,  
 B. D. Dunietz,  T. R. Furlani,  W. A. Goddard III,  S. Grimme,  
 S. Hammes-Schiffer,  T. Head-Gordon,  W. J. Hehre,  Chao-Ping Hsu,  
 T.-C. Jagau,  Yousung Jung,  A. Klamt,  Jing Kong,  D. S. Lambrecht,  
 WanZhen Liang,  N. J. Mayhall,  C. W. McCurdy,  J. B. Neaton,  
 C. Ochsenfeld,  J. A. Parkhill,  R. Peverati,  V. A. Rassolov,  Yihan Shao,  
 L. V. Slipchenko,  T. Stauch,  R. P. Steele,  J. E. Subotnik,  
 A. J. W. Thom,  A. Tkatchenko,  D. G. Truhlar,  T. Van Voorhis,  
 T. A. Wesolowski,  K. B. Whaley,  H. L. Woodcock III,  P. M. Zimmerman,  
 S. Faraji,  P. M. W. Gill,  M. Head-Gordon,  J. M. Herbert,  A. I. Krylov

 Additional authors for Version 5.4.1: 
 S. Kotaru,  Shaozhi Li,  Xiangyuan Li,  F. Matz,  A. Molle,  Haisheng Ren,  
 Yingli Su,  Hung-Yi Tsai,  C. Utku,  Fang Wang

 Contributors to earlier versions of Q-Chem not listed above: 
 R. D. Adamson,  B. Austin,  R. Baer,  J. Baker,  G. J. O. Beran,  
 K. Brandhorst,  S. T. Brown,  E. F. C. Byrd,  A. K. Chakraborty,  
 G. K. L. Chan,  Chun-Min Chang,  Yunqing Chen,  C.-L. Cheng,  
 Siu Hung Chien,  D. M. Chipman,  D. L. Crittenden,  H. Dachsel,  
 R. J. Doerksen,  A. D. Dutoi,  R. G. Edgar,  J. Fosso-Tande,  
 L. Fusti-Molnar,  D. Ghosh,  A. Ghysels,  A. Golubeva-Zadorozhnaya,  
 J. Gonthier,  M. S. Gordon,  S. R. Gwaltney,  G. Hawkins,  J. E. Herr,  
 A. Heyden,  S. Hirata,  E. G. Hohenstein,  G. Kedziora,  F. J. Keil,  
 C. Kelley,  Jihan Kim,  R. A. King,  R. Z. Khaliullin,  P. P. Korambath,  
 W. Kurlancheek,  A. Laurent,  A. M. Lee,  M. S. Lee,  S. V. Levchenko,  
 Ching Yeh Lin,  D. Liotard,  E. Livshits,  R. C. Lochan,  I. Lotan,  
 L. A. Martinez-Martinez,  P. E. Maslen,  N. Nair,  D. P. O'Neill,  
 D. Neuhauser,  E. Neuscamman,  C. M. Oana,  R. Olivares-Amaya,  R. Olson,  
 T. M. Perrine,  B. Peters,  P. A. Pieniazek,  A. Prociuk,  Y. M. Rhee,  
 J. Ritchie,  M. A. Rohrdanz,  E. Rosta,  N. J. Russ,  H. F. Schaefer III,  
 M. W. Schmidt,  N. E. Schultz,  S. Sharma,  N. Shenvi,  C. D. Sherrill,  
 A. C. Simmonett,  A. Sodt,  T. Stein,  D. Stuck,  K. S. Thanthiriwatte,  
 V. Vanovschi,  L. Vogt,  Tao Wang,  A. Warshel,  M. A. Watson,  
 C. F. Williams,  Q. Wu,  X. Xu,  Jun Yang,  W. Zhang,  Yan Zhao

 Please cite Q-Chem as follows:
 Y. Shao et al., Mol. Phys. 113, 184-215 (2015)
 DOI: 10.1080/00268976.2014.952696

 Q-Chem 5.4.1 for Intel X86 EM64T Linux

 Parts of Q-Chem use Armadillo 9.800.1 (Horizon Scraper).
 http://arma.sourceforge.net/

 Q-Chem begins on Tue Aug 20 08:10:41 2024  

 Host: 
0

     Scratch files written to /scratch/ari.fischer/qChem2292581.hpc-mn1/qchem222835//
 Aug1521 |scratch|qcdevops|jenkins|workspace|build_RNUM 8249   
 Processing $rem in /usr/local/qchem-5.4.1/config/preferences:
 Processing $rem in /home/ari.fischer/.qchemrc:
 Symmetry turned off for PCM/SM12/SMD calculation


!!********************************************.
!!******************Warning*******************.
!!Desired Analytical derivatives not available.
!!Finite difference job might take a long time.
!!********************************************.
!!********************************************.


 2-order derivative to be evaluated numerically with 1-order analytical derivatives

 Checking the input file for inconsistencies... 	...done.

--------------------------------------------------------------
User input:
--------------------------------------------------------------
$molecule
-1 2
C    3.0668065   -0.6540984   -1.2162432
O    1.6805604   -0.4474499   -1.0862545
C    3.6048262   -1.0422883    0.1676851
O    3.1607479   -2.3383594    0.4285005
C    3.1789705   -0.0314236    1.2357673
C    3.9745185    0.0245967    2.5202699
O    5.2014294    0.2072315    2.5384199
H    3.5654247    0.2510971   -1.5587544
H    1.3678742   -0.0130564   -1.8878335
H    2.1361429   -0.2271509    1.4728735
H    3.2266620    0.9764536    0.8147034
H    3.3815758    0.2492292    3.4118253
O    3.3552303   -1.6481288   -2.1675475
H    3.0539699   -2.4943058   -1.8095099
O    5.0312860   -1.1948780    0.0724945
O    5.6453671    0.0877682   -0.0467014
H    3.3007827   -2.5157085    1.3761468
H    5.7150879    0.3207857    0.9133247
O    3.6429891   -1.9669703    3.0814148
O    2.5524674   -2.0301731    3.8029207
$end

$rem
BASIS = 6-311++G(2df,2p)
GUI = 2
JOB_TYPE = Frequency
METHOD = wB97M-V
SOLVENT_METHOD = SMD
SCF_ALGORITHM = DIIS_GDM
MAX_SCF_CYCLES = 400
SCF_CONVERGENCE = 7
THRESH = 12
$end

--------------------------------------------------------------
 ----------------------------------------------------------------
             Standard Nuclear Orientation (Angstroms)
    I     Atom           X                Y                Z
 ----------------------------------------------------------------
    1      C       3.0668065000    -0.6540984000    -1.2162432000
    2      O       1.6805604000    -0.4474499000    -1.0862545000
    3      C       3.6048262000    -1.0422883000     0.1676851000
    4      O       3.1607479000    -2.3383594000     0.4285005000
    5      C       3.1789705000    -0.0314236000     1.2357673000
    6      C       3.9745185000     0.0245967000     2.5202699000
    7      O       5.2014294000     0.2072315000     2.5384199000
    8      H       3.5654247000     0.2510971000    -1.5587544000
    9      H       1.3678742000    -0.0130564000    -1.8878335000
   10      H       2.1361429000    -0.2271509000     1.4728735000
   11      H       3.2266620000     0.9764536000     0.8147034000
   12      H       3.3815758000     0.2492292000     3.4118253000
   13      O       3.3552303000    -1.6481288000    -2.1675475000
   14      H       3.0539699000    -2.4943058000    -1.8095099000
   15      O       5.0312860000    -1.1948780000     0.0724945000
   16      O       5.6453671000     0.0877682000    -0.0467014000
   17      H       3.3007827000    -2.5157085000     1.3761468000
   18      H       5.7150879000     0.3207857000     0.9133247000
   19      O       3.6429891000    -1.9669703000     3.0814148000
   20      O       2.5524674000    -2.0301731000     3.8029207000
 ----------------------------------------------------------------
 Nuclear Repulsion Energy =         825.48868922 hartrees
 There are       49 alpha and       48 beta electrons
 Requested basis set is 6-311++G(2df,2p)
 There are 144 shells and 488 basis functions

 Total QAlloc Memory Limit 288000 MB
 Mega-Array Size       188 MB
 MEM_STATIC part       192 MB
 
 Citation of the SMD model:
 Marenich, A.V.; Cramer, C.J.; Truhlar, D.G.
 J. Phys. Chem. B 2009, 113, 6378-6396.
 iSolventCode=           1
 Solvent: water                                                           
 
 vradii
            1           2           3           4           5           6
    1   1.8500000   1.5200000   1.8500000   1.5200000   1.8500000   1.8500000
            7           8           9          10          11          12
    1   1.5200000   1.2000000   1.2000000   1.2000000   1.2000000   1.2000000
           13          14          15          16          17          18
    1   1.5200000   1.2000000   1.5200000   1.5200000   1.2000000   1.2000000
           19          20
    1   1.5200000   1.5200000
 Changing PCM_VDW_RADII to SMD_RADIUS
 Discretize the solute cavity surface with Lebedev spheres
	Using 110 Lebedev grid points for each H atom
	Using 194 Lebedev grid points for other atoms
	Atomic van der Waals radii will be scaled by 1.20
 Remove points where switching function is < 1.0e-08
 Keep 1565 surface tesserae and discard 1643 interior tesserae
 Molecular Surface Area = 176.069 Angst**2
 A cutoff of  1.0D-12 yielded   8997 shell pairs
 There are    102184 function pairs (    127652 Cartesian)
 Smallest overlap matrix eigenvalue = 5.32E-06
 Guess from superposition of atomic densities
 Warning:  Energy on first SCF cycle will be non-variational
 SAD guess density has 96.000000 electrons

 -----------------------------------------------------------------------
  General SCF calculation program by
  Eric Jon Sundstrom, Paul Horn, Yuezhi Mao, Dmitri Zuev, Alec White,
  David Stuck, Shaama M.S., Shane Yost, Joonho Lee, David Small,
  Daniel Levine, Susi Lehtola, Hugh Burton, Evgeny Epifanovsky,
  Bang C. Huynh
 -----------------------------------------------------------------------
 Exchange:     0.1500 Hartree-Fock + 1.0000 wB97M-V + LR-HF
 Correlation:  1.0000 wB97M-V
 Using SG-2 standard quadrature grid
 Nonlocal Correlation:  VV10 with C = 0.0100 and b = 6.00 and scale = 1.00000
 Grid used for NLC:  SG-1 standard quadrature
 using 16 threads for integral computing
 -------------------------------------------------------
 OpenMP Integral computing Module                
 Release: version 1.0, May 2013, Q-Chem Inc. Pittsburgh 
 -------------------------------------------------------
 
 Citation of the SMD model:
 Marenich, A.V.; Cramer, C.J.; Truhlar, D.G.
 J. Phys. Chem. B 2009, 113, 6378-6396.
 iSolventCode=           1
 Solvent: water                                                           
 
 vradii
            1           2           3           4           5           6
    1   1.8500000   1.5200000   1.8500000   1.5200000   1.8500000   1.8500000
            7           8           9          10          11          12
    1   1.5200000   1.2000000   1.2000000   1.2000000   1.2000000   1.2000000
           13          14          15          16          17          18
    1   1.5200000   1.2000000   1.5200000   1.5200000   1.2000000   1.2000000
           19          20
    1   1.5200000   1.5200000
 -------------------------------------------------------
 OpenMP BLAS3 based DFT computing Module                
 Release: version 1.0, May 2013, Q-Chem Inc. Pittsburgh 
 -------------------------------------------------------
 A unrestricted SCF calculation will be
 performed using DIIS, GDM
 SCF converges when RMS gradient is below 1.0e-07
 ---------------------------------------
  Cycle       Energy         DIIS error
 ---------------------------------------
    1    -760.7799449147      1.08e-02  
    2    -758.8031220327      1.56e-03  Done DIIS. Switching to GDM
 ---------------------------------------
  Cycle       Energy        RMS Gradient
 ---------------------------------------
    1    -758.8031220327      6.39e-02   Descent step
    2    -758.9918953320      2.14e-02   Normal BFGS step
    3    -759.0263595232      2.02e-02   Normal BFGS step
    4    -759.0285595977      2.25e-02   Normal BFGS step
    5    -759.0305781159      5.81e-03   Normal BFGS step
    6    -759.0306688774      2.16e-03   Normal BFGS step
    7    -759.0307456671      1.24e-03   Normal BFGS step
    8    -759.0307525421      9.10e-04   Normal BFGS step
    9    -759.0307567474      8.84e-04   Normal BFGS step
   10    -759.0307591517      8.38e-04   Normal BFGS step
   11    -759.0307609158      7.66e-04   Normal BFGS step
   12    -759.0307640387      6.09e-04   Normal BFGS step
   13    -759.0307675156      7.34e-04   Normal BFGS step
   14    -759.0307711445      6.57e-04   Normal BFGS step
   15    -759.0307734234      3.20e-04   Normal BFGS step
   16    -759.0307742583      1.98e-04   Normal BFGS step
   17    -759.0307744024      8.01e-05   Normal BFGS step
   18    -759.0307744333      4.35e-05   Normal BFGS step
   19    -759.0307744404      2.04e-05   Normal BFGS step
   20    -759.0307744421      5.55e-06   Normal BFGS step
   21    -759.0307744426      1.79e-06   Normal BFGS step
   22    -759.0307744426      9.15e-07   Normal BFGS step
   23    -759.0307744427      3.01e-07   Normal BFGS step
   24    -759.0307744427      1.30e-07   Normal BFGS step
   25    -759.0307744427      9.49e-08  Convergence criterion met
 ---------------------------------------
 SCF time:   CPU 3886.87s  wall 268.00s 
<S^2> =          0.755492242
(3)  G-ENP(liq) elect-nuc-pol free energy of system     -759.030774443 a.u.
(4)  G-CDS(liq) cavity-dispersion-solvent structure 
     free energy                                                3.3380 kcal/mol
(6)  G-S(liq) free energy of system                     -759.025454931 a.u.
 SCF   energy in the final basis set =     -759.0254549309
 Total energy in the final basis set =     -759.0254549309
 
 --------------------------------------------------------------
 
                    Orbital Energies (a.u.)
 --------------------------------------------------------------
 
 Alpha MOs
 -- Occupied --
-19.3958 -19.3794 -19.3714 -19.3648 -19.3492 -19.3456 -19.3443 -19.3169
-10.4617 -10.4446 -10.4387 -10.3443  -1.2699  -1.2563  -1.2075  -1.1746
 -1.1628  -1.1350  -1.0247  -0.9031  -0.8916  -0.8282  -0.7420  -0.7037
 -0.6858  -0.6461  -0.6329  -0.6151  -0.5899  -0.5770  -0.5684  -0.5641
 -0.5556  -0.5483  -0.5341  -0.5255  -0.5142  -0.4934  -0.4755  -0.4652
 -0.4483  -0.4355  -0.4277  -0.4092  -0.3995  -0.3855  -0.3609  -0.3452
 -0.3139
 -- Virtual --
  0.0297   0.0425   0.0450   0.0501   0.0664   0.0718   0.0724   0.0759
  0.0861   0.0990   0.1115   0.1199   0.1231   0.1349   0.1404   0.1435
  0.1514   0.1582   0.1627   0.1718   0.1739   0.1841   0.1894   0.1969
  0.2019   0.2076   0.2174   0.2236   0.2389   0.2460   0.2483   0.2650
  0.2680   0.2782   0.2805   0.2874   0.2924   0.2941   0.2997   0.3025
  0.3064   0.3166   0.3245   0.3274   0.3397   0.3414   0.3442   0.3521
  0.3565   0.3601   0.3656   0.3735   0.3799   0.3815   0.3834   0.3896
  0.3934   0.4035   0.4084   0.4132   0.4136   0.4200   0.4280   0.4424
  0.4520   0.4605   0.4685   0.4764   0.4786   0.4837   0.4868   0.5011
  0.5239   0.5376   0.5602   0.5711   0.6049   0.6194   0.6317   0.6370
  0.6533   0.6618   0.6625   0.6815   0.6925   0.6967   0.7008   0.7131
  0.7422   0.7483   0.7568   0.7701   0.7780   0.7864   0.7934   0.8025
  0.8243   0.8426   0.8712   0.8856   0.9106   0.9180   0.9513   0.9741
  0.9825   0.9894   1.0111   1.0426   1.0576   1.0668   1.0758   1.0864
  1.0926   1.1178   1.1239   1.1367   1.1449   1.1545   1.1652   1.1760
  1.1835   1.1869   1.1987   1.2062   1.2132   1.2242   1.2295   1.2328
  1.2406   1.2520   1.2577   1.2608   1.2726   1.2873   1.2914   1.3001
  1.3078   1.3119   1.3302   1.3348   1.3507   1.3641   1.3724   1.3859
  1.4049   1.4113   1.4268   1.4350   1.4472   1.4603   1.4810   1.4968
  1.5012   1.5179   1.5225   1.5318   1.5406   1.5550   1.5827   1.5954
  1.6118   1.6185   1.6344   1.6418   1.6483   1.6724   1.6885   1.6925
  1.7054   1.7179   1.7333   1.7520   1.7884   1.7927   1.8215   1.8271
  1.8519   1.8684   1.8940   1.9159   1.9418   1.9464   1.9577   2.0010
  2.0242   2.0359   2.0632   2.0860   2.1139   2.1401   2.1722   2.1827
  2.2178   2.2320   2.2433   2.2571   2.2751   2.3534   2.3685   2.3778
  2.3876   2.3940   2.4056   2.4433   2.4602   2.4702   2.4943   2.5118
  2.5259   2.5564   2.5781   2.6193   2.6409   2.7073   2.7163   2.7284
  2.7496   2.7934   2.7997   2.8466   2.8640   2.8864   2.9020   2.9629
  2.9950   3.0319   3.0543   3.0628   3.1102   3.1140   3.1827   3.1865
  3.2081   3.2420   3.2606   3.2661   3.2990   3.3182   3.3584   3.3926
  3.4084   3.4296   3.4353   3.4552   3.4857   3.5055   3.5134   3.5383
  3.5724   3.5782   3.6288   3.6628   3.6643   3.6880   3.7010   3.7166
  3.7290   3.7615   3.7747   3.7796   3.8322   3.8418   3.8534   3.8734
  3.8858   3.8893   3.8932   3.9248   3.9616   3.9699   3.9923   4.0253
  4.0417   4.0655   4.0838   4.1233   4.1491   4.1579   4.1634   4.2194
  4.2252   4.2419   4.2848   4.2912   4.2972   4.3210   4.3441   4.3904
  4.4000   4.4151   4.4301   4.4410   4.4737   4.5094   4.5578   4.5629
  4.5823   4.6265   4.6450   4.6782   4.6902   4.7349   4.7667   4.7727
  4.7893   4.8247   4.8412   4.8864   4.9068   4.9205   5.0088   5.0623
  5.1003   5.1053   5.1239   5.1387   5.1842   5.1965   5.2165   5.2342
  5.2367   5.2470   5.2484   5.2506   5.2677   5.2799   5.2866   5.2958
  5.3049   5.3273   5.3315   5.3428   5.3538   5.3635   5.3769   5.3904
  5.3974   5.4060   5.4185   5.4268   5.4511   5.4631   5.4752   5.5006
  5.5123   5.5472   5.5530   5.5644   5.5932   5.6103   5.6216   5.6231
  5.6380   5.6489   5.6671   5.6766   5.6786   5.7142   5.7166   5.7582
  5.7967   5.8359   5.8438   5.8637   5.9111   5.9859   6.0352   6.0690
  6.0916   6.1425   6.1627   6.2726   6.3243   6.4950   6.5143   6.5334
  6.5770   6.6126   6.7558   6.8404   6.8488   6.8727   6.8845   6.9727
  7.0020   7.0329   7.0462   7.0753   7.0961   7.1108   7.1244   7.1402
  7.1559   7.1654   7.1891   7.2363   7.2646   7.2798   7.3018   7.3107
  7.3248   7.3411   7.3603   7.4053   7.4279   7.4413   7.4443   7.4654
  7.4789   7.5044   7.5242   7.5275   7.5714   7.6006   7.6637   7.6680
  7.7113   7.7898   7.8371   7.8619   7.8752   7.9012   7.9303   8.0020
  8.0391   8.1065   8.2223  24.6607  24.7839  24.8527  24.9525  50.4710
 50.5186  50.5691  50.5981  50.6322  50.6565  50.6933  50.7707
 
 Beta MOs
 -- Occupied --
-19.3959 -19.3794 -19.3584 -19.3489 -19.3487 -19.3456 -19.3443 -19.3172
-10.4617 -10.4446 -10.4388 -10.3444  -1.2697  -1.2277  -1.2074  -1.1740
 -1.1630  -1.1350  -1.0246  -0.9003  -0.8558  -0.8249  -0.7415  -0.7028
 -0.6857  -0.6459  -0.6321  -0.6134  -0.5894  -0.5736  -0.5668  -0.5530
 -0.5475  -0.5301  -0.5226  -0.5164  -0.4906  -0.4770  -0.4688  -0.4532
 -0.4477  -0.4349  -0.4275  -0.4092  -0.3993  -0.3851  -0.3593  -0.2945
 -- Virtual --
  0.0116   0.0298   0.0427   0.0454   0.0503   0.0673   0.0721   0.0728
  0.0766   0.0872   0.0994   0.1122   0.1207   0.1235   0.1352   0.1406
  0.1445   0.1520   0.1586   0.1630   0.1724   0.1743   0.1848   0.1898
  0.1979   0.2026   0.2095   0.2183   0.2240   0.2403   0.2476   0.2498
  0.2656   0.2697   0.2792   0.2824   0.2908   0.2937   0.2964   0.3010
  0.3041   0.3074   0.3180   0.3250   0.3283   0.3427   0.3435   0.3452
  0.3527   0.3574   0.3615   0.3670   0.3755   0.3806   0.3830   0.3847
  0.3917   0.3966   0.4040   0.4089   0.4142   0.4144   0.4214   0.4289
  0.4425   0.4526   0.4607   0.4688   0.4771   0.4798   0.4842   0.4874
  0.5011   0.5240   0.5381   0.5609   0.5712   0.6053   0.6198   0.6324
  0.6373   0.6537   0.6627   0.6629   0.6821   0.6930   0.6976   0.7009
  0.7135   0.7426   0.7485   0.7572   0.7705   0.7783   0.7868   0.7938
  0.8028   0.8256   0.8431   0.8715   0.8859   0.9108   0.9187   0.9518
  0.9750   0.9832   0.9903   1.0116   1.0429   1.0582   1.0684   1.0767
  1.0889   1.0956   1.1231   1.1253   1.1376   1.1484   1.1583   1.1687
  1.1785   1.1870   1.1899   1.2002   1.2087   1.2150   1.2255   1.2322
  1.2406   1.2443   1.2552   1.2591   1.2643   1.2751   1.2903   1.2973
  1.3015   1.3106   1.3166   1.3325   1.3369   1.3578   1.3684   1.3755
  1.3881   1.4055   1.4148   1.4304   1.4361   1.4493   1.4607   1.4845
  1.4979   1.5026   1.5207   1.5242   1.5358   1.5439   1.5584   1.5862
  1.5973   1.6138   1.6246   1.6386   1.6448   1.6512   1.6773   1.6921
  1.7052   1.7132   1.7289   1.7397   1.7539   1.7907   1.7949   1.8247
  1.8282   1.8541   1.8722   1.8949   1.9190   1.9425   1.9529   1.9584
  2.0016   2.0255   2.0374   2.0657   2.0863   2.1166   2.1411   2.1744
  2.1845   2.2217   2.2361   2.2462   2.2616   2.2786   2.3626   2.3754
  2.3866   2.3900   2.3974   2.4120   2.4449   2.4608   2.4719   2.4950
  2.5122   2.5267   2.5568   2.5782   2.6195   2.6414   2.7074   2.7180
  2.7299   2.7570   2.7943   2.7998   2.8467   2.8641   2.8866   2.9022
  2.9631   2.9953   3.0319   3.0543   3.0629   3.1102   3.1139   3.1828
  3.1866   3.2083   3.2420   3.2605   3.2663   3.2990   3.3181   3.3584
  3.3927   3.4082   3.4295   3.4354   3.4551   3.4856   3.5057   3.5134
  3.5383   3.5725   3.5781   3.6287   3.6628   3.6643   3.6880   3.7009
  3.7165   3.7291   3.7615   3.7749   3.7794   3.8323   3.8418   3.8534
  3.8734   3.8859   3.8895   3.8935   3.9249   3.9616   3.9700   3.9926
  4.0254   4.0419   4.0656   4.0839   4.1236   4.1493   4.1580   4.1634
  4.2195   4.2254   4.2420   4.2850   4.2913   4.2973   4.3210   4.3441
  4.3906   4.4002   4.4153   4.4313   4.4420   4.4740   4.5103   4.5589
  4.5633   4.5872   4.6374   4.6623   4.6806   4.6975   4.7373   4.7685
  4.7767   4.8059   4.8291   4.8610   4.8980   4.9093   4.9250   5.0094
  5.0624   5.1076   5.1427   5.1661   5.1938   5.2043   5.2155   5.2176
  5.2354   5.2447   5.2495   5.2628   5.2710   5.2744   5.2974   5.2993
  5.3076   5.3207   5.3330   5.3437   5.3539   5.3587   5.3666   5.3784
  5.3989   5.4011   5.4180   5.4274   5.4321   5.4593   5.4691   5.4763
  5.5009   5.5148   5.5476   5.5532   5.5649   5.5941   5.6120   5.6229
  5.6242   5.6519   5.6639   5.6759   5.6782   5.6929   5.7144   5.7179
  5.7588   5.7969   5.8360   5.8438   5.8638   5.9113   5.9861   6.0357
  6.0691   6.0916   6.1428   6.1628   6.2727   6.3243   6.5106   6.5426
  6.5466   6.5781   6.6131   6.7561   6.8423   6.8774   6.9205   6.9536
  6.9782   7.0365   7.0457   7.0827   7.0941   7.1056   7.1174   7.1315
  7.1437   7.1602   7.1894   7.2077   7.2373   7.2670   7.2800   7.3061
  7.3178   7.3261   7.3508   7.3661   7.4140   7.4327   7.4448   7.4529
  7.4768   7.4902   7.5192   7.5319   7.5365   7.5765   7.6018   7.6638
  7.6683   7.7118   7.7905   7.8372   7.8624   7.8762   7.9020   7.9313
  8.0196   8.0393   8.1245   8.2223  24.6607  24.7839  24.8527  24.9524
 50.4827  50.5186  50.5786  50.5988  50.6322  50.6566  50.6935  50.7705
 --------------------------------------------------------------
 
          Ground-State Mulliken Net Atomic Charges

     Atom                 Charge (a.u.)    Spin (a.u.)
  --------------------------------------------------------
      1 C                    -0.074554       0.002561
      2 O                    -0.422006      -0.000121
      3 C                     0.161044       0.006558
      4 O                    -0.415392       0.002138
      5 C                    -0.462316      -0.000640
      6 C                    -0.127954      -0.006803
      7 O                    -0.516947      -0.008413
      8 H                     0.298439       0.000124
      9 H                     0.339038       0.000054
     10 H                     0.281131      -0.000527
     11 H                     0.303541      -0.000936
     12 H                     0.253990      -0.001140
     13 O                    -0.464125      -0.000037
     14 H                     0.349814      -0.000063
     15 O                    -0.200624       0.000889
     16 O                    -0.323368      -0.000238
     17 H                     0.325884       0.007081
     18 H                     0.343588       0.000102
     19 O                    -0.193657       0.424825
     20 O                    -0.455526       0.574585
  --------------------------------------------------------
  Sum of atomic charges =    -1.000000
  Sum of spin   charges =     1.000000

 -----------------------------------------------------------------
                    Cartesian Multipole Moments
 -----------------------------------------------------------------
    Charge (ESU x 10^10)
                -4.8032
    Dipole Moment (Debye)
         X     -21.6382      Y       9.7321      Z     -10.6810
       Tot      26.0194
    Quadrupole Moments (Debye-Ang)
        XX    -181.5429     XY      31.8376     YY     -87.8321
        XZ     -34.1678     YZ      17.8990     ZZ    -116.5281
    Octopole Moments (Debye-Ang^2)
       XXX   -1372.2036    XXY     185.1037    XYY    -316.2371
       YYY     223.8787    XXZ    -193.4818    XYZ      48.2511
       YYZ    -104.6359    XZZ    -430.8667    YZZ     154.5860
       ZZZ    -321.1846
    Hexadecapole Moments (Debye-Ang^3)
      XXXX   -9531.0818   XXXY    1138.1734   XXYY   -1398.7135
      XYYY     735.2323   YYYY    -836.2323   XXXZ   -1309.8987
      XXYZ     186.6068   XYYZ    -360.6435   YYYZ     296.6343
      XXZZ   -2053.8657   XYZZ     465.9723   YYZZ    -605.4827
      XZZZ   -1147.8440   YZZZ     445.2444   ZZZZ   -2378.0673
 -----------------------------------------------------------------
 Calculating analytic gradient of the SCF energy
 Gradient of CDS energy
            1           2           3           4           5           6
    1  -0.0013416   0.0021342  -0.0011137   0.0011892  -0.0001377   0.0019553
    2  -0.0015257  -0.0005021  -0.0033733   0.0036076   0.0000252   0.0009136
    3  -0.0020328  -0.0000445   0.0006556  -0.0007680  -0.0001116   0.0006046
            7           8           9          10          11          12
    1  -0.0014361   0.0002035  -0.0004407  -0.0001464   0.0000395  -0.0002525
    2  -0.0004082   0.0000833   0.0002011  -0.0001380   0.0000541  -0.0002855
    3   0.0000504   0.0000937  -0.0001833   0.0000228  -0.0001795   0.0000326
           13          14          15          16          17          18
    1  -0.0005466  -0.0000550  -0.0000288  -0.0001684  -0.0000251   0.0002887
    2   0.0021037  -0.0004429   0.0000267  -0.0001779  -0.0003930   0.0001894
    3   0.0020972  -0.0002151  -0.0000524  -0.0001508   0.0000900  -0.0000060
           19          20
    1  -0.0001488   0.0000310
    2   0.0000406   0.0000013
    3   0.0000198   0.0000773
 Gradient of SCF Energy
            1           2           3           4           5           6
    1  -0.0005750  -0.0152820   0.0447432  -0.0024809  -0.0624614   0.0217240
    2   0.0343501  -0.0005945  -0.0243363  -0.0154823   0.0299470   0.0137732
    3  -0.0106617   0.0004247  -0.0066164   0.0300475  -0.0081082   0.0498894
            7           8           9          10          11          12
    1  -0.0194562  -0.0163058   0.0058499   0.0281192  -0.0041266   0.0139539
    2  -0.0085735  -0.0175140  -0.0013134   0.0102853  -0.0173996  -0.0011816
    3   0.0007006   0.0060458   0.0034413  -0.0041956   0.0077073  -0.0306312
           13          14          15          16          17          18
    1   0.0027151   0.0027464  -0.0019437   0.0020753   0.0009274  -0.0010598
    2  -0.0214097   0.0193793  -0.0192837   0.0170527   0.0115415   0.0002045
    3   0.0021740  -0.0083560   0.0069672   0.0211540  -0.0334240  -0.0232870
           19          20
    1   0.0068995  -0.0060626
    2  -0.0066084  -0.0028367
    3  -0.0137061   0.0104345
 Max gradient component =       6.246E-02
 RMS gradient           =       1.879E-02
 Computing fast CPCM-SWIG gradient
 Updating gradient with PCM contributions...
 -- total gradient after adding PCM contribution --
---------------------------------------------------
  Atom         X              Y              Z     
---------------------------------------------------
   1      -0.000004       0.000009       0.000000
   2      -0.000005      -0.000000       0.000006
   3       0.000004       0.000017       0.000006
   4       0.000010      -0.000008       0.000046
   5      -0.000001      -0.000018       0.000017
   6       0.000016      -0.000007      -0.000020
   7       0.000002      -0.000002       0.000001
   8      -0.000009       0.000008       0.000004
   9      -0.000009       0.000003       0.000008
  10      -0.000002      -0.000004       0.000004
  11      -0.000007      -0.000002       0.000006
  12      -0.000007      -0.000011       0.000002
  13      -0.000005       0.000010      -0.000003
  14      -0.000000       0.000007      -0.000006
  15       0.000002       0.000007      -0.000001
  16      -0.000005       0.000008      -0.000010
  17       0.000003       0.000005      -0.000023
  18      -0.000004       0.000003       0.000001
  19       0.000011      -0.000012      -0.000047
  20       0.000009      -0.000012       0.000007
---------------------------------------------------
 Number of fixed atoms: 0
 Gradient time:  CPU 435.21 s  wall 36.06 s
 ######################################################
 ######################################################
 # Starting finite difference calculation for IDERIV  #
 Finite diff step size:  1.88973e-03 a.u.
 ----------------------------------------------------------------
             Standard Nuclear Orientation (Angstroms)
    I     Atom           X                Y                Z
 ----------------------------------------------------------------
    1      C       3.0678065000    -0.6540984000    -1.2162432000
    2      O       1.6805604000    -0.4474499000    -1.0862545000
    3      C       3.6048262000    -1.0422883000     0.1676851000
    4      O       3.1607479000    -2.3383594000     0.4285005000
    5      C       3.1789705000    -0.0314236000     1.2357673000
    6      C       3.9745185000     0.0245967000     2.5202699000
    7      O       5.2014294000     0.2072315000     2.5384199000
    8      H       3.5654247000     0.2510971000    -1.5587544000
    9      H       1.3678742000    -0.0130564000    -1.8878335000
   10      H       2.1361429000    -0.2271509000     1.4728735000
   11      H       3.2266620000     0.9764536000     0.8147034000
   12      H       3.3815758000     0.2492292000     3.4118253000
   13      O       3.3552303000    -1.6481288000    -2.1675475000
   14      H       3.0539699000    -2.4943058000    -1.8095099000
   15      O       5.0312860000    -1.1948780000     0.0724945000
   16      O       5.6453671000     0.0877682000    -0.0467014000
   17      H       3.3007827000    -2.5157085000     1.3761468000
   18      H       5.7150879000     0.3207857000     0.9133247000
   19      O       3.6429891000    -1.9669703000     3.0814148000
   20      O       2.5524674000    -2.0301731000     3.8029207000
 ----------------------------------------------------------------
 Nuclear Repulsion Energy =         825.48962052 hartrees
 There are       49 alpha and       48 beta electrons
 Discretize the solute cavity surface with Lebedev spheres
	Using 110 Lebedev grid points for each H atom
	Using 194 Lebedev grid points for other atoms
	Atomic van der Waals radii will be scaled by 1.20
 Remove points where switching function is < 1.0e-08
 Keep 1566 surface tesserae and discard 1642 interior tesserae
 Molecular Surface Area = 176.069 Angst**2
 Requested basis set is 6-311++G(2df,2p)
 There are 144 shells and 488 basis functions
 A cutoff of  1.0D-12 yielded   8997 shell pairs
 There are    102184 function pairs (    127652 Cartesian)
 Smallest overlap matrix eigenvalue = 5.32E-06
 Guess MOs from SCF MO coefficient file

 -----------------------------------------------------------------------
  General SCF calculation program by
  Eric Jon Sundstrom, Paul Horn, Yuezhi Mao, Dmitri Zuev, Alec White,
  David Stuck, Shaama M.S., Shane Yost, Joonho Lee, David Small,
  Daniel Levine, Susi Lehtola, Hugh Burton, Evgeny Epifanovsky,
  Bang C. Huynh
 -----------------------------------------------------------------------
 Exchange:     0.1500 Hartree-Fock + 1.0000 wB97M-V + LR-HF
 Correlation:  1.0000 wB97M-V
 Using SG-2 standard quadrature grid
 Nonlocal Correlation:  VV10 with C = 0.0100 and b = 6.00 and scale = 1.00000
 Grid used for NLC:  SG-1 standard quadrature
 
 Citation of the SMD model:
 Marenich, A.V.; Cramer, C.J.; Truhlar, D.G.
 J. Phys. Chem. B 2009, 113, 6378-6396.
 iSolventCode=           1
 Solvent: water                                                           
 
 vradii
            1           2           3           4           5           6
    1   1.8500000   1.5200000   1.8500000   1.5200000   1.8500000   1.8500000
            7           8           9          10          11          12
    1   1.5200000   1.2000000   1.2000000   1.2000000   1.2000000   1.2000000
           13          14          15          16          17          18
    1   1.5200000   1.2000000   1.5200000   1.5200000   1.2000000   1.2000000
           19          20
    1   1.5200000   1.5200000
 -------------------------------------------------------
 OpenMP BLAS3 based DFT computing Module                
 Release: version 1.0, May 2013, Q-Chem Inc. Pittsburgh 
 -------------------------------------------------------
 A unrestricted SCF calculation will be
 performed using Roothaan-Hall, DIIS, GDM
 SCF converges when RMS gradient is below 1.0e-07
 ---------------------------------------
  Cycle       Energy         DIIS error
 ---------------------------------------
    1    -758.9104903447      2.12e-04  Roothaan Step
 ---------------------------------------
  Cycle       Energy         DIIS error
 ---------------------------------------
    1    -759.0204185918      2.29e-04  
    2    -759.0279398185      1.80e-04  Done DIIS. Switching to GDM
 ---------------------------------------
  Cycle       Energy        RMS Gradient
 ---------------------------------------
    1    -759.0279398185      5.39e-03   Normal BFGS step
    2    -759.0277500631      9.81e-03  Line search: overstep
    3    -759.0304702771      1.90e-03   Normal BFGS step
    4    -759.0307082735      2.33e-03   Normal BFGS step
    5    -759.0307611951      6.49e-04   Normal BFGS step
    6    -759.0307693823      3.71e-04   Normal BFGS step
    7    -759.0307703884      4.97e-04   Normal BFGS step
    8    -759.0307708531      8.58e-05   Normal BFGS step
    9    -759.0307709651      1.11e-04   Normal BFGS step
   10    -759.0307710172      3.72e-05   Normal BFGS step
   11    -759.0307710277      2.09e-05   Normal BFGS step
   12    -759.0307710315      1.82e-05   Normal BFGS step
   13    -759.0307710325      1.70e-05   Normal BFGS step
   14    -759.0307710331      1.60e-05   Normal BFGS step
   15    -759.0307710339      1.40e-05   Normal BFGS step
   16    -759.0307710355      1.12e-05   Normal BFGS step
   17    -759.0307710371      1.23e-05   Normal BFGS step
   18    -759.0307710382      8.30e-06   Normal BFGS step
   19    -759.0307710387      4.83e-06   Normal BFGS step
   20    -759.0307710388      1.97e-06   Normal BFGS step
   21    -759.0307710388      7.52e-07   Normal BFGS step
   22    -759.0307710388      2.83e-07   Normal BFGS step
   23    -759.0307710388      1.10e-07   Normal BFGS step
   24    -759.0307710389      3.92e-08  Convergence criterion met
 ---------------------------------------
 SCF time:   CPU 3834.88s  wall 264.00s 
<S^2> =          0.755492254
(3)  G-ENP(liq) elect-nuc-pol free energy of system     -759.030771039 a.u.
(4)  G-CDS(liq) cavity-dispersion-solvent structure 
     free energy                                                3.3366 kcal/mol
(6)  G-S(liq) free energy of system                     -759.025453858 a.u.
 SCF   energy in the final basis set =     -759.0254538579
 Total energy in the final basis set =     -759.0254538579
 
 --------------------------------------------------------------
 
                    Orbital Energies (a.u.)
 --------------------------------------------------------------
 
 Alpha MOs
 -- Occupied --
-19.3958 -19.3794 -19.3714 -19.3648 -19.3492 -19.3455 -19.3444 -19.3169
-10.4617 -10.4446 -10.4387 -10.3444  -1.2699  -1.2563  -1.2074  -1.1746
 -1.1628  -1.1349  -1.0247  -0.9032  -0.8916  -0.8283  -0.7421  -0.7037
 -0.6857  -0.6459  -0.6330  -0.6151  -0.5899  -0.5770  -0.5684  -0.5641
 -0.5556  -0.5482  -0.5341  -0.5255  -0.5142  -0.4934  -0.4755  -0.4652
 -0.4483  -0.4355  -0.4277  -0.4091  -0.3995  -0.3856  -0.3609  -0.3452
 -0.3139
 -- Virtual --
  0.0297   0.0425   0.0450   0.0501   0.0664   0.0718   0.0724   0.0759
  0.0861   0.0990   0.1115   0.1199   0.1231   0.1349   0.1404   0.1436
  0.1514   0.1582   0.1627   0.1718   0.1739   0.1841   0.1894   0.1969
  0.2019   0.2076   0.2174   0.2235   0.2389   0.2460   0.2483   0.2650
  0.2680   0.2782   0.2805   0.2873   0.2924   0.2941   0.2996   0.3025
  0.3064   0.3166   0.3244   0.3273   0.3397   0.3414   0.3442   0.3521
  0.3565   0.3601   0.3655   0.3735   0.3799   0.3815   0.3834   0.3896
  0.3934   0.4035   0.4083   0.4132   0.4136   0.4200   0.4280   0.4425
  0.4519   0.4605   0.4685   0.4764   0.4787   0.4837   0.4868   0.5011
  0.5238   0.5376   0.5602   0.5712   0.6049   0.6194   0.6317   0.6370
  0.6533   0.6618   0.6625   0.6815   0.6925   0.6967   0.7009   0.7131
  0.7422   0.7484   0.7568   0.7701   0.7781   0.7865   0.7934   0.8025
  0.8243   0.8426   0.8712   0.8857   0.9105   0.9180   0.9513   0.9741
  0.9825   0.9893   1.0111   1.0426   1.0576   1.0669   1.0758   1.0864
  1.0926   1.1178   1.1240   1.1367   1.1449   1.1545   1.1652   1.1760
  1.1836   1.1869   1.1987   1.2062   1.2132   1.2242   1.2295   1.2328
  1.2405   1.2520   1.2577   1.2608   1.2727   1.2873   1.2914   1.3001
  1.3078   1.3119   1.3302   1.3348   1.3508   1.3641   1.3725   1.3860
  1.4050   1.4112   1.4268   1.4350   1.4472   1.4603   1.4810   1.4967
  1.5012   1.5180   1.5225   1.5318   1.5406   1.5551   1.5827   1.5955
  1.6118   1.6185   1.6344   1.6419   1.6483   1.6724   1.6885   1.6925
  1.7055   1.7179   1.7333   1.7520   1.7883   1.7928   1.8216   1.8272
  1.8520   1.8684   1.8940   1.9159   1.9418   1.9464   1.9576   2.0009
  2.0242   2.0359   2.0631   2.0859   2.1139   2.1401   2.1721   2.1826
  2.2178   2.2319   2.2433   2.2571   2.2750   2.3533   2.3683   2.3777
  2.3874   2.3939   2.4055   2.4432   2.4602   2.4702   2.4944   2.5118
  2.5259   2.5563   2.5780   2.6193   2.6408   2.7073   2.7163   2.7285
  2.7496   2.7934   2.7997   2.8464   2.8641   2.8864   2.9019   2.9629
  2.9949   3.0319   3.0543   3.0628   3.1102   3.1141   3.1827   3.1865
  3.2080   3.2422   3.2606   3.2660   3.2990   3.3183   3.3581   3.3926
  3.4084   3.4295   3.4353   3.4551   3.4857   3.5054   3.5134   3.5383
  3.5722   3.5782   3.6287   3.6628   3.6643   3.6880   3.7010   3.7166
  3.7289   3.7616   3.7749   3.7797   3.8323   3.8419   3.8534   3.8735
  3.8858   3.8894   3.8933   3.9247   3.9614   3.9698   3.9923   4.0253
  4.0417   4.0657   4.0839   4.1234   4.1490   4.1578   4.1637   4.2194
  4.2252   4.2419   4.2848   4.2914   4.2972   4.3211   4.3443   4.3904
  4.4001   4.4154   4.4302   4.4412   4.4737   4.5095   4.5581   4.5629
  4.5826   4.6266   4.6450   4.6783   4.6902   4.7350   4.7667   4.7727
  4.7893   4.8247   4.8413   4.8864   4.9068   4.9206   5.0088   5.0623
  5.1003   5.1054   5.1239   5.1387   5.1842   5.1965   5.2164   5.2342
  5.2367   5.2470   5.2484   5.2506   5.2677   5.2799   5.2866   5.2958
  5.3050   5.3273   5.3315   5.3428   5.3537   5.3635   5.3771   5.3904
  5.3974   5.4061   5.4185   5.4270   5.4511   5.4630   5.4751   5.5006
  5.5124   5.5471   5.5529   5.5644   5.5932   5.6103   5.6216   5.6232
  5.6380   5.6489   5.6670   5.6767   5.6785   5.7139   5.7166   5.7582
  5.7964   5.8358   5.8439   5.8637   5.9108   5.9858   6.0349   6.0691
  6.0916   6.1419   6.1612   6.2725   6.3243   6.4950   6.5142   6.5334
  6.5766   6.6125   6.7550   6.8403   6.8488   6.8727   6.8845   6.9727
  7.0020   7.0329   7.0462   7.0753   7.0961   7.1107   7.1244   7.1402
  7.1559   7.1654   7.1891   7.2362   7.2646   7.2798   7.3018   7.3107
  7.3247   7.3411   7.3602   7.4053   7.4278   7.4413   7.4442   7.4654
  7.4788   7.5044   7.5242   7.5275   7.5713   7.6007   7.6638   7.6680
  7.7112   7.7897   7.8371   7.8618   7.8752   7.9011   7.9303   8.0020
  8.0390   8.1065   8.2223  24.6607  24.7837  24.8528  24.9525  50.4710
 50.5186  50.5691  50.5981  50.6319  50.6565  50.6932  50.7707
 
 Beta MOs
 -- Occupied --
-19.3958 -19.3794 -19.3584 -19.3489 -19.3487 -19.3455 -19.3444 -19.3172
-10.4617 -10.4446 -10.4388 -10.3444  -1.2697  -1.2277  -1.2073  -1.1740
 -1.1630  -1.1349  -1.0246  -0.9003  -0.8558  -0.8250  -0.7415  -0.7028
 -0.6856  -0.6458  -0.6321  -0.6134  -0.5894  -0.5736  -0.5668  -0.5530
 -0.5475  -0.5301  -0.5226  -0.5164  -0.4906  -0.4770  -0.4688  -0.4532
 -0.4477  -0.4349  -0.4275  -0.4091  -0.3993  -0.3852  -0.3593  -0.2945
 -- Virtual --
  0.0116   0.0298   0.0427   0.0454   0.0503   0.0673   0.0721   0.0728
  0.0766   0.0872   0.0994   0.1122   0.1207   0.1235   0.1352   0.1406
  0.1445   0.1520   0.1586   0.1630   0.1724   0.1743   0.1848   0.1898
  0.1979   0.2025   0.2095   0.2183   0.2239   0.2403   0.2476   0.2498
  0.2656   0.2697   0.2792   0.2823   0.2908   0.2937   0.2964   0.3010
  0.3041   0.3074   0.3180   0.3250   0.3282   0.3427   0.3435   0.3452
  0.3528   0.3574   0.3615   0.3669   0.3756   0.3806   0.3830   0.3847
  0.3917   0.3966   0.4040   0.4089   0.4142   0.4144   0.4215   0.4289
  0.4425   0.4525   0.4607   0.4688   0.4771   0.4798   0.4842   0.4874
  0.5011   0.5240   0.5381   0.5609   0.5713   0.6053   0.6198   0.6324
  0.6373   0.6536   0.6627   0.6628   0.6821   0.6929   0.6976   0.7010
  0.7135   0.7426   0.7486   0.7572   0.7705   0.7783   0.7868   0.7938
  0.8028   0.8256   0.8431   0.8715   0.8859   0.9108   0.9186   0.9518
  0.9750   0.9832   0.9903   1.0116   1.0429   1.0582   1.0685   1.0766
  1.0889   1.0956   1.1231   1.1253   1.1377   1.1484   1.1583   1.1687
  1.1785   1.1870   1.1899   1.2002   1.2087   1.2150   1.2255   1.2322
  1.2406   1.2443   1.2552   1.2591   1.2643   1.2752   1.2903   1.2974
  1.3014   1.3107   1.3166   1.3325   1.3369   1.3578   1.3684   1.3756
  1.3882   1.4055   1.4147   1.4303   1.4361   1.4493   1.4608   1.4845
  1.4979   1.5026   1.5207   1.5243   1.5358   1.5440   1.5585   1.5862
  1.5973   1.6138   1.6246   1.6387   1.6449   1.6512   1.6773   1.6921
  1.7053   1.7133   1.7289   1.7397   1.7538   1.7906   1.7950   1.8248
  1.8282   1.8541   1.8722   1.8949   1.9190   1.9424   1.9529   1.9583
  2.0014   2.0255   2.0374   2.0656   2.0863   2.1166   2.1411   2.1743
  2.1844   2.2216   2.2361   2.2462   2.2615   2.2785   2.3624   2.3753
  2.3864   2.3899   2.3974   2.4120   2.4448   2.4608   2.4719   2.4950
  2.5122   2.5267   2.5567   2.5781   2.6195   2.6414   2.7074   2.7180
  2.7300   2.7570   2.7942   2.7998   2.8465   2.8642   2.8865   2.9020
  2.9630   2.9952   3.0319   3.0543   3.0628   3.1102   3.1140   3.1828
  3.1866   3.2082   3.2423   3.2605   3.2662   3.2990   3.3181   3.3582
  3.3927   3.4083   3.4295   3.4354   3.4551   3.4856   3.5056   3.5134
  3.5384   3.5723   3.5781   3.6286   3.6628   3.6643   3.6880   3.7009
  3.7166   3.7289   3.7615   3.7751   3.7795   3.8324   3.8418   3.8535
  3.8735   3.8859   3.8896   3.8936   3.9248   3.9614   3.9699   3.9925
  4.0254   4.0419   4.0657   4.0839   4.1236   4.1492   4.1579   4.1636
  4.2195   4.2254   4.2420   4.2850   4.2914   4.2972   4.3211   4.3443
  4.3906   4.4003   4.4156   4.4313   4.4423   4.4740   4.5104   4.5592
  4.5633   4.5875   4.6375   4.6624   4.6807   4.6975   4.7373   4.7685
  4.7767   4.8059   4.8291   4.8611   4.8980   4.9094   4.9251   5.0094
  5.0624   5.1078   5.1427   5.1661   5.1938   5.2043   5.2154   5.2176
  5.2354   5.2448   5.2495   5.2628   5.2710   5.2743   5.2974   5.2993
  5.3076   5.3207   5.3330   5.3438   5.3538   5.3587   5.3666   5.3786
  5.3990   5.4011   5.4181   5.4275   5.4322   5.4593   5.4691   5.4763
  5.5009   5.5149   5.5475   5.5531   5.5649   5.5941   5.6120   5.6230
  5.6242   5.6519   5.6639   5.6759   5.6782   5.6929   5.7141   5.7180
  5.7588   5.7966   5.8359   5.8438   5.8639   5.9111   5.9860   6.0354
  6.0692   6.0916   6.1423   6.1612   6.2727   6.3243   6.5106   6.5426
  6.5465   6.5777   6.6130   6.7553   6.8423   6.8774   6.9205   6.9536
  6.9782   7.0365   7.0457   7.0827   7.0941   7.1056   7.1173   7.1315
  7.1437   7.1602   7.1893   7.2077   7.2373   7.2670   7.2800   7.3061
  7.3178   7.3260   7.3508   7.3661   7.4139   7.4326   7.4448   7.4529
  7.4767   7.4902   7.5192   7.5319   7.5364   7.5765   7.6019   7.6639
  7.6682   7.7117   7.7904   7.8372   7.8623   7.8762   7.9019   7.9313
  8.0196   8.0393   8.1245   8.2223  24.6607  24.7837  24.8528  24.9524
 50.4827  50.5186  50.5786  50.5988  50.6320  50.6566  50.6934  50.7705
 --------------------------------------------------------------
 
          Ground-State Mulliken Net Atomic Charges

     Atom                 Charge (a.u.)    Spin (a.u.)
  --------------------------------------------------------
      1 C                    -0.074607       0.002561
      2 O                    -0.422544      -0.000121
      3 C                     0.160888       0.006559
      4 O                    -0.415392       0.002137
      5 C                    -0.462214      -0.000640
      6 C                    -0.127926      -0.006803
      7 O                    -0.516939      -0.008414
      8 H                     0.298797       0.000125
      9 H                     0.338981       0.000054
     10 H                     0.281132      -0.000527
     11 H                     0.303523      -0.000936
     12 H                     0.253998      -0.001140
     13 O                    -0.463967      -0.000036
     14 H                     0.349885      -0.000063
     15 O                    -0.200621       0.000889
     16 O                    -0.323304      -0.000238
     17 H                     0.325890       0.007081
     18 H                     0.343590       0.000102
     19 O                    -0.193660       0.424818
     20 O                    -0.455510       0.574593
  --------------------------------------------------------
  Sum of atomic charges =    -1.000000
  Sum of spin   charges =     1.000000

 -----------------------------------------------------------------
                    Cartesian Multipole Moments
 -----------------------------------------------------------------
    Charge (ESU x 10^10)
                -4.8032
    Dipole Moment (Debye)
         X     -21.6313      Y       9.7305      Z     -10.6813
       Tot      26.0132
    Quadrupole Moments (Debye-Ang)
        XX    -181.5076     XY      31.8302     YY     -87.8259
        XZ     -34.1774     YZ      17.9014     ZZ    -116.5213
    Octopole Moments (Debye-Ang^2)
       XXX   -1372.0672    XXY     185.0764    XYY    -316.2177
       YYY     223.8616    XXZ    -193.5297    XYZ      48.2620
       YYZ    -104.6432    XZZ    -430.8351    YZZ     154.5745
       ZZZ    -321.1915
    Hexadecapole Moments (Debye-Ang^3)
      XXXX   -9530.6420   XXXY    1138.0883   XXYY   -1398.6572
      XYYY     735.1866   YYYY    -836.1772   XXXZ   -1310.0811
      XXYZ     186.6493   XYYZ    -360.6657   YYYZ     296.6529
      XXZZ   -2053.7449   XYZZ     465.9378   YYZZ    -605.4478
      XZZZ   -1147.8728   YZZZ     445.2654   ZZZZ   -2377.9872
 -----------------------------------------------------------------
 Calculating analytic gradient of the SCF energy
 Gradient of CDS energy
            1           2           3           4           5           6
    1  -0.0011249   0.0019296  -0.0011137   0.0011890  -0.0001378   0.0019553
    2  -0.0015940  -0.0004704  -0.0033733   0.0036077   0.0000252   0.0009136
    3  -0.0020872  -0.0000251   0.0006556  -0.0007681  -0.0001117   0.0006046
            7           8           9          10          11          12
    1  -0.0014361   0.0002018  -0.0004413  -0.0001466   0.0000394  -0.0002525
    2  -0.0004082   0.0000842   0.0002013  -0.0001380   0.0000541  -0.0002855
    3   0.0000504   0.0000944  -0.0001832   0.0000227  -0.0001796   0.0000326
           13          14          15          16          17          18
    1  -0.0005556  -0.0000552  -0.0000288  -0.0001684  -0.0000251   0.0002887
    2   0.0021391  -0.0004428   0.0000267  -0.0001778  -0.0003930   0.0001894
    3   0.0021313  -0.0002149  -0.0000523  -0.0001507   0.0000900  -0.0000060
           19          20
    1  -0.0001488   0.0000310
    2   0.0000406   0.0000013
    3   0.0000198   0.0000773
 Gradient of SCF Energy
            1           2           3           4           5           6
    1   0.0004236  -0.0158764   0.0446803  -0.0024863  -0.0624639   0.0217210
    2   0.0344182  -0.0005188  -0.0243247  -0.0154837   0.0299477   0.0137764
    3  -0.0107001   0.0004138  -0.0067061   0.0300641  -0.0080847   0.0498825
            7           8           9          10          11          12
    1  -0.0194548  -0.0164620   0.0058147   0.0281266  -0.0041212   0.0139545
    2  -0.0085728  -0.0177144  -0.0013140   0.0102869  -0.0174013  -0.0011817
    3   0.0007013   0.0061177   0.0034608  -0.0041933   0.0077047  -0.0306292
           13          14          15          16          17          18
    1   0.0025960   0.0027573  -0.0019978   0.0020785   0.0009332  -0.0010588
    2  -0.0213635   0.0193632  -0.0192689   0.0170537   0.0115370   0.0002048
    3   0.0022407  -0.0083747   0.0069269   0.0211566  -0.0334250  -0.0232854
           19          20
    1   0.0068988  -0.0060633
    2  -0.0066084  -0.0028358
    3  -0.0137051   0.0104346
 Max gradient component =       6.246E-02
 RMS gradient           =       1.880E-02
 Computing fast CPCM-SWIG gradient
 Updating gradient with PCM contributions...
 -- total gradient after adding PCM contribution --
---------------------------------------------------
  Atom         X              Y              Z     
---------------------------------------------------
   1       0.001139       0.000111      -0.000036
   2      -0.000601       0.000054       0.000007
   3      -0.000132       0.000038      -0.000069
   4       0.000018      -0.000029       0.000080
   5       0.000014      -0.000024       0.000029
   6       0.000007      -0.000003      -0.000020
   7       0.000004      -0.000002       0.000001
   8      -0.000196      -0.000176       0.000074
   9      -0.000055       0.000008       0.000018
  10      -0.000004      -0.000004       0.000005
  11      -0.000005      -0.000002       0.000004
  12      -0.000006      -0.000012       0.000004
  13      -0.000137       0.000034       0.000055
  14       0.000003      -0.000011      -0.000028
  15      -0.000066       0.000031      -0.000051
  16      -0.000002       0.000009      -0.000010
  17       0.000003      -0.000002      -0.000027
  18      -0.000005       0.000003       0.000001
  19       0.000012      -0.000012      -0.000045
  20       0.000009      -0.000012       0.000007
---------------------------------------------------
 Number of fixed atoms: 0
 Gradient time:  CPU 433.87 s  wall 36.13 s
 ----------------------------------------------------------------
             Standard Nuclear Orientation (Angstroms)
    I     Atom           X                Y                Z
 ----------------------------------------------------------------
    1      C       3.0658065000    -0.6540984000    -1.2162432000
    2      O       1.6805604000    -0.4474499000    -1.0862545000
    3      C       3.6048262000    -1.0422883000     0.1676851000
    4      O       3.1607479000    -2.3383594000     0.4285005000
    5      C       3.1789705000    -0.0314236000     1.2357673000
    6      C       3.9745185000     0.0245967000     2.5202699000
    7      O       5.2014294000     0.2072315000     2.5384199000
    8      H       3.5654247000     0.2510971000    -1.5587544000
    9      H       1.3678742000    -0.0130564000    -1.8878335000
   10      H       2.1361429000    -0.2271509000     1.4728735000
   11      H       3.2266620000     0.9764536000     0.8147034000
   12      H       3.3815758000     0.2492292000     3.4118253000
   13      O       3.3552303000    -1.6481288000    -2.1675475000
   14      H       3.0539699000    -2.4943058000    -1.8095099000
   15      O       5.0312860000    -1.1948780000     0.0724945000
   16      O       5.6453671000     0.0877682000    -0.0467014000
   17      H       3.3007827000    -2.5157085000     1.3761468000
   18      H       5.7150879000     0.3207857000     0.9133247000
   19      O       3.6429891000    -1.9669703000     3.0814148000
   20      O       2.5524674000    -2.0301731000     3.8029207000
 ----------------------------------------------------------------
 Nuclear Repulsion Energy =         825.48776214 hartrees
 There are       49 alpha and       48 beta electrons
 Discretize the solute cavity surface with Lebedev spheres
	Using 110 Lebedev grid points for each H atom
	Using 194 Lebedev grid points for other atoms
	Atomic van der Waals radii will be scaled by 1.20
 Remove points where switching function is < 1.0e-08
 Keep 1564 surface tesserae and discard 1644 interior tesserae
 Molecular Surface Area = 176.069 Angst**2
 Requested basis set is 6-311++G(2df,2p)
 There are 144 shells and 488 basis functions
 A cutoff of  1.0D-12 yielded   8997 shell pairs
 There are    102184 function pairs (    127652 Cartesian)
 Smallest overlap matrix eigenvalue = 5.32E-06
 Guess MOs from SCF MO coefficient file

 -----------------------------------------------------------------------
  General SCF calculation program by
  Eric Jon Sundstrom, Paul Horn, Yuezhi Mao, Dmitri Zuev, Alec White,
  David Stuck, Shaama M.S., Shane Yost, Joonho Lee, David Small,
  Daniel Levine, Susi Lehtola, Hugh Burton, Evgeny Epifanovsky,
  Bang C. Huynh
 -----------------------------------------------------------------------
 Exchange:     0.1500 Hartree-Fock + 1.0000 wB97M-V + LR-HF
 Correlation:  1.0000 wB97M-V
 Using SG-2 standard quadrature grid
 Nonlocal Correlation:  VV10 with C = 0.0100 and b = 6.00 and scale = 1.00000
 Grid used for NLC:  SG-1 standard quadrature
 
 Citation of the SMD model:
 Marenich, A.V.; Cramer, C.J.; Truhlar, D.G.
 J. Phys. Chem. B 2009, 113, 6378-6396.
 iSolventCode=           1
 Solvent: water                                                           
 
 vradii
            1           2           3           4           5           6
    1   1.8500000   1.5200000   1.8500000   1.5200000   1.8500000   1.8500000
            7           8           9          10          11          12
    1   1.5200000   1.2000000   1.2000000   1.2000000   1.2000000   1.2000000
           13          14          15          16          17          18
    1   1.5200000   1.2000000   1.5200000   1.5200000   1.2000000   1.2000000
           19          20
    1   1.5200000   1.5200000
 -------------------------------------------------------
 OpenMP BLAS3 based DFT computing Module                
 Release: version 1.0, May 2013, Q-Chem Inc. Pittsburgh 
 -------------------------------------------------------
 A unrestricted SCF calculation will be
 performed using Roothaan-Hall, DIIS, GDM
 SCF converges when RMS gradient is below 1.0e-07
 ---------------------------------------
  Cycle       Energy         DIIS error
 ---------------------------------------
    1    -758.9104951101      2.12e-04  Roothaan Step
 ---------------------------------------
  Cycle       Energy         DIIS error
 ---------------------------------------
    1    -759.0204302483      2.28e-04  
    2    -759.0279538656      1.79e-04  Done DIIS. Switching to GDM
 ---------------------------------------
  Cycle       Energy        RMS Gradient
 ---------------------------------------
    1    -759.0279538656      5.40e-03   Normal BFGS step
    2    -759.0277654043      9.78e-03  Line search: overstep
    3    -759.0304752665      1.90e-03   Normal BFGS step
    4    -759.0307133901      2.33e-03   Normal BFGS step
    5    -759.0307662725      6.49e-04   Normal BFGS step
    6    -759.0307744391      3.72e-04   Normal BFGS step
    7    -759.0307754412      4.98e-04   Normal BFGS step
    8    -759.0307759067      8.53e-05   Normal BFGS step
    9    -759.0307760188      1.11e-04   Normal BFGS step
   10    -759.0307760709      3.68e-05   Normal BFGS step
   11    -759.0307760814      2.10e-05   Normal BFGS step
   12    -759.0307760851      1.86e-05   Normal BFGS step
   13    -759.0307760861      1.75e-05   Normal BFGS step
   14    -759.0307760868      1.64e-05   Normal BFGS step
   15    -759.0307760877      1.43e-05   Normal BFGS step
   16    -759.0307760893      1.16e-05   Normal BFGS step
   17    -759.0307760910      1.26e-05   Normal BFGS step
   18    -759.0307760922      8.33e-06   Normal BFGS step
   19    -759.0307760927      4.87e-06   Normal BFGS step
   20    -759.0307760928      1.97e-06   Normal BFGS step
   21    -759.0307760928      7.65e-07   Normal BFGS step
   22    -759.0307760928      2.88e-07   Normal BFGS step
   23    -759.0307760928      1.08e-07   Normal BFGS step
   24    -759.0307760929      3.81e-08  Convergence criterion met
 ---------------------------------------
 SCF time:   CPU 3833.59s  wall 264.00s 
<S^2> =          0.755492225
(3)  G-ENP(liq) elect-nuc-pol free energy of system     -759.030776093 a.u.
(4)  G-CDS(liq) cavity-dispersion-solvent structure 
     free energy                                                3.3398 kcal/mol
(6)  G-S(liq) free energy of system                     -759.025453843 a.u.
 SCF   energy in the final basis set =     -759.0254538433
 Total energy in the final basis set =     -759.0254538433
 
 --------------------------------------------------------------
 
                    Orbital Energies (a.u.)
 --------------------------------------------------------------
 
 Alpha MOs
 -- Occupied --
-19.3959 -19.3794 -19.3714 -19.3648 -19.3492 -19.3457 -19.3443 -19.3169
-10.4617 -10.4446 -10.4387 -10.3443  -1.2699  -1.2563  -1.2076  -1.1747
 -1.1628  -1.1351  -1.0247  -0.9031  -0.8916  -0.8281  -0.7419  -0.7037
 -0.6858  -0.6462  -0.6329  -0.6151  -0.5899  -0.5770  -0.5684  -0.5641
 -0.5556  -0.5483  -0.5341  -0.5255  -0.5142  -0.4934  -0.4755  -0.4652
 -0.4482  -0.4355  -0.4276  -0.4092  -0.3995  -0.3855  -0.3609  -0.3452
 -0.3139
 -- Virtual --
  0.0297   0.0425   0.0450   0.0501   0.0664   0.0718   0.0724   0.0759
  0.0861   0.0990   0.1115   0.1199   0.1231   0.1349   0.1404   0.1435
  0.1514   0.1582   0.1627   0.1718   0.1739   0.1841   0.1894   0.1969
  0.2019   0.2077   0.2174   0.2236   0.2389   0.2460   0.2483   0.2650
  0.2680   0.2782   0.2805   0.2874   0.2924   0.2941   0.2997   0.3024
  0.3064   0.3166   0.3245   0.3274   0.3397   0.3414   0.3442   0.3521
  0.3565   0.3601   0.3656   0.3735   0.3799   0.3815   0.3834   0.3896
  0.3933   0.4035   0.4084   0.4132   0.4136   0.4200   0.4280   0.4424
  0.4521   0.4605   0.4685   0.4764   0.4786   0.4837   0.4868   0.5011
  0.5239   0.5376   0.5602   0.5710   0.6049   0.6194   0.6317   0.6370
  0.6533   0.6619   0.6625   0.6815   0.6925   0.6968   0.7008   0.7131
  0.7423   0.7483   0.7567   0.7701   0.7780   0.7864   0.7934   0.8025
  0.8243   0.8426   0.8712   0.8856   0.9106   0.9180   0.9513   0.9741
  0.9825   0.9894   1.0112   1.0426   1.0576   1.0668   1.0759   1.0864
  1.0926   1.1178   1.1239   1.1367   1.1449   1.1545   1.1652   1.1760
  1.1834   1.1869   1.1987   1.2062   1.2132   1.2242   1.2296   1.2328
  1.2406   1.2520   1.2578   1.2608   1.2726   1.2874   1.2914   1.3001
  1.3077   1.3119   1.3302   1.3348   1.3507   1.3641   1.3724   1.3858
  1.4049   1.4113   1.4269   1.4350   1.4472   1.4603   1.4810   1.4968
  1.5011   1.5179   1.5225   1.5317   1.5406   1.5549   1.5827   1.5954
  1.6118   1.6185   1.6343   1.6417   1.6482   1.6723   1.6885   1.6925
  1.7053   1.7179   1.7332   1.7520   1.7884   1.7927   1.8214   1.8271
  1.8519   1.8684   1.8940   1.9159   1.9418   1.9464   1.9577   2.0012
  2.0242   2.0359   2.0633   2.0860   2.1139   2.1402   2.1722   2.1828
  2.2179   2.2320   2.2434   2.2572   2.2752   2.3534   2.3686   2.3778
  2.3878   2.3941   2.4056   2.4434   2.4602   2.4703   2.4943   2.5118
  2.5260   2.5566   2.5782   2.6194   2.6409   2.7073   2.7163   2.7284
  2.7497   2.7935   2.7997   2.8469   2.8639   2.8864   2.9022   2.9629
  2.9950   3.0318   3.0542   3.0628   3.1102   3.1139   3.1827   3.1865
  3.2081   3.2417   3.2606   3.2661   3.2989   3.3182   3.3586   3.3926
  3.4083   3.4296   3.4353   3.4552   3.4856   3.5056   3.5134   3.5382
  3.5726   3.5783   3.6289   3.6627   3.6643   3.6880   3.7010   3.7165
  3.7292   3.7615   3.7746   3.7794   3.8322   3.8418   3.8533   3.8734
  3.8858   3.8892   3.8932   3.9248   3.9618   3.9700   3.9924   4.0253
  4.0416   4.0653   4.0838   4.1233   4.1492   4.1579   4.1632   4.2194
  4.2252   4.2420   4.2847   4.2911   4.2973   4.3209   4.3438   4.3904
  4.3999   4.4148   4.4301   4.4407   4.4737   4.5092   4.5575   4.5629
  4.5820   4.6264   4.6449   4.6781   4.6902   4.7349   4.7666   4.7726
  4.7893   4.8247   4.8412   4.8864   4.9067   4.9205   5.0088   5.0623
  5.1003   5.1052   5.1238   5.1387   5.1842   5.1965   5.2165   5.2342
  5.2366   5.2470   5.2484   5.2506   5.2678   5.2799   5.2866   5.2958
  5.3048   5.3272   5.3315   5.3428   5.3539   5.3635   5.3767   5.3903
  5.3974   5.4059   5.4185   5.4265   5.4511   5.4632   5.4752   5.5006
  5.5121   5.5473   5.5531   5.5644   5.5932   5.6103   5.6216   5.6231
  5.6380   5.6490   5.6671   5.6765   5.6787   5.7145   5.7165   5.7582
  5.7970   5.8360   5.8438   5.8636   5.9113   5.9860   6.0354   6.0689
  6.0916   6.1430   6.1643   6.2726   6.3243   6.4950   6.5143   6.5334
  6.5774   6.6126   6.7566   6.8404   6.8488   6.8727   6.8845   6.9726
  7.0020   7.0329   7.0462   7.0752   7.0961   7.1108   7.1244   7.1402
  7.1559   7.1654   7.1891   7.2363   7.2646   7.2799   7.3018   7.3106
  7.3249   7.3411   7.3603   7.4054   7.4280   7.4413   7.4443   7.4655
  7.4789   7.5044   7.5242   7.5276   7.5714   7.6006   7.6636   7.6681
  7.7114   7.7899   7.8371   7.8620   7.8752   7.9013   7.9304   8.0020
  8.0391   8.1065   8.2222  24.6608  24.7842  24.8526  24.9525  50.4710
 50.5186  50.5691  50.5981  50.6324  50.6564  50.6933  50.7707
 
 Beta MOs
 -- Occupied --
-19.3959 -19.3794 -19.3584 -19.3488 -19.3487 -19.3457 -19.3443 -19.3172
-10.4617 -10.4446 -10.4388 -10.3443  -1.2697  -1.2277  -1.2075  -1.1740
 -1.1630  -1.1351  -1.0246  -0.9003  -0.8558  -0.8249  -0.7414  -0.7028
 -0.6857  -0.6460  -0.6320  -0.6134  -0.5894  -0.5735  -0.5668  -0.5530
 -0.5476  -0.5302  -0.5225  -0.5164  -0.4906  -0.4770  -0.4688  -0.4532
 -0.4477  -0.4349  -0.4275  -0.4092  -0.3993  -0.3851  -0.3593  -0.2945
 -- Virtual --
  0.0116   0.0298   0.0427   0.0454   0.0503   0.0673   0.0721   0.0728
  0.0766   0.0872   0.0994   0.1122   0.1207   0.1235   0.1352   0.1406
  0.1445   0.1520   0.1585   0.1630   0.1724   0.1743   0.1848   0.1898
  0.1979   0.2026   0.2095   0.2183   0.2240   0.2403   0.2476   0.2498
  0.2656   0.2697   0.2792   0.2824   0.2908   0.2937   0.2964   0.3011
  0.3040   0.3074   0.3181   0.3250   0.3283   0.3427   0.3435   0.3452
  0.3527   0.3573   0.3614   0.3670   0.3755   0.3806   0.3830   0.3847
  0.3917   0.3966   0.4041   0.4089   0.4142   0.4144   0.4214   0.4289
  0.4425   0.4527   0.4607   0.4688   0.4771   0.4798   0.4842   0.4874
  0.5011   0.5241   0.5381   0.5609   0.5712   0.6052   0.6198   0.6324
  0.6373   0.6537   0.6627   0.6629   0.6821   0.6930   0.6976   0.7009
  0.7135   0.7427   0.7485   0.7572   0.7705   0.7783   0.7868   0.7938
  0.8028   0.8256   0.8432   0.8715   0.8859   0.9109   0.9187   0.9518
  0.9750   0.9832   0.9904   1.0116   1.0429   1.0582   1.0684   1.0768
  1.0889   1.0956   1.1231   1.1252   1.1376   1.1484   1.1583   1.1687
  1.1785   1.1870   1.1899   1.2002   1.2086   1.2150   1.2255   1.2323
  1.2406   1.2444   1.2552   1.2591   1.2643   1.2751   1.2903   1.2973
  1.3015   1.3105   1.3165   1.3325   1.3369   1.3578   1.3684   1.3755
  1.3881   1.4054   1.4149   1.4304   1.4360   1.4493   1.4607   1.4845
  1.4979   1.5026   1.5207   1.5242   1.5358   1.5438   1.5584   1.5862
  1.5973   1.6138   1.6246   1.6385   1.6448   1.6511   1.6773   1.6921
  1.7052   1.7132   1.7290   1.7396   1.7539   1.7907   1.7948   1.8246
  1.8282   1.8540   1.8722   1.8949   1.9190   1.9425   1.9529   1.9585
  2.0017   2.0255   2.0374   2.0658   2.0863   2.1166   2.1412   2.1744
  2.1845   2.2217   2.2362   2.2462   2.2616   2.2787   2.3627   2.3754
  2.3868   2.3901   2.3975   2.4121   2.4450   2.4608   2.4719   2.4950
  2.5122   2.5267   2.5569   2.5783   2.6195   2.6414   2.7074   2.7180
  2.7299   2.7570   2.7943   2.7998   2.8470   2.8640   2.8866   2.9023
  2.9631   2.9953   3.0318   3.0542   3.0629   3.1102   3.1138   3.1828
  3.1866   3.2083   3.2417   3.2605   3.2663   3.2990   3.3180   3.3587
  3.3927   3.4082   3.4296   3.4354   3.4552   3.4856   3.5057   3.5134
  3.5383   3.5727   3.5782   3.6288   3.6628   3.6643   3.6880   3.7009
  3.7164   3.7292   3.7614   3.7748   3.7793   3.8322   3.8417   3.8534
  3.8734   3.8859   3.8894   3.8935   3.9250   3.9618   3.9701   3.9926
  4.0254   4.0418   4.0654   4.0838   4.1236   4.1494   4.1580   4.1632
  4.2195   4.2254   4.2421   4.2849   4.2912   4.2974   4.3210   4.3438
  4.3905   4.4001   4.4151   4.4313   4.4417   4.4740   4.5101   4.5586
  4.5633   4.5870   4.6372   4.6623   4.6805   4.6974   4.7373   4.7684
  4.7767   4.8059   4.8291   4.8609   4.8980   4.9092   4.9250   5.0094
  5.0623   5.1074   5.1427   5.1661   5.1938   5.2043   5.2155   5.2177
  5.2355   5.2447   5.2495   5.2628   5.2710   5.2744   5.2974   5.2993
  5.3075   5.3207   5.3330   5.3437   5.3539   5.3588   5.3666   5.3781
  5.3988   5.4011   5.4179   5.4273   5.4320   5.4594   5.4692   5.4764
  5.5009   5.5146   5.5477   5.5533   5.5649   5.5941   5.6120   5.6229
  5.6241   5.6519   5.6639   5.6759   5.6783   5.6929   5.7147   5.7179
  5.7588   5.7973   5.8361   5.8438   5.8637   5.9116   5.9862   6.0359
  6.0690   6.0916   6.1433   6.1644   6.2727   6.3243   6.5107   6.5427
  6.5466   6.5784   6.6131   6.7570   6.8423   6.8773   6.9205   6.9536
  6.9782   7.0365   7.0457   7.0827   7.0941   7.1056   7.1174   7.1315
  7.1437   7.1602   7.1894   7.2077   7.2374   7.2671   7.2801   7.3061
  7.3178   7.3263   7.3508   7.3661   7.4140   7.4328   7.4449   7.4529
  7.4768   7.4903   7.5192   7.5319   7.5365   7.5765   7.6018   7.6637
  7.6683   7.7119   7.7905   7.8372   7.8625   7.8762   7.9022   7.9314
  8.0196   8.0393   8.1245   8.2223  24.6607  24.7842  24.8526  24.9524
 50.4827  50.5186  50.5786  50.5988  50.6324  50.6565  50.6936  50.7705
 --------------------------------------------------------------
 
          Ground-State Mulliken Net Atomic Charges

     Atom                 Charge (a.u.)    Spin (a.u.)
  --------------------------------------------------------
      1 C                    -0.074502       0.002562
      2 O                    -0.421468      -0.000120
      3 C                     0.161203       0.006556
      4 O                    -0.415392       0.002138
      5 C                    -0.462418      -0.000640
      6 C                    -0.127981      -0.006801
      7 O                    -0.516956      -0.008413
      8 H                     0.298082       0.000124
      9 H                     0.339095       0.000054
     10 H                     0.281129      -0.000527
     11 H                     0.303558      -0.000936
     12 H                     0.253983      -0.001140
     13 O                    -0.464282      -0.000037
     14 H                     0.349742      -0.000063
     15 O                    -0.200627       0.000889
     16 O                    -0.323433      -0.000238
     17 H                     0.325879       0.007081
     18 H                     0.343587       0.000102
     19 O                    -0.193654       0.424832
     20 O                    -0.455543       0.574578
  --------------------------------------------------------
  Sum of atomic charges =    -1.000000
  Sum of spin   charges =     1.000000

 -----------------------------------------------------------------
                    Cartesian Multipole Moments
 -----------------------------------------------------------------
    Charge (ESU x 10^10)
                -4.8032
    Dipole Moment (Debye)
         X     -21.6451      Y       9.7338      Z     -10.6807
       Tot      26.0256
    Quadrupole Moments (Debye-Ang)
        XX    -181.5783     XY      31.8449     YY     -87.8382
        XZ     -34.1582     YZ      17.8965     ZZ    -116.5349
    Octopole Moments (Debye-Ang^2)
       XXX   -1372.3401    XXY     185.1310    XYY    -316.2565
       YYY     223.8957    XXZ    -193.4338    XYZ      48.2401
       YYZ    -104.6285    XZZ    -430.8984    YZZ     154.5975
       ZZZ    -321.1776
    Hexadecapole Moments (Debye-Ang^3)
      XXXX   -9531.5215   XXXY    1138.2583   XXYY   -1398.7699
      XYYY     735.2780   YYYY    -836.2874   XXXZ   -1309.7160
      XXYZ     186.5643   XYYZ    -360.6213   YYYZ     296.6155
      XXZZ   -2053.9867   XYZZ     466.0068   YYZZ    -605.5177
      XZZZ   -1147.8150   YZZZ     445.2233   ZZZZ   -2378.1475
 -----------------------------------------------------------------
 Calculating analytic gradient of the SCF energy
 Gradient of CDS energy
            1           2           3           4           5           6
    1  -0.0015553   0.0023354  -0.0011137   0.0011894  -0.0001377   0.0019553
    2  -0.0014573  -0.0005333  -0.0033733   0.0036076   0.0000251   0.0009136
    3  -0.0019783  -0.0000636   0.0006556  -0.0007679  -0.0001116   0.0006046
            7           8           9          10          11          12
    1  -0.0014361   0.0002052  -0.0004400  -0.0001461   0.0000396  -0.0002525
    2  -0.0004082   0.0000824   0.0002009  -0.0001380   0.0000540  -0.0002855
    3   0.0000504   0.0000931  -0.0001835   0.0000231  -0.0001793   0.0000326
           13          14          15          16          17          18
    1  -0.0005374  -0.0000548  -0.0000288  -0.0001684  -0.0000251   0.0002887
    2   0.0020679  -0.0004430   0.0000266  -0.0001779  -0.0003930   0.0001894
    3   0.0020627  -0.0002153  -0.0000526  -0.0001509   0.0000900  -0.0000060
           19          20
    1  -0.0001488   0.0000310
    2   0.0000406   0.0000013
    3   0.0000198   0.0000773
 Gradient of SCF Energy
            1           2           3           4           5           6
    1  -0.0015742  -0.0146879   0.0448063  -0.0024755  -0.0624589   0.0217270
    2   0.0342831  -0.0006702  -0.0243478  -0.0154810   0.0299464   0.0137701
    3  -0.0106231   0.0004357  -0.0065268   0.0300311  -0.0081318   0.0498963
            7           8           9          10          11          12
    1  -0.0194575  -0.0161494   0.0058853   0.0281118  -0.0041320   0.0139533
    2  -0.0085742  -0.0173143  -0.0013129   0.0102838  -0.0173979  -0.0011814
    3   0.0006998   0.0059741   0.0034219  -0.0041979   0.0077099  -0.0306333
           13          14          15          16          17          18
    1   0.0028346   0.0027356  -0.0018897   0.0020720   0.0009217  -0.0010608
    2  -0.0214563   0.0193953  -0.0192985   0.0170517   0.0115459   0.0002042
    3   0.0021069  -0.0083374   0.0070074   0.0211515  -0.0334230  -0.0232885
           19          20
    1   0.0069002  -0.0060619
    2  -0.0066083  -0.0028376
    3  -0.0137070   0.0104345
 Max gradient component =       6.246E-02
 RMS gradient           =       1.878E-02
 Computing fast CPCM-SWIG gradient
 Updating gradient with PCM contributions...
 -- total gradient after adding PCM contribution --
---------------------------------------------------
  Atom         X              Y              Z     
---------------------------------------------------
   1      -0.001147      -0.000093       0.000037
   2       0.000592      -0.000055       0.000005
   3       0.000141      -0.000004       0.000081
   4       0.000003       0.000014       0.000013
   5      -0.000016      -0.000011       0.000006
   6       0.000024      -0.000012      -0.000020
   7      -0.000000      -0.000001       0.000001
   8       0.000179       0.000192      -0.000066
   9       0.000038      -0.000003      -0.000002
  10      -0.000000      -0.000003       0.000004
  11      -0.000008      -0.000003       0.000008
  12      -0.000008      -0.000011      -0.000000
  13       0.000128      -0.000015      -0.000061
  14      -0.000004       0.000025       0.000015
  15       0.000069      -0.000016       0.000048
  16      -0.000008       0.000007      -0.000009
  17       0.000002       0.000011      -0.000020
  18      -0.000003       0.000003       0.000001
  19       0.000011      -0.000012      -0.000048
  20       0.000010      -0.000012       0.000007
---------------------------------------------------
 Number of fixed atoms: 0
 Gradient time:  CPU 438.52 s  wall 36.09 s
 ----------------------------------------------------------------
             Standard Nuclear Orientation (Angstroms)
    I     Atom           X                Y                Z
 ----------------------------------------------------------------
    1      C       3.0668065000    -0.6530984000    -1.2162432000
    2      O       1.6805604000    -0.4474499000    -1.0862545000
    3      C       3.6048262000    -1.0422883000     0.1676851000
    4      O       3.1607479000    -2.3383594000     0.4285005000
    5      C       3.1789705000    -0.0314236000     1.2357673000
    6      C       3.9745185000     0.0245967000     2.5202699000
    7      O       5.2014294000     0.2072315000     2.5384199000
    8      H       3.5654247000     0.2510971000    -1.5587544000
    9      H       1.3678742000    -0.0130564000    -1.8878335000
   10      H       2.1361429000    -0.2271509000     1.4728735000
   11      H       3.2266620000     0.9764536000     0.8147034000
   12      H       3.3815758000     0.2492292000     3.4118253000
   13      O       3.3552303000    -1.6481288000    -2.1675475000
   14      H       3.0539699000    -2.4943058000    -1.8095099000
   15      O       5.0312860000    -1.1948780000     0.0724945000
   16      O       5.6453671000     0.0877682000    -0.0467014000
   17      H       3.3007827000    -2.5157085000     1.3761468000
   18      H       5.7150879000     0.3207857000     0.9133247000
   19      O       3.6429891000    -1.9669703000     3.0814148000
   20      O       2.5524674000    -2.0301731000     3.8029207000
 ----------------------------------------------------------------
 Nuclear Repulsion Energy =         825.47849846 hartrees
 There are       49 alpha and       48 beta electrons
 Discretize the solute cavity surface with Lebedev spheres
	Using 110 Lebedev grid points for each H atom
	Using 194 Lebedev grid points for other atoms
	Atomic van der Waals radii will be scaled by 1.20
 Remove points where switching function is < 1.0e-08
 Keep 1565 surface tesserae and discard 1643 interior tesserae
 Molecular Surface Area = 176.069 Angst**2
 Requested basis set is 6-311++G(2df,2p)
 There are 144 shells and 488 basis functions
 A cutoff of  1.0D-12 yielded   8997 shell pairs
 There are    102184 function pairs (    127652 Cartesian)
 Smallest overlap matrix eigenvalue = 5.32E-06
 Guess MOs from SCF MO coefficient file

 -----------------------------------------------------------------------
  General SCF calculation program by
  Eric Jon Sundstrom, Paul Horn, Yuezhi Mao, Dmitri Zuev, Alec White,
  David Stuck, Shaama M.S., Shane Yost, Joonho Lee, David Small,
  Daniel Levine, Susi Lehtola, Hugh Burton, Evgeny Epifanovsky,
  Bang C. Huynh
 -----------------------------------------------------------------------
 Exchange:     0.1500 Hartree-Fock + 1.0000 wB97M-V + LR-HF
 Correlation:  1.0000 wB97M-V
 Using SG-2 standard quadrature grid
 Nonlocal Correlation:  VV10 with C = 0.0100 and b = 6.00 and scale = 1.00000
 Grid used for NLC:  SG-1 standard quadrature
 
 Citation of the SMD model:
 Marenich, A.V.; Cramer, C.J.; Truhlar, D.G.
 J. Phys. Chem. B 2009, 113, 6378-6396.
 iSolventCode=           1
 Solvent: water                                                           
 
 vradii
            1           2           3           4           5           6
    1   1.8500000   1.5200000   1.8500000   1.5200000   1.8500000   1.8500000
            7           8           9          10          11          12
    1   1.5200000   1.2000000   1.2000000   1.2000000   1.2000000   1.2000000
           13          14          15          16          17          18
    1   1.5200000   1.2000000   1.5200000   1.5200000   1.2000000   1.2000000
           19          20
    1   1.5200000   1.5200000
 -------------------------------------------------------
 OpenMP BLAS3 based DFT computing Module                
 Release: version 1.0, May 2013, Q-Chem Inc. Pittsburgh 
 -------------------------------------------------------
 A unrestricted SCF calculation will be
 performed using Roothaan-Hall, DIIS, GDM
 SCF converges when RMS gradient is below 1.0e-07
 ---------------------------------------
  Cycle       Energy         DIIS error
 ---------------------------------------
    1    -758.9104675199      2.12e-04  Roothaan Step
 ---------------------------------------
  Cycle       Energy         DIIS error
 ---------------------------------------
    1    -759.0204051234      2.29e-04  
    2    -759.0279349187      1.80e-04  Done DIIS. Switching to GDM
 ---------------------------------------
  Cycle       Energy        RMS Gradient
 ---------------------------------------
    1    -759.0279349187      5.40e-03   Normal BFGS step
    2    -759.0277454007      9.82e-03  Line search: overstep
    3    -759.0304693223      1.91e-03   Normal BFGS step
    4    -759.0307076260      2.33e-03   Normal BFGS step
    5    -759.0307605935      6.46e-04   Normal BFGS step
    6    -759.0307687999      3.71e-04   Normal BFGS step
    7    -759.0307698061      4.96e-04   Normal BFGS step
    8    -759.0307702699      8.59e-05   Normal BFGS step
    9    -759.0307703817      1.11e-04   Normal BFGS step
   10    -759.0307704338      3.71e-05   Normal BFGS step
   11    -759.0307704443      2.09e-05   Normal BFGS step
   12    -759.0307704480      1.78e-05   Normal BFGS step
[...]
 ---------------------------------------
    1    -759.0279984039      5.25e-03   Normal BFGS step
    2    -759.0278712772      7.37e-03  Line search: overstep
    3    -759.0305529268      1.82e-03   Normal BFGS step
    4    -759.0308008234      2.22e-03   Normal BFGS step
    5    -759.0308579737      7.85e-04   Normal BFGS step
    6    -759.0308667211      3.83e-04   Normal BFGS step
    7    -759.0308678340      5.75e-04   Normal BFGS step
    8    -759.0308683813      8.46e-05   Normal BFGS step
    9    -759.0308685128      1.18e-04   Normal BFGS step
   10    -759.0308685702      3.96e-05   Normal BFGS step
   11    -759.0308685813      2.05e-05   Normal BFGS step
   12    -759.0308685848      8.41e-06   Normal BFGS step
   13    -759.0308685855      5.12e-06   Normal BFGS step
   14    -759.0308685857      4.92e-06   Normal BFGS step
   15    -759.0308685858      4.72e-06   Normal BFGS step
   16    -759.0308685858      4.40e-06   Normal BFGS step
   17    -759.0308685859      3.87e-06   Normal BFGS step
   18    -759.0308685860      2.96e-06   Normal BFGS step
   19    -759.0308685862      4.26e-06   Normal BFGS step
   20    -759.0308685863      3.46e-06   Normal BFGS step
   21    -759.0308685863      1.55e-06   Normal BFGS step
   22    -759.0308685864      3.81e-07   Normal BFGS step
   23    -759.0308685864      1.37e-07   Normal BFGS step
   24    -759.0308685864      6.79e-08  Convergence criterion met
 ---------------------------------------
 SCF time:   CPU 3861.39s  wall 265.00s 
<S^2> =          0.755402616
(3)  G-ENP(liq) elect-nuc-pol free energy of system     -759.030868586 a.u.
(4)  G-CDS(liq) cavity-dispersion-solvent structure 
     free energy                                                3.3733 kcal/mol
(6)  G-S(liq) free energy of system                     -759.025492865 a.u.
 SCF   energy in the final basis set =     -759.0254928650
 Total energy in the final basis set =     -759.0254928650
 
 --------------------------------------------------------------
 
                    Orbital Energies (a.u.)
 --------------------------------------------------------------
 
 Alpha MOs
 -- Occupied --
-19.3964 -19.3806 -19.3654 -19.3614 -19.3487 -19.3457 -19.3444 -19.3226
-10.4623 -10.4447 -10.4398 -10.3454  -1.2706  -1.2505  -1.2076  -1.1746
 -1.1688  -1.1351  -1.0256  -0.9022  -0.8891  -0.8289  -0.7423  -0.7036
 -0.6862  -0.6467  -0.6334  -0.6151  -0.5920  -0.5766  -0.5680  -0.5620
 -0.5517  -0.5494  -0.5337  -0.5255  -0.5136  -0.4947  -0.4765  -0.4673
 -0.4494  -0.4369  -0.4279  -0.4094  -0.3999  -0.3864  -0.3629  -0.3427
 -0.3108
 -- Virtual --
  0.0297   0.0425   0.0449   0.0500   0.0660   0.0717   0.0722   0.0751
  0.0819   0.0985   0.1114   0.1199   0.1234   0.1347   0.1404   0.1438
  0.1512   0.1581   0.1628   0.1716   0.1738   0.1837   0.1893   0.1967
  0.2016   0.2074   0.2173   0.2236   0.2388   0.2457   0.2475   0.2651
  0.2679   0.2778   0.2804   0.2878   0.2926   0.2944   0.2995   0.3019
  0.3056   0.3163   0.3240   0.3265   0.3394   0.3414   0.3436   0.3516
  0.3553   0.3599   0.3660   0.3741   0.3798   0.3809   0.3832   0.3880
  0.3933   0.4024   0.4084   0.4129   0.4134   0.4195   0.4278   0.4425
  0.4522   0.4597   0.4680   0.4756   0.4797   0.4840   0.4862   0.5019
  0.5229   0.5351   0.5598   0.5708   0.6044   0.6177   0.6317   0.6366
  0.6536   0.6605   0.6635   0.6799   0.6922   0.6974   0.7015   0.7119
  0.7429   0.7478   0.7579   0.7694   0.7768   0.7869   0.7930   0.8024
  0.8215   0.8421   0.8692   0.8852   0.9092   0.9173   0.9481   0.9666
  0.9813   0.9840   1.0113   1.0403   1.0577   1.0662   1.0749   1.0844
  1.0924   1.1153   1.1228   1.1364   1.1456   1.1514   1.1627   1.1752
  1.1829   1.1863   1.1965   1.2057   1.2129   1.2230   1.2287   1.2323
  1.2394   1.2496   1.2571   1.2596   1.2727   1.2869   1.2919   1.2991
  1.3102   1.3116   1.3297   1.3330   1.3487   1.3608   1.3710   1.3839
  1.4032   1.4073   1.4261   1.4339   1.4485   1.4607   1.4778   1.4958
  1.4976   1.5169   1.5215   1.5297   1.5397   1.5560   1.5821   1.5952
  1.6120   1.6150   1.6320   1.6411   1.6491   1.6680   1.6871   1.6919
  1.7041   1.7165   1.7313   1.7509   1.7858   1.7919   1.8250   1.8276
  1.8491   1.8629   1.8938   1.9121   1.9415   1.9440   1.9594   1.9998
  2.0252   2.0317   2.0664   2.0854   2.1070   2.1386   2.1673   2.1776
  2.2125   2.2323   2.2427   2.2596   2.2725   2.3539   2.3677   2.3781
  2.3874   2.3910   2.4113   2.4443   2.4612   2.4663   2.4925   2.5099
  2.5240   2.5563   2.5766   2.6202   2.6406   2.7050   2.7113   2.7224
  2.7520   2.7936   2.7981   2.8445   2.8633   2.8830   2.9023   2.9602
  2.9936   3.0286   3.0421   3.0640   3.0965   3.1169   3.1658   3.1837
  3.2068   3.2398   3.2493   3.2577   3.2942   3.3158   3.3590   3.3908
  3.4041   3.4236   3.4328   3.4538   3.4828   3.4970   3.5093   3.5346
  3.5701   3.5790   3.6284   3.6576   3.6613   3.6838   3.7027   3.7151
  3.7262   3.7631   3.7717   3.7766   3.8313   3.8389   3.8524   3.8719
  3.8839   3.8893   3.8948   3.9240   3.9620   3.9691   3.9904   4.0242
  4.0398   4.0638   4.0838   4.1199   4.1467   4.1541   4.1638   4.2169
  4.2227   4.2409   4.2824   4.2874   4.2959   4.3178   4.3450   4.3890
  4.3988   4.4147   4.4271   4.4409   4.4726   4.5103   4.5575   4.5654
  4.5825   4.6299   4.6446   4.6747   4.6853   4.7322   4.7693   4.7735
  4.7943   4.8263   4.8409   4.8794   4.9053   4.9184   5.0055   5.0616
  5.0990   5.1008   5.1259   5.1383   5.1860   5.1949   5.2137   5.2336
  5.2349   5.2451   5.2472   5.2479   5.2663   5.2822   5.2867   5.2958
  5.3054   5.3257   5.3292   5.3422   5.3533   5.3621   5.3744   5.3875
  5.3916   5.4033   5.4195   5.4247   5.4509   5.4602   5.4757   5.5019
  5.5114   5.5482   5.5524   5.5645   5.5905   5.6105   5.6213   5.6228
  5.6361   5.6455   5.6670   5.6748   5.6783   5.7132   5.7154   5.7572
  5.7963   5.8362   5.8473   5.8688   5.9114   5.9864   6.0356   6.0689
  6.0915   6.1439   6.1630   6.2724   6.3329   6.4908   6.5139   6.5261
  6.5802   6.6350   6.7561   6.8421   6.8481   6.8723   6.8826   6.9710
  6.9984   7.0298   7.0349   7.0720   7.0947   7.1107   7.1199   7.1406
  7.1560   7.1683   7.1901   7.2377   7.2645   7.2802   7.2942   7.3071
  7.3241   7.3384   7.3605   7.3996   7.4274   7.4346   7.4423   7.4649
  7.4760   7.5020   7.5125   7.5236   7.5625   7.5994   7.6621   7.6647
  7.7110   7.7909   7.8323   7.8623   7.8761   7.9027   7.9316   7.9986
  8.0384   8.0983   8.2212  24.6608  24.7827  24.8533  24.9597  50.4692
 50.5173  50.5674  50.5970  50.6322  50.6559  50.6930  50.7676
 
 Beta MOs
 -- Occupied --
-19.3964 -19.3806 -19.3524 -19.3484 -19.3457 -19.3455 -19.3444 -19.3229
-10.4623 -10.4447 -10.4399 -10.3454  -1.2705  -1.2219  -1.2075  -1.1739
 -1.1689  -1.1351  -1.0255  -0.9009  -0.8520  -0.8254  -0.7418  -0.7028
 -0.6862  -0.6466  -0.6325  -0.6138  -0.5916  -0.5739  -0.5671  -0.5514
 -0.5491  -0.5305  -0.5197  -0.5155  -0.4911  -0.4779  -0.4687  -0.4526
 -0.4486  -0.4364  -0.4277  -0.4094  -0.3997  -0.3860  -0.3617  -0.2912
 -- Virtual --
  0.0135   0.0298   0.0427   0.0453   0.0502   0.0668   0.0719   0.0727
  0.0759   0.0828   0.0988   0.1121   0.1206   0.1239   0.1351   0.1407
  0.1448   0.1518   0.1585   0.1631   0.1722   0.1742   0.1844   0.1896
  0.1976   0.2024   0.2092   0.2182   0.2241   0.2402   0.2473   0.2492
  0.2656   0.2697   0.2788   0.2821   0.2912   0.2937   0.2970   0.3006
  0.3036   0.3067   0.3176   0.3245   0.3272   0.3425   0.3435   0.3446
  0.3524   0.3564   0.3613   0.3674   0.3763   0.3805   0.3827   0.3843
  0.3903   0.3962   0.4030   0.4090   0.4140   0.4144   0.4209   0.4288
  0.4425   0.4528   0.4599   0.4682   0.4765   0.4807   0.4844   0.4869
  0.5020   0.5231   0.5357   0.5605   0.5710   0.6047   0.6181   0.6323
  0.6369   0.6540   0.6614   0.6639   0.6806   0.6927   0.6982   0.7016
  0.7123   0.7434   0.7480   0.7584   0.7699   0.7771   0.7873   0.7935
  0.8027   0.8226   0.8425   0.8696   0.8855   0.9094   0.9179   0.9485
  0.9679   0.9817   0.9848   1.0118   1.0407   1.0582   1.0678   1.0758
  1.0858   1.0960   1.1204   1.1244   1.1373   1.1481   1.1563   1.1663
  1.1778   1.1861   1.1903   1.1979   1.2076   1.2152   1.2243   1.2316
  1.2392   1.2437   1.2523   1.2581   1.2627   1.2758   1.2892   1.2953
  1.3041   1.3128   1.3162   1.3321   1.3355   1.3543   1.3670   1.3738
  1.3857   1.4038   1.4114   1.4294   1.4350   1.4506   1.4611   1.4816
  1.4967   1.4997   1.5198   1.5231   1.5325   1.5428   1.5598   1.5856
  1.5971   1.6143   1.6216   1.6357   1.6441   1.6516   1.6739   1.6914
  1.7048   1.7114   1.7289   1.7360   1.7523   1.7883   1.7937   1.8279
  1.8298   1.8510   1.8667   1.8945   1.9157   1.9433   1.9488   1.9602
  2.0003   2.0265   2.0330   2.0690   2.0860   2.1105   2.1397   2.1698
  2.1782   2.2155   2.2376   2.2452   2.2639   2.2765   2.3644   2.3741
  2.3845   2.3906   2.3933   2.4186   2.4469   2.4622   2.4684   2.4929
  2.5105   2.5247   2.5568   2.5767   2.6204   2.6411   2.7052   2.7135
  2.7230   2.7590   2.7950   2.7983   2.8446   2.8634   2.8832   2.9024
  2.9604   2.9940   3.0288   3.0420   3.0641   3.0965   3.1167   3.1659
  3.1838   3.2070   3.2398   3.2494   3.2577   3.2942   3.3158   3.3591
  3.3910   3.4040   3.4237   3.4329   3.4538   3.4828   3.4970   3.5094
  3.5347   3.5702   3.5790   3.6284   3.6576   3.6614   3.6839   3.7027
  3.7151   3.7263   3.7630   3.7719   3.7765   3.8314   3.8389   3.8524
  3.8719   3.8839   3.8894   3.8952   3.9241   3.9620   3.9692   3.9907
  4.0244   4.0400   4.0638   4.0838   4.1202   4.1469   4.1542   4.1638
  4.2170   4.2229   4.2410   4.2826   4.2875   4.2960   4.3179   4.3450
  4.3892   4.3991   4.4149   4.4283   4.4423   4.4729   4.5112   4.5585
  4.5658   4.5880   4.6380   4.6634   4.6780   4.6927   4.7345   4.7740
  4.7753   4.8117   4.8297   4.8598   4.8913   4.9085   4.9225   5.0061
  5.0616   5.1016   5.1423   5.1670   5.1928   5.2057   5.2140   5.2166
  5.2350   5.2430   5.2480   5.2617   5.2698   5.2736   5.2972   5.2989
  5.3077   5.3199   5.3311   5.3443   5.3522   5.3583   5.3658   5.3770
  5.3932   5.3978   5.4167   5.4267   5.4320   5.4577   5.4666   5.4762
  5.5023   5.5139   5.5485   5.5525   5.5648   5.5914   5.6116   5.6221
  5.6247   5.6497   5.6615   5.6755   5.6778   5.6914   5.7137   5.7162
  5.7578   5.7965   5.8363   5.8473   5.8688   5.9117   5.9866   6.0362
  6.0690   6.0915   6.1443   6.1631   6.2725   6.3329   6.5115   6.5364
  6.5401   6.5813   6.6352   6.7564   6.8441   6.8772   6.9191   6.9507
  6.9760   7.0340   7.0416   7.0746   7.0915   7.1041   7.1174   7.1244
  7.1443   7.1604   7.1862   7.2134   7.2398   7.2672   7.2804   7.3030
  7.3128   7.3254   7.3497   7.3652   7.4045   7.4334   7.4419   7.4471
  7.4733   7.4903   7.5180   7.5211   7.5315   7.5660   7.6007   7.6623
  7.6648   7.7117   7.7917   7.8323   7.8628   7.8771   7.9037   7.9330
  8.0163   8.0386   8.1166   8.2213  24.6608  24.7827  24.8533  24.9596
 50.4808  50.5173  50.5770  50.5975  50.6322  50.6559  50.6932  50.7675
 --------------------------------------------------------------
 
          Ground-State Mulliken Net Atomic Charges

     Atom                 Charge (a.u.)    Spin (a.u.)
  --------------------------------------------------------
      1 C                    -0.074947       0.002574
      2 O                    -0.421254      -0.000119
      3 C                     0.156021       0.006643
      4 O                    -0.421830       0.002936
      5 C                    -0.447263      -0.000823
      6 C                    -0.131443      -0.005587
      7 O                    -0.486911      -0.007834
      8 H                     0.299118       0.000131
      9 H                     0.338975       0.000053
     10 H                     0.281508      -0.000492
     11 H                     0.303838      -0.000885
     12 H                     0.253896      -0.001191
     13 O                    -0.463760      -0.000038
     14 H                     0.350220      -0.000051
     15 O                    -0.197869       0.000770
     16 O                    -0.319172      -0.000223
     17 H                     0.331674       0.007988
     18 H                     0.341721       0.000077
     19 O                    -0.232860       0.427652
     20 O                    -0.459664       0.568421
  --------------------------------------------------------
  Sum of atomic charges =    -1.000000
  Sum of spin   charges =     1.000000

 -----------------------------------------------------------------
                    Cartesian Multipole Moments
 -----------------------------------------------------------------
    Charge (ESU x 10^10)
                -4.8032
    Dipole Moment (Debye)
         X     -21.3113      Y      10.2450      Z     -10.9164
       Tot      26.0441
    Quadrupole Moments (Debye-Ang)
        XX    -178.8316     XY      33.4413     YY     -89.0210
        XZ     -34.0335     YZ      19.5581     ZZ    -117.6881
    Octopole Moments (Debye-Ang^2)
       XXX   -1353.7699    XXY     190.7280    XYY    -319.5357
       YYY     228.3670    XXZ    -189.3272    XYZ      52.9970
       YYZ    -108.9319    XZZ    -431.5995    YZZ     160.5752
       ZZZ    -326.9886
    Hexadecapole Moments (Debye-Ang^3)
      XXXX   -9414.5396   XXXY    1157.6111   XXYY   -1409.8148
      XYYY     747.4843   YYYY    -857.2620   XXXZ   -1274.0610
      XXYZ     202.7744   XYYZ    -371.5183   YYYZ     313.7850
      XXZZ   -2045.8657   XYZZ     481.7224   YYZZ    -622.9357
      XZZZ   -1152.5883   YZZZ     471.3630   ZZZZ   -2406.9294
 -----------------------------------------------------------------
 Calculating analytic gradient of the SCF energy
 Gradient of CDS energy
            1           2           3           4           5           6
    1  -0.0013373   0.0021354  -0.0011356   0.0012111  -0.0001374   0.0018779
    2  -0.0015507  -0.0004994  -0.0034321   0.0036623   0.0000195   0.0009028
    3  -0.0020454  -0.0000450   0.0006824  -0.0007951  -0.0001222   0.0006203
            7           8           9          10          11          12
    1  -0.0013680   0.0002037  -0.0004408  -0.0001454   0.0000374  -0.0002410
    2  -0.0003791   0.0000835   0.0002011  -0.0001371   0.0000525  -0.0002927
    3   0.0000490   0.0000940  -0.0001830   0.0000233  -0.0001805   0.0000267
           13          14          15          16          17          18
    1  -0.0005521  -0.0000554  -0.0000296  -0.0001698  -0.0000265   0.0002914
    2   0.0021252  -0.0004428   0.0000274  -0.0001801  -0.0003895   0.0001902
    3   0.0021098  -0.0002148  -0.0000573  -0.0001471   0.0000869  -0.0000102
           19          20
    1  -0.0001479   0.0000299
    2   0.0000421  -0.0000029
    3   0.0000330   0.0000752
 Gradient of SCF Energy
            1           2           3           4           5           6
    1  -0.0005180  -0.0152509   0.0444066  -0.0026515  -0.0626119   0.0232505
    2   0.0340831  -0.0007395  -0.0247231  -0.0153925   0.0306657   0.0107939
    3  -0.0107106   0.0005637  -0.0063194   0.0317227  -0.0085511   0.0498388
            7           8           9          10          11          12
    1  -0.0212722  -0.0161167   0.0058213   0.0280416  -0.0037566   0.0138917
    2  -0.0083477  -0.0171427  -0.0012001   0.0103810  -0.0168429   0.0006562
    3   0.0008225   0.0060544   0.0033130  -0.0044028   0.0078488  -0.0307828
           13          14          15          16          17          18
    1   0.0025925   0.0028178  -0.0021025   0.0020623   0.0014451  -0.0011164
    2  -0.0214282   0.0194587  -0.0190440   0.0167404   0.0112914   0.0002280
    3   0.0022472  -0.0084696   0.0068501   0.0205665  -0.0347188  -0.0225701
           19          20
    1   0.0090566  -0.0079894
    2  -0.0065063  -0.0029314
    3  -0.0151471   0.0118447
 Max gradient component =       6.261E-02
 RMS gradient           =       1.893E-02
 Computing fast CPCM-SWIG gradient
 Updating gradient with PCM contributions...
 -- total gradient after adding PCM contribution --
---------------------------------------------------
  Atom         X              Y              Z     
---------------------------------------------------
   1      -0.000021       0.000003      -0.000002
   2      -0.000021       0.000012      -0.000001
   3       0.000009      -0.000047      -0.000013
   4      -0.000014      -0.000056      -0.000041
   5      -0.000041       0.000029       0.000007
   6      -0.000062      -0.000052       0.000113
   7       0.000025      -0.000069       0.000033
   8      -0.000015       0.000017       0.000020
   9      -0.000020       0.000011      -0.000001
  10       0.000003      -0.000062       0.000014
  11      -0.000006      -0.000065       0.000039
  12      -0.000027       0.000044      -0.000047
  13      -0.000022       0.000029      -0.000024
  14      -0.000002       0.000020      -0.000031
  15      -0.000005      -0.000012      -0.000024
  16      -0.000033      -0.000023       0.000070
  17       0.000057      -0.000085      -0.000079
  18      -0.000051      -0.000064       0.000118
  19       0.000068       0.000278      -0.000059
  20       0.000178       0.000092      -0.000094
---------------------------------------------------
 Number of fixed atoms: 0
 Gradient time:  CPU 436.19 s  wall 36.25 s
rPathMan2.  file_steps = 952
 IRC --- Status = 4.  Checking bisector search.
 IRC --- Bisector search finished successfully.
 ------------------------------------------------------------------------
 Reaction path following.  The coordinates are cartesian              
 Step   3 E=    -759.025493 |G|=  0.000485 S_lin= 0.1514 S_tot= 0.1522
 ------------------------------------------------------------------------
  IRC -- convergence criterion reached.
 ----------------------------------------------------------------
             Standard Nuclear Orientation (Angstroms)
    I     Atom           X                Y                Z
 ----------------------------------------------------------------
    1      C       3.0668065000    -0.6540984000    -1.2162432000
    2      O       1.6805604000    -0.4474499000    -1.0862545000
    3      C       3.6048262000    -1.0422883000     0.1676851000
    4      O       3.1607479000    -2.3383594000     0.4285005000
    5      C       3.1789705000    -0.0314236000     1.2357673000
    6      C       3.9745185000     0.0245967000     2.5202699000
    7      O       5.2014294000     0.2072315000     2.5384199000
    8      H       3.5654247000     0.2510971000    -1.5587544000
    9      H       1.3678742000    -0.0130564000    -1.8878335000
   10      H       2.1361429000    -0.2271509000     1.4728735000
   11      H       3.2266620000     0.9764536000     0.8147034000
   12      H       3.3815758000     0.2492292000     3.4118253000
   13      O       3.3552303000    -1.6481288000    -2.1675475000
   14      H       3.0539699000    -2.4943058000    -1.8095099000
   15      O       5.0312860000    -1.1948780000     0.0724945000
   16      O       5.6453671000     0.0877682000    -0.0467014000
   17      H       3.3007827000    -2.5157085000     1.3761468000
   18      H       5.7150879000     0.3207857000     0.9133247000
   19      O       3.6429891000    -1.9669703000     3.0814148000
   20      O       2.5524674000    -2.0301731000     3.8029207000
 ----------------------------------------------------------------
 Nuclear Repulsion Energy =         825.48868922 hartrees
 There are       49 alpha and       48 beta electrons
 Here is where we should summarize the reaction path
 Total job time:  5121.15s(wall), 72992.98s(cpu) 
 Tue Aug 20 20:49:07 2024

        *************************************************************
        *                                                           *
        *  Thank you very much for using Q-Chem.  Have a nice day.  *
        *                                                           *
        *************************************************************


