
Running Job 1 of 2 Q_in.in
qchem Q_in.in_144407.0 /scratch/ari.fischer/qChem2289848.hpc-mn1/qchem144407/ 0
/usr/local/qchem-5.4.1/exe/qcprog.exe_s Q_in.in_144407.0 /scratch/ari.fischer/qChem2289848.hpc-mn1/qchem144407/
                  Welcome to Q-Chem
     A Quantum Leap Into The Future Of Chemistry


 Q-Chem 5.4, Q-Chem, Inc., Pleasanton, CA (2021)

 License issued to: Nanyang Technological University (site)

 E. Epifanovsky,  A. T. B. Gilbert,  Xintian Feng,  Joonho Lee,  Yuezhi Mao,  
 N. Mardirossian,  P. Pokhilko,  A. White,  M. Wormit,  M. P. Coons,  
 A. L. Dempwolff,  Zhengting Gan,  D. Hait,  P. R. Horn,  L. D. Jacobson,  
 I. Kaliman,  J. Kussmann,  A. W. Lange,  Ka Un Lao,  D. S. Levine,  Jie Liu,  
 S. C. McKenzie,  A. F. Morrison,  K. Nanda,  F. Plasser,  D. R. Rehn,  
 M. L. Vidal,  Zhi-Qiang You,  Ying Zhu,  B. Alam,  B. Albrecht,  
 A. Aldossary,  E. Alguire,  J. H. Andersen,  D. Barton,  K. Begam,  A. Behn,  
 Y. A. Bernard,  E. J. Berquist,  H. Burton,  A. Carreras,  K. Carter-Fenk,  
 R. Chakraborty,  A. D. Chien,  K. D. Closser,  V. Cofer-Shabica,  
 S. Dasgupta,  Jia Deng,  M. de Wergifosse,  M. Diedenhofen,  Hainam Do,  
 S. Ehlert,  Po-Tung Fang,  S. Fatehi,  Qingguo Feng,  T. Friedhoff,  
 J. Gayvert,  Qinghui Ge,  G. Gidofalvi,  M. Goldey,  J. Gomes,  
 C. Gonzalez-Espinoza,  S. Gulania,  A. Gunina,  M. W. D. Hanson-Heine,  
 P. H. P. Harbach,  A. W. Hauser,  M. F. Herbst,  M. Hernandez Vera,  
 M. Hodecker,  Z. C. Holden,  S. Houck,  Xunkun Huang,  Kerwin Hui,  
 B. C. Huynh,  M. Ivanov,  Hyunjun Ji,  Hanjie Jiang,  B. Kaduk,  S. Kaehler,  
 K. Khistyaev,  Jaehoon Kim,  P. Klunzinger,  Z. Koczor-Benda,  
 Joong Hoon Koh,  D. Kosenkov,  L. Koulias,  T. Kowalczyk,  C. M. Krauter,  
 K. Kue,  A. Kunitsa,  T. Kus,  A. Landau,  K. V. Lawler,  D. Lefrancois,  
 S. Lehtola,  Rain Li,  Yi-Pei Li,  Jiashu Liang,  M. Liebenthal,  
 Hung-Hsuan Lin,  You-Sheng Lin,  Fenglai Liu,  Kuan-Yu Liu,  
 M. Loipersberger,  A. Luenser,  A. Manjanath,  P. Manohar,  E. Mansoor,  
 S. F. Manzer,  Shan-Ping Mao,  A. V. Marenich,  T. Markovich,  S. Mason,  
 S. A. Maurer,  P. F. McLaughlin,  M. F. S. J. Menger,  J.-M. Mewes,  
 S. A. Mewes,  P. Morgante,  J. W. Mullinax,  K. J. Oosterbaan,  G. Paran,  
 Alexander C. Paul,  Suranjan K. Paul,  F. Pavosevic,  Zheng Pei,  S. Prager,  
 E. I. Proynov,  E. Ramos,  B. Rana,  A. E. Rask,  A. Rettig,  R. M. Richard,  
 F. Rob,  E. Rossomme,  T. Scheele,  M. Scheurer,  M. Schneider,  
 N. Sergueev,  S. M. Sharada,  W. Skomorowski,  D. W. Small,  C. J. Stein,  
 Yu-Chuan Su,  E. J. Sundstrom,  Zhen Tao,  J. Thirman,  T. Tsuchimochi,  
 N. M. Tubman,  S. P. Veccham,  O. Vydrov,  J. Wenzel,  J. Witte,  A. Yamada,  
 Kun Yao,  S. Yeganeh,  S. R. Yost,  A. Zech,  Igor Ying Zhang,  Xing Zhang,  
 Yu Zhang,  D. Zuev,  A. Aspuru-Guzik,  A. T. Bell,  N. A. Besley,  
 K. B. Bravaya,  B. R. Brooks,  D. Casanova,  Jeng-Da Chai,  S. Coriani,  
 C. J. Cramer,  A. E. DePrince, III,  R. A. DiStasio Jr.,  A. Dreuw,  
 B. D. Dunietz,  T. R. Furlani,  W. A. Goddard III,  S. Grimme,  
 S. Hammes-Schiffer,  T. Head-Gordon,  W. J. Hehre,  Chao-Ping Hsu,  
 T.-C. Jagau,  Yousung Jung,  A. Klamt,  Jing Kong,  D. S. Lambrecht,  
 WanZhen Liang,  N. J. Mayhall,  C. W. McCurdy,  J. B. Neaton,  
 C. Ochsenfeld,  J. A. Parkhill,  R. Peverati,  V. A. Rassolov,  Yihan Shao,  
 L. V. Slipchenko,  T. Stauch,  R. P. Steele,  J. E. Subotnik,  
 A. J. W. Thom,  A. Tkatchenko,  D. G. Truhlar,  T. Van Voorhis,  
 T. A. Wesolowski,  K. B. Whaley,  H. L. Woodcock III,  P. M. Zimmerman,  
 S. Faraji,  P. M. W. Gill,  M. Head-Gordon,  J. M. Herbert,  A. I. Krylov

 Additional authors for Version 5.4.1: 
 S. Kotaru,  Shaozhi Li,  Xiangyuan Li,  F. Matz,  A. Molle,  Haisheng Ren,  
 Yingli Su,  Hung-Yi Tsai,  C. Utku,  Fang Wang

 Contributors to earlier versions of Q-Chem not listed above: 
 R. D. Adamson,  B. Austin,  R. Baer,  J. Baker,  G. J. O. Beran,  
 K. Brandhorst,  S. T. Brown,  E. F. C. Byrd,  A. K. Chakraborty,  
 G. K. L. Chan,  Chun-Min Chang,  Yunqing Chen,  C.-L. Cheng,  
 Siu Hung Chien,  D. M. Chipman,  D. L. Crittenden,  H. Dachsel,  
 R. J. Doerksen,  A. D. Dutoi,  R. G. Edgar,  J. Fosso-Tande,  
 L. Fusti-Molnar,  D. Ghosh,  A. Ghysels,  A. Golubeva-Zadorozhnaya,  
 J. Gonthier,  M. S. Gordon,  S. R. Gwaltney,  G. Hawkins,  J. E. Herr,  
 A. Heyden,  S. Hirata,  E. G. Hohenstein,  G. Kedziora,  F. J. Keil,  
 C. Kelley,  Jihan Kim,  R. A. King,  R. Z. Khaliullin,  P. P. Korambath,  
 W. Kurlancheek,  A. Laurent,  A. M. Lee,  M. S. Lee,  S. V. Levchenko,  
 Ching Yeh Lin,  D. Liotard,  E. Livshits,  R. C. Lochan,  I. Lotan,  
 L. A. Martinez-Martinez,  P. E. Maslen,  N. Nair,  D. P. O'Neill,  
 D. Neuhauser,  E. Neuscamman,  C. M. Oana,  R. Olivares-Amaya,  R. Olson,  
 T. M. Perrine,  B. Peters,  P. A. Pieniazek,  A. Prociuk,  Y. M. Rhee,  
 J. Ritchie,  M. A. Rohrdanz,  E. Rosta,  N. J. Russ,  H. F. Schaefer III,  
 M. W. Schmidt,  N. E. Schultz,  S. Sharma,  N. Shenvi,  C. D. Sherrill,  
 A. C. Simmonett,  A. Sodt,  T. Stein,  D. Stuck,  K. S. Thanthiriwatte,  
 V. Vanovschi,  L. Vogt,  Tao Wang,  A. Warshel,  M. A. Watson,  
 C. F. Williams,  Q. Wu,  X. Xu,  Jun Yang,  W. Zhang,  Yan Zhao

 Please cite Q-Chem as follows:
 Y. Shao et al., Mol. Phys. 113, 184-215 (2015)
 DOI: 10.1080/00268976.2014.952696

 Q-Chem 5.4.1 for Intel X86 EM64T Linux

 Parts of Q-Chem use Armadillo 9.800.1 (Horizon Scraper).
 http://arma.sourceforge.net/

 Q-Chem begins on Mon Aug 19 15:59:37 2024  

 Host: 
0

     Scratch files written to /scratch/ari.fischer/qChem2289848.hpc-mn1/qchem144407//
 Aug1521 |scratch|qcdevops|jenkins|workspace|build_RNUM 8249   
 Processing $rem in /usr/local/qchem-5.4.1/config/preferences:
 Processing $rem in /home/ari.fischer/.qchemrc:
 Symmetry turned off for PCM/SM12/SMD calculation


!!********************************************.
!!******************Warning*******************.
!!Desired Analytical derivatives not available.
!!Finite difference job might take a long time.
!!********************************************.
!!********************************************.


 2-order derivative to be evaluated numerically with 1-order analytical derivatives

 Checking the input file for inconsistencies... 	...done.

--------------------------------------------------------------
User input:
--------------------------------------------------------------
$molecule
-1 2
C    3.0566807   -0.6440855   -1.2434678
O    1.6708130   -0.4214322   -1.1323478
C    3.5731200   -1.0625794    0.1400414
O    3.0903007   -2.3586694    0.3636560
C    3.1525753   -0.0599283    1.2170720
C    3.9357118   -0.0590888    2.5309354
O    5.2228525    0.1978784    2.5929716
H    3.5732325    0.2611511   -1.5586033
H    1.3761075    0.0256945   -1.9337089
H    2.1014229   -0.2456045    1.4298959
H    3.2216433    0.9521538    0.8165849
H    3.3611715    0.4022473    3.4123364
O    3.3462661   -1.6214513   -2.2121262
H    3.0428731   -2.4733526   -1.8699843
O    4.9927252   -1.2430738    0.0560527
O    5.6354988    0.0346103    0.0431022
H    3.3361366   -2.6313002    1.2569913
H    5.6002278    0.2300318    1.0581701
O    3.8501431   -1.7588662    3.2684575
O    2.7032169   -2.0111645    3.8274728
$end

$rem
BASIS = 6-311++G(2df,2p)
GUI = 2
JOB_TYPE = Frequency
METHOD = wB97M-V
SCF_ALGORITHM = DIIS_GDM
MAX_SCF_CYCLES = 400
SCF_CONVERGENCE = 6
THRESH = 11
solvent_method = SMD
$end

--------------------------------------------------------------
 ----------------------------------------------------------------
             Standard Nuclear Orientation (Angstroms)
    I     Atom           X                Y                Z
 ----------------------------------------------------------------
    1      C       3.0566807000    -0.6440855000    -1.2434678000
    2      O       1.6708130000    -0.4214322000    -1.1323478000
    3      C       3.5731200000    -1.0625794000     0.1400414000
    4      O       3.0903007000    -2.3586694000     0.3636560000
    5      C       3.1525753000    -0.0599283000     1.2170720000
    6      C       3.9357118000    -0.0590888000     2.5309354000
    7      O       5.2228525000     0.1978784000     2.5929716000
    8      H       3.5732325000     0.2611511000    -1.5586033000
    9      H       1.3761075000     0.0256945000    -1.9337089000
   10      H       2.1014229000    -0.2456045000     1.4298959000
   11      H       3.2216433000     0.9521538000     0.8165849000
   12      H       3.3611715000     0.4022473000     3.4123364000
   13      O       3.3462661000    -1.6214513000    -2.2121262000
   14      H       3.0428731000    -2.4733526000    -1.8699843000
   15      O       4.9927252000    -1.2430738000     0.0560527000
   16      O       5.6354988000     0.0346103000     0.0431022000
   17      H       3.3361366000    -2.6313002000     1.2569913000
   18      H       5.6002278000     0.2300318000     1.0581701000
   19      O       3.8501431000    -1.7588662000     3.2684575000
   20      O       2.7032169000    -2.0111645000     3.8274728000
 ----------------------------------------------------------------
 Nuclear Repulsion Energy =         823.03322195 hartrees
 There are       49 alpha and       48 beta electrons
 Requested basis set is 6-311++G(2df,2p)
 There are 144 shells and 488 basis functions

 Total QAlloc Memory Limit 288000 MB
 Mega-Array Size       188 MB
 MEM_STATIC part       192 MB
 
 Citation of the SMD model:
 Marenich, A.V.; Cramer, C.J.; Truhlar, D.G.
 J. Phys. Chem. B 2009, 113, 6378-6396.
 iSolventCode=           1
 Solvent: water                                                           
 
 vradii
            1           2           3           4           5           6
    1   1.8500000   1.5200000   1.8500000   1.5200000   1.8500000   1.8500000
            7           8           9          10          11          12
    1   1.5200000   1.2000000   1.2000000   1.2000000   1.2000000   1.2000000
           13          14          15          16          17          18
    1   1.5200000   1.2000000   1.5200000   1.5200000   1.2000000   1.2000000
           19          20
    1   1.5200000   1.5200000
 Changing PCM_VDW_RADII to SMD_RADIUS
 Discretize the solute cavity surface with Lebedev spheres
	Using 110 Lebedev grid points for each H atom
	Using 194 Lebedev grid points for other atoms
	Atomic van der Waals radii will be scaled by 1.20
 Remove points where switching function is < 1.0e-08
 Keep 1606 surface tesserae and discard 1602 interior tesserae
 Molecular Surface Area = 177.327 Angst**2
 A cutoff of  1.0D-11 yielded   8811 shell pairs
 There are     99748 function pairs (    124389 Cartesian)
 Smallest overlap matrix eigenvalue = 5.25E-06
 Guess from superposition of atomic densities
 Warning:  Energy on first SCF cycle will be non-variational
 SAD guess density has 96.000000 electrons

 -----------------------------------------------------------------------
  General SCF calculation program by
  Eric Jon Sundstrom, Paul Horn, Yuezhi Mao, Dmitri Zuev, Alec White,
  David Stuck, Shaama M.S., Shane Yost, Joonho Lee, David Small,
  Daniel Levine, Susi Lehtola, Hugh Burton, Evgeny Epifanovsky,
  Bang C. Huynh
 -----------------------------------------------------------------------
 Exchange:     0.1500 Hartree-Fock + 1.0000 wB97M-V + LR-HF
 Correlation:  1.0000 wB97M-V
 Using SG-2 standard quadrature grid
 Nonlocal Correlation:  VV10 with C = 0.0100 and b = 6.00 and scale = 1.00000
 Grid used for NLC:  SG-1 standard quadrature
 using 16 threads for integral computing
 -------------------------------------------------------
 OpenMP Integral computing Module                
 Release: version 1.0, May 2013, Q-Chem Inc. Pittsburgh 
 -------------------------------------------------------
 
 Citation of the SMD model:
 Marenich, A.V.; Cramer, C.J.; Truhlar, D.G.
 J. Phys. Chem. B 2009, 113, 6378-6396.
 iSolventCode=           1
 Solvent: water                                                           
 
 vradii
            1           2           3           4           5           6
    1   1.8500000   1.5200000   1.8500000   1.5200000   1.8500000   1.8500000
            7           8           9          10          11          12
    1   1.5200000   1.2000000   1.2000000   1.2000000   1.2000000   1.2000000
           13          14          15          16          17          18
    1   1.5200000   1.2000000   1.5200000   1.5200000   1.2000000   1.2000000
           19          20
    1   1.5200000   1.5200000
 -------------------------------------------------------
 OpenMP BLAS3 based DFT computing Module                
 Release: version 1.0, May 2013, Q-Chem Inc. Pittsburgh 
 -------------------------------------------------------
 A unrestricted SCF calculation will be
 performed using DIIS, GDM
 SCF converges when RMS gradient is below 1.0e-06
 ---------------------------------------
  Cycle       Energy         DIIS error
 ---------------------------------------
    1    -760.6578801067      1.07e-02  
    2    -758.7803562645      1.61e-03  Done DIIS. Switching to GDM
 ---------------------------------------
  Cycle       Energy        RMS Gradient
 ---------------------------------------
    1    -758.7803562645      9.50e-02   Descent step
    2    -758.9805529603      2.48e-02   Normal BFGS step
    3    -759.0176859827      3.19e-02   Normal BFGS step
    4    -759.0202887652      2.01e-02   Normal BFGS step
    5    -759.0228308343      6.61e-03   Normal BFGS step
    6    -759.0229322023      2.20e-03   Normal BFGS step
    7    -759.0230213643      1.95e-03   Normal BFGS step
    8    -759.0230337189      8.64e-04   Normal BFGS step
    9    -759.0230401393      4.98e-04   Normal BFGS step
   10    -759.0230416073      3.94e-04   Normal BFGS step
   11    -759.0230420290      3.64e-04   Normal BFGS step
   12    -759.0230424109      3.24e-04   Normal BFGS step
   13    -759.0230428264      2.43e-04   Normal BFGS step
   14    -759.0230431958      1.60e-04   Normal BFGS step
   15    -759.0230433895      8.80e-05   Normal BFGS step
   16    -759.0230434395      2.70e-05   Normal BFGS step
   17    -759.0230434479      1.74e-05   Normal BFGS step
   18    -759.0230434509      1.24e-05   Normal BFGS step
   19    -759.0230434516      4.40e-06   Normal BFGS step
   20    -759.0230434514      1.33e-06   Normal BFGS step
   21    -759.0230434522      7.10e-07  Convergence criterion met
 ---------------------------------------
 SCF time:   CPU 3443.11s  wall 238.00s 
<S^2> =          0.755804158
(3)  G-ENP(liq) elect-nuc-pol free energy of system     -759.023043452 a.u.
(4)  G-CDS(liq) cavity-dispersion-solvent structure 
     free energy                                                2.9895 kcal/mol
(6)  G-S(liq) free energy of system                     -759.018279431 a.u.
 SCF   energy in the final basis set =     -759.0182794311
 Total energy in the final basis set =     -759.0182794311
 
 --------------------------------------------------------------
 
                    Orbital Energies (a.u.)
 --------------------------------------------------------------
 
 Alpha MOs
 -- Occupied --
-19.4043 -19.3936 -19.3797 -19.3714 -19.3553 -19.3459 -19.3445 -19.2965
-10.4625 -10.4483 -10.4452 -10.3494  -1.2832  -1.2638  -1.2070  -1.1757
 -1.1351  -1.1200  -1.0160  -0.9169  -0.8973  -0.8280  -0.7419  -0.7010
 -0.6834  -0.6422  -0.6345  -0.6174  -0.5837  -0.5796  -0.5754  -0.5710
 -0.5634  -0.5421  -0.5300  -0.5247  -0.5152  -0.4890  -0.4757  -0.4568
 -0.4450  -0.4297  -0.4185  -0.4084  -0.3991  -0.3798  -0.3600  -0.3507
 -0.3300
 -- Virtual --
  0.0294   0.0423   0.0449   0.0502   0.0664   0.0722   0.0728   0.0764
  0.0977   0.1017   0.1129   0.1212   0.1224   0.1355   0.1402   0.1408
  0.1515   0.1593   0.1618   0.1704   0.1743   0.1841   0.1885   0.1963
  0.2023   0.2077   0.2148   0.2218   0.2364   0.2450   0.2494   0.2626
  0.2658   0.2781   0.2821   0.2842   0.2857   0.2927   0.2991   0.3020
  0.3096   0.3123   0.3249   0.3263   0.3344   0.3382   0.3453   0.3495
  0.3591   0.3596   0.3643   0.3664   0.3702   0.3796   0.3847   0.3912
  0.3931   0.4033   0.4041   0.4110   0.4194   0.4221   0.4258   0.4370
  0.4447   0.4550   0.4673   0.4710   0.4737   0.4834   0.4864   0.4982
  0.5252   0.5384   0.5428   0.5722   0.5968   0.6185   0.6233   0.6336
  0.6415   0.6506   0.6645   0.6735   0.6825   0.6899   0.6977   0.7144
  0.7265   0.7429   0.7549   0.7595   0.7737   0.7838   0.7998   0.8064
  0.8386   0.8392   0.8793   0.8876   0.9122   0.9148   0.9626   0.9786
  0.9876   0.9986   1.0072   1.0455   1.0592   1.0655   1.0736   1.0800
  1.0961   1.1124   1.1252   1.1278   1.1436   1.1567   1.1667   1.1741
  1.1795   1.1832   1.1919   1.2085   1.2106   1.2158   1.2194   1.2254
  1.2333   1.2430   1.2461   1.2692   1.2712   1.2884   1.2908   1.2955
  1.3040   1.3079   1.3302   1.3377   1.3537   1.3672   1.3725   1.3942
  1.4009   1.4089   1.4247   1.4356   1.4524   1.4624   1.4829   1.4992
  1.5033   1.5103   1.5253   1.5317   1.5424   1.5480   1.5738   1.5783
  1.5931   1.6188   1.6328   1.6370   1.6525   1.6706   1.6844   1.6960
  1.7036   1.7135   1.7348   1.7558   1.7784   1.7881   1.8054   1.8283
  1.8405   1.8504   1.8778   1.9025   1.9243   1.9389   1.9571   1.9685
  1.9962   2.0291   2.0575   2.0774   2.0840   2.1338   2.1604   2.1683
  2.1935   2.2180   2.2247   2.2379   2.2792   2.2850   2.3300   2.3499
  2.3773   2.3926   2.4069   2.4332   2.4522   2.4778   2.4969   2.5097
  2.5221   2.5600   2.5768   2.6163   2.6505   2.6967   2.7003   2.7358
  2.7666   2.8008   2.8073   2.8567   2.8726   2.8856   2.9056   2.9678
  2.9770   3.0038   3.0493   3.0700   3.0996   3.1264   3.1740   3.1907
  3.2159   3.2311   3.2680   3.2892   3.2947   3.3407   3.3538   3.3811
  3.4271   3.4349   3.4439   3.4747   3.4821   3.5016   3.5124   3.5494
  3.5811   3.5931   3.6180   3.6485   3.6688   3.6878   3.6949   3.7294
  3.7323   3.7569   3.7694   3.7850   3.8257   3.8344   3.8486   3.8594
  3.8767   3.8883   3.9189   3.9213   3.9544   3.9659   3.9785   3.9937
  4.0282   4.0583   4.0787   4.0962   4.1352   4.1566   4.1652   4.2059
  4.2282   4.2489   4.2531   4.2768   4.2951   4.3048   4.3192   4.3649
  4.3827   4.4060   4.4298   4.4421   4.4518   4.4894   4.5218   4.5479
  4.5716   4.6073   4.6399   4.6585   4.6823   4.6995   4.7294   4.7759
  4.7895   4.8005   4.8422   4.8875   4.9160   4.9190   5.0262   5.0675
  5.0872   5.1045   5.1168   5.1295   5.1689   5.1910   5.2205   5.2271
  5.2374   5.2487   5.2520   5.2562   5.2615   5.2663   5.2692   5.2928
  5.2977   5.3114   5.3322   5.3356   5.3411   5.3542   5.3564   5.3671
  5.3787   5.4047   5.4069   5.4143   5.4611   5.4657   5.4767   5.4871
  5.5066   5.5245   5.5370   5.5557   5.5629   5.5764   5.5945   5.6104
  5.6306   5.6483   5.6636   5.6722   5.6756   5.6842   5.6989   5.7209
  5.7577   5.7954   5.8273   5.8605   5.9069   5.9827   6.0296   6.0637
  6.0843   6.1295   6.1565   6.1611   6.2658   6.2922   6.5107   6.5155
  6.5692   6.5833   6.7518   6.8277   6.8374   6.8679   6.8845   6.9218
  6.9608   6.9805   7.0166   7.0377   7.0600   7.0858   7.1028   7.1130
  7.1399   7.1548   7.1801   7.1941   7.2601   7.2837   7.3030   7.3147
  7.3230   7.3359   7.3483   7.3964   7.4193   7.4318   7.4458   7.4583
  7.4672   7.4939   7.5240   7.5568   7.5980   7.6314   7.6550   7.6623
  7.6951   7.7837   7.8407   7.8638   7.8706   7.9061   7.9307   8.0182
  8.0434   8.0810   8.2351  24.6285  24.7143  24.7831  24.8555  50.4542
 50.5234  50.5469  50.6025  50.6336  50.6571  50.6863  50.7410
 
 Beta MOs
 -- Occupied --
-19.3936 -19.3912 -19.3714 -19.3630 -19.3552 -19.3459 -19.3445 -19.2968
-10.4625 -10.4487 -10.4452 -10.3494  -1.2642  -1.2537  -1.2069  -1.1756
 -1.1351  -1.1200  -1.0159  -0.9013  -0.8730  -0.8265  -0.7415  -0.6994
 -0.6831  -0.6417  -0.6340  -0.6141  -0.5788  -0.5721  -0.5673  -0.5552
 -0.5408  -0.5379  -0.5245  -0.5141  -0.4877  -0.4810  -0.4746  -0.4550
 -0.4443  -0.4295  -0.4147  -0.4083  -0.3985  -0.3781  -0.3511  -0.3125
 -- Virtual --
  0.0030   0.0295   0.0426   0.0451   0.0503   0.0673   0.0724   0.0730
  0.0768   0.0986   0.1033   0.1137   0.1219   0.1231   0.1359   0.1405
  0.1420   0.1521   0.1595   0.1621   0.1712   0.1746   0.1846   0.1891
  0.1973   0.2025   0.2099   0.2157   0.2222   0.2373   0.2466   0.2504
  0.2633   0.2665   0.2788   0.2835   0.2854   0.2893   0.2939   0.3021
  0.3035   0.3105   0.3156   0.3253   0.3285   0.3356   0.3395   0.3461
  0.3497   0.3598   0.3606   0.3647   0.3675   0.3733   0.3817   0.3859
  0.3923   0.3946   0.4035   0.4043   0.4113   0.4202   0.4227   0.4273
  0.4374   0.4449   0.4555   0.4675   0.4714   0.4741   0.4841   0.4867
  0.4985   0.5253   0.5386   0.5436   0.5723   0.5970   0.6188   0.6233
  0.6337   0.6420   0.6508   0.6648   0.6737   0.6830   0.6900   0.6981
  0.7144   0.7269   0.7431   0.7552   0.7595   0.7739   0.7839   0.8000
  0.8064   0.8388   0.8401   0.8793   0.8880   0.9127   0.9160   0.9630
  0.9787   0.9884   0.9991   1.0096   1.0463   1.0618   1.0681   1.0743
  1.0835   1.0966   1.1146   1.1290   1.1318   1.1483   1.1610   1.1704
  1.1780   1.1812   1.1841   1.1931   1.2124   1.2132   1.2204   1.2221
  1.2317   1.2396   1.2459   1.2493   1.2705   1.2730   1.2902   1.2935
  1.2969   1.3043   1.3096   1.3310   1.3390   1.3566   1.3701   1.3788
  1.3965   1.4016   1.4097   1.4271   1.4372   1.4536   1.4665   1.4837
  1.5013   1.5094   1.5134   1.5293   1.5352   1.5453   1.5530   1.5754
  1.5805   1.5942   1.6205   1.6356   1.6416   1.6645   1.6737   1.6897
  1.6994   1.7122   1.7183   1.7408   1.7596   1.7845   1.7893   1.8086
  1.8286   1.8429   1.8588   1.8839   1.9080   1.9244   1.9395   1.9601
  1.9733   1.9975   2.0298   2.0599   2.0780   2.0850   2.1354   2.1632
  2.1713   2.1945   2.2229   2.2265   2.2430   2.2798   2.2947   2.3397
  2.3513   2.3818   2.3933   2.4137   2.4340   2.4525   2.4795   2.4972
  2.5105   2.5222   2.5601   2.5769   2.6164   2.6507   2.6985   2.7052
  2.7368   2.7683   2.8008   2.8083   2.8568   2.8729   2.8855   2.9059
  2.9677   2.9770   3.0039   3.0489   3.0699   3.0997   3.1260   3.1738
  3.1907   3.2156   3.2311   3.2679   3.2890   3.2946   3.3407   3.3538
  3.3810   3.4270   3.4347   3.4441   3.4743   3.4818   3.5013   3.5123
  3.5494   3.5811   3.5929   3.6173   3.6482   3.6686   3.6877   3.6947
  3.7291   3.7319   3.7564   3.7694   3.7846   3.8257   3.8344   3.8486
  3.8592   3.8768   3.8883   3.9189   3.9213   3.9544   3.9660   3.9782
  3.9937   4.0283   4.0582   4.0785   4.0960   4.1353   4.1566   4.1653
  4.2060   4.2280   4.2491   4.2532   4.2767   4.2952   4.3047   4.3192
  4.3654   4.3827   4.4060   4.4299   4.4424   4.4519   4.4903   4.5225
  4.5500   4.5718   4.6201   4.6552   4.6595   4.6862   4.7090   4.7324
  4.7846   4.7990   4.8138   4.8579   4.8907   4.9189   4.9272   5.0265
  5.0679   5.1185   5.1427   5.1498   5.1872   5.1915   5.1952   5.2232
  5.2373   5.2416   5.2517   5.2614   5.2686   5.2735   5.2892   5.2976
  5.2988   5.3118   5.3292   5.3352   5.3383   5.3531   5.3604   5.3639
  5.3721   5.3812   5.4076   5.4153   5.4184   5.4629   5.4675   5.4770
  5.4884   5.5082   5.5248   5.5375   5.5565   5.5632   5.5814   5.5984
  5.6105   5.6315   5.6490   5.6661   5.6757   5.6792   5.7030   5.7104
  5.7278   5.7596   5.7959   5.8276   5.8609   5.9070   5.9828   6.0297
  6.0638   6.0844   6.1296   6.1566   6.1613   6.2658   6.2922   6.5114
  6.5621   6.5793   6.5856   6.7522   6.8297   6.8691   6.9016   6.9376
  6.9598   6.9806   7.0007   7.0366   7.0588   7.0790   7.0930   7.1050
  7.1396   7.1566   7.1706   7.1869   7.2050   7.2607   7.2841   7.3040
  7.3208   7.3233   7.3478   7.3562   7.4003   7.4217   7.4455   7.4592
  7.4603   7.4848   7.4953   7.5280   7.5595   7.5986   7.6425   7.6579
  7.6624   7.6953   7.7838   7.8410   7.8640   7.8708   7.9062   7.9309
  8.0360   8.0436   8.0983   8.2351  24.6284  24.7141  24.7831  24.8555
 50.4661  50.5237  50.5564  50.6032  50.6336  50.6573  50.6863  50.7409
 --------------------------------------------------------------
 
          Ground-State Mulliken Net Atomic Charges

     Atom                 Charge (a.u.)    Spin (a.u.)
  --------------------------------------------------------
      1 C                    -0.064299       0.002725
      2 O                    -0.423812      -0.000093
      3 C                     0.166985       0.007046
      4 O                    -0.392237      -0.003174
      5 C                    -0.440133      -0.006610
      6 C                    -0.188609      -0.009151
      7 O                    -0.650708      -0.007176
      8 H                     0.298308       0.000007
      9 H                     0.339752       0.000037
     10 H                     0.265240      -0.000529
     11 H                     0.316030      -0.001271
     12 H                     0.255919       0.001598
     13 O                    -0.463538      -0.000036
     14 H                     0.346476      -0.000051
     15 O                    -0.217208       0.001107
     16 O                    -0.361244      -0.000011
     17 H                     0.322909      -0.001252
     18 H                     0.363017       0.000287
     19 O                    -0.082074       0.420518
     20 O                    -0.390774       0.596029
  --------------------------------------------------------
  Sum of atomic charges =    -1.000000
  Sum of spin   charges =     1.000000

 -----------------------------------------------------------------
                    Cartesian Multipole Moments
 -----------------------------------------------------------------
    Charge (ESU x 10^10)
                -4.8032
    Dipole Moment (Debye)
         X     -23.6904      Y       7.4078      Z     -10.4190
       Tot      26.9196
    Quadrupole Moments (Debye-Ang)
        XX    -199.4563     XY      24.0982     YY     -82.4783
        XZ     -39.1495     YZ      12.0432     ZZ    -115.6413
    Octopole Moments (Debye-Ang^2)
       XXX   -1498.3236    XXY     156.9232    XYY    -301.7459
       YYY     203.9445    XXZ    -237.1091    XYZ      32.0951
       YYZ     -92.3147    XZZ    -448.0991    YZZ     138.6998
       ZZZ    -319.4131
    Hexadecapole Moments (Debye-Ang^3)
      XXXX  -10352.3663   XXXY    1039.8159   XXYY   -1356.5668
      XYYY     680.9475   YYYY    -757.1400   XXXZ   -1627.9398
      XXYZ     134.0537   XYYZ    -340.9435   YYYZ     243.4262
      XXZZ   -2203.7974   XYZZ     433.7152   YYZZ    -573.8761
      XZZZ   -1239.6641   YZZZ     390.9028   ZZZZ   -2427.2113
 -----------------------------------------------------------------
 Calculating analytic gradient of the SCF energy
 Gradient of CDS energy
            1           2           3           4           5           6
    1  -0.0012541   0.0020360  -0.0009447   0.0010197  -0.0001222   0.0036042
    2  -0.0014053  -0.0005197  -0.0026523   0.0029204   0.0000607   0.0011940
    3  -0.0020268  -0.0000104   0.0004351  -0.0005423  -0.0000400   0.0004746
            7           8           9          10          11          12
    1  -0.0031556   0.0001976  -0.0004358  -0.0001556   0.0000516  -0.0002583
    2  -0.0008563   0.0000832   0.0002083  -0.0001462   0.0000580  -0.0001499
    3  -0.0000700   0.0000994  -0.0001877  -0.0000066  -0.0001771   0.0001941
           13          14          15          16          17          18
    1  -0.0005313  -0.0000518  -0.0000191  -0.0001474  -0.0000273   0.0002760
    2   0.0019967  -0.0004427   0.0000345  -0.0001578  -0.0004130   0.0001741
    3   0.0020606  -0.0002190  -0.0000402  -0.0001703   0.0000918   0.0000271
           19          20
    1  -0.0001209   0.0000390
    2   0.0000066   0.0000065
    3   0.0000070   0.0001005
 Gradient of SCF Energy
            1           2           3           4           5           6
    1   0.0007414  -0.0154555   0.0430884   0.0002344  -0.0592645  -0.0107334
    2   0.0364150  -0.0002353  -0.0222653  -0.0183585   0.0376114   0.0050643
    3  -0.0110350  -0.0004066  -0.0030693   0.0205378  -0.0126070   0.0089012
            7           8           9          10          11          12
    1   0.0270587  -0.0171008   0.0054603   0.0267478  -0.0062010   0.0034259
    2  -0.0021907  -0.0180410  -0.0015370   0.0084518  -0.0200118   0.0030564
    3   0.0131374   0.0053424   0.0035375  -0.0040267   0.0056317  -0.0036608
           13          14          15          16          17          18
    1   0.0029233   0.0025587  -0.0013282   0.0031723  -0.0047412  -0.0043235
    2  -0.0204053   0.0180305  -0.0195773   0.0153234   0.0113355   0.0024152
    3   0.0006160  -0.0069479   0.0074900   0.0080488  -0.0282231  -0.0116502
           19          20
    1   0.0061149  -0.0023781
    2  -0.0143778  -0.0007034
    3   0.0058253   0.0025585
 Max gradient component =       5.926E-02
 RMS gradient           =       1.632E-02
 Computing fast CPCM-SWIG gradient
 Updating gradient with PCM contributions...
 -- total gradient after adding PCM contribution --
---------------------------------------------------
  Atom         X              Y              Z     
---------------------------------------------------
   1       0.000398      -0.000125       0.000777
   2      -0.000378       0.000032      -0.000501
   3       0.000304       0.002253       0.001544
   4      -0.000617      -0.002201      -0.000485
   5      -0.005116       0.009725      -0.007911
   6      -0.021033      -0.018442      -0.042128
   7       0.032670       0.008028       0.019119
   8      -0.000049      -0.000068      -0.000018
   9      -0.000012      -0.000062       0.000012
  10      -0.000730      -0.000184      -0.001008
  11      -0.001111      -0.000934      -0.001653
  12      -0.006786       0.015375       0.025931
  13      -0.000150      -0.000292      -0.000604
  14       0.000027       0.000072       0.000088
  15       0.000018      -0.000333      -0.000360
  16       0.002886      -0.002215      -0.016111
  17       0.000118       0.000009      -0.001652
  18      -0.004772       0.001771       0.011479
  19       0.005437      -0.011718       0.012217
  20      -0.001105      -0.000691       0.001265
---------------------------------------------------
 Number of fixed atoms: 0
 Gradient time:  CPU 402.54 s  wall 35.76 s
 ######################################################
 ######################################################
 # Starting finite difference calculation for IDERIV  #
 Finite diff step size:  1.88973e-03 a.u.
 ----------------------------------------------------------------
             Standard Nuclear Orientation (Angstroms)
    I     Atom           X                Y                Z
 ----------------------------------------------------------------
    1      C       3.0576807000    -0.6440855000    -1.2434678000
    2      O       1.6708130000    -0.4214322000    -1.1323478000
    3      C       3.5731200000    -1.0625794000     0.1400414000
    4      O       3.0903007000    -2.3586694000     0.3636560000
    5      C       3.1525753000    -0.0599283000     1.2170720000
    6      C       3.9357118000    -0.0590888000     2.5309354000
    7      O       5.2228525000     0.1978784000     2.5929716000
    8      H       3.5732325000     0.2611511000    -1.5586033000
    9      H       1.3761075000     0.0256945000    -1.9337089000
   10      H       2.1014229000    -0.2456045000     1.4298959000
   11      H       3.2216433000     0.9521538000     0.8165849000
   12      H       3.3611715000     0.4022473000     3.4123364000
   13      O       3.3462661000    -1.6214513000    -2.2121262000
   14      H       3.0428731000    -2.4733526000    -1.8699843000
   15      O       4.9927252000    -1.2430738000     0.0560527000
   16      O       5.6354988000     0.0346103000     0.0431022000
   17      H       3.3361366000    -2.6313002000     1.2569913000
   18      H       5.6002278000     0.2300318000     1.0581701000
   19      O       3.8501431000    -1.7588662000     3.2684575000
   20      O       2.7032169000    -2.0111645000     3.8274728000
 ----------------------------------------------------------------
 Nuclear Repulsion Energy =         823.03387268 hartrees
 There are       49 alpha and       48 beta electrons
 Discretize the solute cavity surface with Lebedev spheres
	Using 110 Lebedev grid points for each H atom
	Using 194 Lebedev grid points for other atoms
	Atomic van der Waals radii will be scaled by 1.20
 Remove points where switching function is < 1.0e-08
 Keep 1606 surface tesserae and discard 1602 interior tesserae
 Molecular Surface Area = 177.327 Angst**2
 Requested basis set is 6-311++G(2df,2p)
 There are 144 shells and 488 basis functions
 A cutoff of  1.0D-11 yielded   8811 shell pairs
 There are     99748 function pairs (    124389 Cartesian)
 Smallest overlap matrix eigenvalue = 5.25E-06
 Guess MOs from SCF MO coefficient file

 -----------------------------------------------------------------------
  General SCF calculation program by
  Eric Jon Sundstrom, Paul Horn, Yuezhi Mao, Dmitri Zuev, Alec White,
  David Stuck, Shaama M.S., Shane Yost, Joonho Lee, David Small,
  Daniel Levine, Susi Lehtola, Hugh Burton, Evgeny Epifanovsky,
  Bang C. Huynh
 -----------------------------------------------------------------------
 Exchange:     0.1500 Hartree-Fock + 1.0000 wB97M-V + LR-HF
 Correlation:  1.0000 wB97M-V
 Using SG-2 standard quadrature grid
 Nonlocal Correlation:  VV10 with C = 0.0100 and b = 6.00 and scale = 1.00000
 Grid used for NLC:  SG-1 standard quadrature
 
 Citation of the SMD model:
 Marenich, A.V.; Cramer, C.J.; Truhlar, D.G.
 J. Phys. Chem. B 2009, 113, 6378-6396.
 iSolventCode=           1
 Solvent: water                                                           
 
 vradii
            1           2           3           4           5           6
    1   1.8500000   1.5200000   1.8500000   1.5200000   1.8500000   1.8500000
            7           8           9          10          11          12
    1   1.5200000   1.2000000   1.2000000   1.2000000   1.2000000   1.2000000
           13          14          15          16          17          18
    1   1.5200000   1.2000000   1.5200000   1.5200000   1.2000000   1.2000000
           19          20
    1   1.5200000   1.5200000
 -------------------------------------------------------
 OpenMP BLAS3 based DFT computing Module                
 Release: version 1.0, May 2013, Q-Chem Inc. Pittsburgh 
 -------------------------------------------------------
 A unrestricted SCF calculation will be
 performed using Roothaan-Hall, DIIS, GDM
 SCF converges when RMS gradient is below 1.0e-06
 ---------------------------------------
  Cycle       Energy         DIIS error
 ---------------------------------------
    1    -758.9010759835      2.11e-04  Roothaan Step
 ---------------------------------------
  Cycle       Energy         DIIS error
 ---------------------------------------
    1    -759.0127899637      2.29e-04  
    2    -759.0196124425      2.01e-04  Done DIIS. Switching to GDM
 ---------------------------------------
  Cycle       Energy        RMS Gradient
 ---------------------------------------
    1    -759.0196124425      1.07e-02   Normal BFGS step
    2    -759.0187400446      1.90e-02  Line search: overstep
    3    -759.0227419256      3.26e-03   Normal BFGS step
    4    -759.0229853620      8.65e-04   Normal BFGS step
    5    -759.0230301360      4.06e-04   Normal BFGS step
    6    -759.0230382229      3.05e-04   Normal BFGS step
    7    -759.0230390253      1.61e-04   Normal BFGS step
    8    -759.0230393677      1.02e-04   Normal BFGS step
    9    -759.0230394004      5.56e-05   Normal BFGS step
   10    -759.0230394235      5.41e-05   Normal BFGS step
   11    -759.0230394296      4.71e-05   Normal BFGS step
   12    -759.0230394362      3.98e-05   Normal BFGS step
   13    -759.0230394426      2.53e-05   Normal BFGS step
   14    -759.0230394461      1.58e-05   Normal BFGS step
   15    -759.0230394493      1.43e-05   Normal BFGS step
   16    -759.0230394508      6.26e-06   Normal BFGS step
   17    -759.0230394512      1.44e-06   Normal BFGS step
   18    -759.0230394516      7.13e-07  Convergence criterion met
 ---------------------------------------
 SCF time:   CPU 3092.42s  wall 213.00s 
<S^2> =          0.755804361
(3)  G-ENP(liq) elect-nuc-pol free energy of system     -759.023039452 a.u.
(4)  G-CDS(liq) cavity-dispersion-solvent structure 
     free energy                                                2.9881 kcal/mol
(6)  G-S(liq) free energy of system                     -759.018277595 a.u.
 SCF   energy in the final basis set =     -759.0182775949
 Total energy in the final basis set =     -759.0182775949
 
 --------------------------------------------------------------
 
                    Orbital Energies (a.u.)
 --------------------------------------------------------------
 
 Alpha MOs
 -- Occupied --
-19.4043 -19.3936 -19.3797 -19.3714 -19.3553 -19.3458 -19.3446 -19.2965
-10.4625 -10.4483 -10.4452 -10.3494  -1.2832  -1.2639  -1.2069  -1.1757
 -1.1350  -1.1200  -1.0160  -0.9169  -0.8973  -0.8281  -0.7420  -0.7010
 -0.6833  -0.6420  -0.6345  -0.6174  -0.5837  -0.5796  -0.5753  -0.5710
 -0.5634  -0.5421  -0.5300  -0.5247  -0.5153  -0.4890  -0.4757  -0.4568
 -0.4450  -0.4297  -0.4185  -0.4083  -0.3991  -0.3799  -0.3600  -0.3507
 -0.3300
 -- Virtual --
  0.0294   0.0423   0.0449   0.0502   0.0664   0.0722   0.0728   0.0764
  0.0977   0.1017   0.1130   0.1212   0.1224   0.1355   0.1402   0.1408
  0.1515   0.1593   0.1618   0.1704   0.1743   0.1841   0.1885   0.1963
  0.2023   0.2077   0.2147   0.2217   0.2364   0.2450   0.2494   0.2626
  0.2657   0.2781   0.2821   0.2841   0.2857   0.2927   0.2991   0.3021
  0.3097   0.3123   0.3248   0.3263   0.3344   0.3382   0.3454   0.3494
  0.3591   0.3597   0.3642   0.3664   0.3702   0.3796   0.3847   0.3912
  0.3932   0.4033   0.4041   0.4110   0.4194   0.4221   0.4258   0.4370
  0.4447   0.4550   0.4673   0.4710   0.4737   0.4834   0.4864   0.4982
  0.5252   0.5384   0.5428   0.5723   0.5968   0.6185   0.6233   0.6336
  0.6415   0.6506   0.6645   0.6735   0.6825   0.6899   0.6978   0.7143
  0.7265   0.7429   0.7549   0.7595   0.7738   0.7839   0.7998   0.8064
  0.8386   0.8392   0.8793   0.8876   0.9122   0.9148   0.9626   0.9786
  0.9875   0.9985   1.0072   1.0456   1.0592   1.0655   1.0736   1.0799
  1.0961   1.1124   1.1252   1.1279   1.1436   1.1567   1.1667   1.1741
  1.1795   1.1832   1.1919   1.2085   1.2106   1.2158   1.2195   1.2254
  1.2332   1.2429   1.2461   1.2692   1.2712   1.2884   1.2907   1.2955
  1.3039   1.3079   1.3302   1.3377   1.3537   1.3672   1.3725   1.3943
  1.4010   1.4088   1.4247   1.4356   1.4523   1.4624   1.4829   1.4992
  1.5033   1.5103   1.5253   1.5317   1.5424   1.5482   1.5738   1.5783
  1.5931   1.6188   1.6329   1.6370   1.6525   1.6706   1.6844   1.6960
  1.7036   1.7135   1.7349   1.7558   1.7783   1.7881   1.8055   1.8283
  1.8406   1.8503   1.8778   1.9025   1.9243   1.9389   1.9570   1.9684
  1.9961   2.0291   2.0575   2.0774   2.0839   2.1338   2.1604   2.1682
  2.1935   2.2180   2.2247   2.2378   2.2791   2.2849   2.3300   2.3499
  2.3771   2.3925   2.4069   2.4330   2.4522   2.4778   2.4969   2.5097
  2.5221   2.5598   2.5768   2.6163   2.6505   2.6967   2.7003   2.7358
  2.7666   2.8008   2.8073   2.8565   2.8726   2.8856   2.9055   2.9678
  2.9770   3.0039   3.0493   3.0700   3.0997   3.1264   3.1739   3.1907
  3.2160   3.2313   3.2680   3.2892   3.2948   3.3406   3.3536   3.3811
  3.4271   3.4349   3.4439   3.4747   3.4822   3.5015   3.5125   3.5493
  3.5810   3.5929   3.6180   3.6483   3.6687   3.6877   3.6950   3.7293
  3.7324   3.7570   3.7695   3.7850   3.8259   3.8345   3.8487   3.8593
  3.8767   3.8884   3.9189   3.9213   3.9543   3.9658   3.9785   3.9937
  4.0282   4.0586   4.0786   4.0962   4.1351   4.1568   4.1651   4.2060
  4.2282   4.2487   4.2532   4.2769   4.2951   4.3048   4.3194   4.3652
  4.3829   4.4060   4.4299   4.4422   4.4518   4.4894   4.5220   4.5481
  4.5719   4.6073   4.6400   4.6586   4.6824   4.6995   4.7294   4.7759
  4.7896   4.8005   4.8422   4.8876   4.9161   4.9190   5.0262   5.0675
  5.0873   5.1045   5.1168   5.1297   5.1689   5.1910   5.2205   5.2272
  5.2374   5.2486   5.2519   5.2562   5.2615   5.2663   5.2692   5.2929
  5.2977   5.3115   5.3322   5.3356   5.3411   5.3542   5.3564   5.3671
  5.3788   5.4048   5.4072   5.4143   5.4611   5.4656   5.4767   5.4871
  5.5066   5.5245   5.5369   5.5557   5.5628   5.5764   5.5945   5.6103
  5.6307   5.6483   5.6637   5.6723   5.6755   5.6842   5.6989   5.7206
  5.7578   5.7950   5.8272   5.8606   5.9066   5.9825   6.0294   6.0640
  6.0843   6.1291   6.1554   6.1605   6.2658   6.2922   6.5107   6.5155
  6.5692   6.5828   6.7510   6.8277   6.8374   6.8679   6.8845   6.9218
  6.9608   6.9805   7.0166   7.0377   7.0600   7.0858   7.1027   7.1129
  7.1399   7.1548   7.1801   7.1941   7.2601   7.2837   7.3030   7.3146
  7.3229   7.3358   7.3483   7.3964   7.4192   7.4317   7.4458   7.4582
  7.4671   7.4939   7.5240   7.5568   7.5980   7.6314   7.6549   7.6624
  7.6950   7.7836   7.8407   7.8637   7.8706   7.9060   7.9307   8.0182
  8.0434   8.0810   8.2351  24.6284  24.7143  24.7828  24.8557  50.4542
 50.5234  50.5469  50.6025  50.6334  50.6571  50.6863  50.7410
 
 Beta MOs
 -- Occupied --
-19.3936 -19.3912 -19.3714 -19.3630 -19.3553 -19.3458 -19.3446 -19.2968
-10.4625 -10.4487 -10.4452 -10.3494  -1.2642  -1.2537  -1.2068  -1.1756
 -1.1350  -1.1200  -1.0159  -0.9013  -0.8730  -0.8266  -0.7415  -0.6994
 -0.6831  -0.6416  -0.6341  -0.6142  -0.5788  -0.5721  -0.5673  -0.5552
 -0.5407  -0.5379  -0.5245  -0.5141  -0.4877  -0.4810  -0.4747  -0.4550
 -0.4443  -0.4296  -0.4147  -0.4082  -0.3985  -0.3782  -0.3511  -0.3126
 -- Virtual --
  0.0030   0.0295   0.0426   0.0451   0.0503   0.0673   0.0724   0.0730
  0.0768   0.0986   0.1033   0.1137   0.1219   0.1231   0.1359   0.1405
  0.1420   0.1521   0.1595   0.1621   0.1712   0.1746   0.1846   0.1891
  0.1973   0.2025   0.2099   0.2157   0.2221   0.2373   0.2466   0.2504
  0.2633   0.2665   0.2788   0.2835   0.2854   0.2893   0.2939   0.3022
  0.3035   0.3106   0.3156   0.3252   0.3285   0.3356   0.3396   0.3461
  0.3497   0.3598   0.3607   0.3647   0.3675   0.3733   0.3817   0.3859
  0.3923   0.3946   0.4035   0.4043   0.4113   0.4202   0.4227   0.4273
  0.4374   0.4448   0.4555   0.4675   0.4714   0.4741   0.4841   0.4867
  0.4985   0.5253   0.5386   0.5436   0.5723   0.5971   0.6188   0.6233
  0.6337   0.6419   0.6507   0.6648   0.6737   0.6830   0.6901   0.6981
  0.7144   0.7269   0.7431   0.7552   0.7595   0.7739   0.7840   0.8000
  0.8063   0.8388   0.8401   0.8793   0.8881   0.9126   0.9160   0.9630
  0.9787   0.9884   0.9991   1.0096   1.0463   1.0618   1.0681   1.0744
  1.0835   1.0966   1.1146   1.1290   1.1319   1.1483   1.1610   1.1704
  1.1780   1.1813   1.1841   1.1931   1.2124   1.2133   1.2204   1.2222
  1.2317   1.2395   1.2459   1.2493   1.2705   1.2730   1.2902   1.2935
  1.2969   1.3043   1.3096   1.3310   1.3390   1.3566   1.3701   1.3788
  1.3965   1.4017   1.4097   1.4271   1.4372   1.4535   1.4665   1.4837
  1.5013   1.5094   1.5134   1.5293   1.5352   1.5454   1.5531   1.5754
  1.5805   1.5942   1.6205   1.6357   1.6416   1.6645   1.6737   1.6898
  1.6994   1.7122   1.7183   1.7408   1.7596   1.7845   1.7892   1.8087
  1.8286   1.8430   1.8588   1.8839   1.9081   1.9244   1.9396   1.9600
  1.9733   1.9974   2.0298   2.0599   2.0780   2.0849   2.1354   2.1631
  2.1712   2.1944   2.2228   2.2265   2.2429   2.2797   2.2946   2.3397
  2.3512   2.3817   2.3932   2.4136   2.4339   2.4525   2.4795   2.4972
  2.5104   2.5222   2.5599   2.5769   2.6164   2.6507   2.6985   2.7052
  2.7368   2.7683   2.8007   2.8083   2.8566   2.8729   2.8855   2.9058
  2.9676   2.9770   3.0039   3.0489   3.0699   3.0997   3.1260   3.1737
  3.1906   3.2158   3.2313   3.2679   3.2890   3.2946   3.3406   3.3537
  3.3810   3.4269   3.4348   3.4441   3.4743   3.4819   3.5013   3.5123
  3.5493   3.5811   3.5927   3.6173   3.6481   3.6686   3.6876   3.6948
  3.7291   3.7319   3.7565   3.7695   3.7847   3.8259   3.8345   3.8487
  3.8592   3.8768   3.8884   3.9189   3.9213   3.9542   3.9659   3.9782
  3.9937   4.0283   4.0585   4.0784   4.0959   4.1352   4.1568   4.1652
  4.2061   4.2280   4.2489   4.2533   4.2767   4.2952   4.3047   4.3194
  4.3656   4.3828   4.4061   4.4301   4.4425   4.4519   4.4903   4.5227
  4.5502   4.5721   4.6202   4.6553   4.6596   4.6863   4.7090   4.7324
  4.7846   4.7991   4.8138   4.8579   4.8908   4.9190   4.9272   5.0265
  5.0679   5.1186   5.1427   5.1498   5.1872   5.1915   5.1952   5.2232
  5.2373   5.2416   5.2516   5.2614   5.2686   5.2735   5.2892   5.2976
  5.2988   5.3118   5.3292   5.3351   5.3383   5.3531   5.3604   5.3640
  5.3722   5.3813   5.4079   5.4153   5.4184   5.4629   5.4675   5.4770
  5.4884   5.5082   5.5249   5.5374   5.5564   5.5632   5.5814   5.5985
  5.6105   5.6315   5.6491   5.6662   5.6756   5.6793   5.7029   5.7104
  5.7276   5.7597   5.7955   5.8275   5.8610   5.9068   5.9826   6.0295
  6.0640   6.0843   6.1291   6.1555   6.1607   6.2658   6.2922   6.5114
  6.5621   6.5791   6.5853   6.7514   6.8296   6.8692   6.9016   6.9376
  6.9598   6.9806   7.0007   7.0366   7.0588   7.0790   7.0930   7.1049
  7.1396   7.1566   7.1706   7.1869   7.2050   7.2606   7.2841   7.3041
  7.3207   7.3232   7.3478   7.3562   7.4003   7.4216   7.4455   7.4591
  7.4603   7.4847   7.4953   7.5280   7.5595   7.5987   7.6424   7.6579
  7.6625   7.6952   7.7837   7.8409   7.8638   7.8708   7.9061   7.9308
  8.0360   8.0436   8.0983   8.2352  24.6283  24.7141  24.7828  24.8557
 50.4661  50.5237  50.5564  50.6032  50.6334  50.6573  50.6863  50.7409
 --------------------------------------------------------------
 
          Ground-State Mulliken Net Atomic Charges

     Atom                 Charge (a.u.)    Spin (a.u.)
  --------------------------------------------------------
      1 C                    -0.064357       0.002726
      2 O                    -0.424342      -0.000093
      3 C                     0.166851       0.007048
      4 O                    -0.392255      -0.003174
      5 C                    -0.440084      -0.006612
      6 C                    -0.188526      -0.009152
      7 O                    -0.650702      -0.007177
      8 H                     0.298665       0.000008
      9 H                     0.339696       0.000037
     10 H                     0.265241      -0.000529
     11 H                     0.316009      -0.001271
     12 H                     0.255928       0.001598
     13 O                    -0.463378      -0.000036
     14 H                     0.346546      -0.000051
     15 O                    -0.217207       0.001107
     16 O                    -0.361189      -0.000011
     17 H                     0.322928      -0.001253
     18 H                     0.363021       0.000287
     19 O                    -0.082080       0.420516
     20 O                    -0.390765       0.596033
  --------------------------------------------------------
  Sum of atomic charges =    -1.000000
  Sum of spin   charges =     1.000000

 -----------------------------------------------------------------
                    Cartesian Multipole Moments
 -----------------------------------------------------------------
    Charge (ESU x 10^10)
                -4.8032
    Dipole Moment (Debye)
         X     -23.6835      Y       7.4061      Z     -10.4193
       Tot      26.9132
    Quadrupole Moments (Debye-Ang)
        XX    -199.4209     XY      24.0908     YY     -82.4721
        XZ     -39.1594     YZ      12.0458     ZZ    -115.6347
    Octopole Moments (Debye-Ang^2)
       XXX   -1498.1873    XXY     156.8962    XYY    -301.7267
       YYY     203.9274    XXZ    -237.1585    XYZ      32.1063
       YYZ     -92.3223    XZZ    -448.0676    YZZ     138.6885
       ZZZ    -319.4210
    Hexadecapole Moments (Debye-Ang^3)
      XXXX  -10351.9274   XXXY    1039.7325   XXYY   -1356.5116
      XYYY     680.9024   YYYY    -757.0852   XXXZ   -1628.1289
      XXYZ     134.0963   XYYZ    -340.9659   YYYZ     243.4453
      XXZZ   -2203.6756   XYZZ     433.6812   YYZZ    -573.8419
      XZZZ   -1239.6966   YZZZ     390.9279   ZZZZ   -2427.1338
 -----------------------------------------------------------------
 Calculating analytic gradient of the SCF energy
 Gradient of CDS energy
            1           2           3           4           5           6
    1  -0.0010364   0.0018305  -0.0009447   0.0010195  -0.0001222   0.0036042
    2  -0.0014761  -0.0004855  -0.0026523   0.0029204   0.0000607   0.0011940
    3  -0.0020796   0.0000063   0.0004351  -0.0005423  -0.0000400   0.0004746
            7           8           9          10          11          12
    1  -0.0031556   0.0001959  -0.0004364  -0.0001558   0.0000515  -0.0002583
    2  -0.0008563   0.0000841   0.0002085  -0.0001462   0.0000581  -0.0001499
    3  -0.0000700   0.0001001  -0.0001876  -0.0000067  -0.0001773   0.0001941
           13          14          15          16          17          18
    1  -0.0005406  -0.0000520  -0.0000191  -0.0001474  -0.0000273   0.0002760
    2   0.0020320  -0.0004425   0.0000345  -0.0001578  -0.0004130   0.0001741
    3   0.0020959  -0.0002188  -0.0000400  -0.0001702   0.0000918   0.0000271
           19          20
    1  -0.0001209   0.0000390
    2   0.0000066   0.0000065
    3   0.0000070   0.0001005
 Gradient of SCF Energy
            1           2           3           4           5           6
    1   0.0017448  -0.0160484   0.0430225   0.0002318  -0.0592638  -0.0107377
    2   0.0364834  -0.0001531  -0.0222521  -0.0183600   0.0376110   0.0050687
    3  -0.0110734  -0.0004236  -0.0031532   0.0205555  -0.0125835   0.0088946
            7           8           9          10          11          12
    1   0.0270587  -0.0172645   0.0054264   0.0267549  -0.0061955   0.0034266
    2  -0.0021896  -0.0182495  -0.0015375   0.0084532  -0.0200136   0.0030567
    3   0.0131386   0.0054117   0.0035560  -0.0040245   0.0056292  -0.0036590
           13          14          15          16          17          18
    1   0.0028024   0.0025698  -0.0013806   0.0031745  -0.0047364  -0.0043215
    2  -0.0203590   0.0180142  -0.0195599   0.0153245   0.0113290   0.0024148
    3   0.0006849  -0.0069672   0.0074487   0.0080526  -0.0282222  -0.0116497
           19          20
    1   0.0061151  -0.0023791
    2  -0.0143777  -0.0007034
    3   0.0058258   0.0025586
 Max gradient component =       5.926E-02
 RMS gradient           =       1.633E-02
 Computing fast CPCM-SWIG gradient
 Updating gradient with PCM contributions...
 -- total gradient after adding PCM contribution --
---------------------------------------------------
  Atom         X              Y              Z     
---------------------------------------------------
   1       0.001544      -0.000021       0.000745
   2      -0.000975       0.000092      -0.000506
   3       0.000169       0.002273       0.001473
   4      -0.000608      -0.002223      -0.000452
   5      -0.005101       0.009718      -0.007900
   6      -0.021040      -0.018437      -0.042128
   7       0.032672       0.008028       0.019120
   8      -0.000243      -0.000259       0.000049
   9      -0.000057      -0.000057       0.000021
  10      -0.000731      -0.000185      -0.001007
  11      -0.001110      -0.000933      -0.001654
  12      -0.006785       0.015375       0.025933
  13      -0.000283      -0.000268      -0.000545
  14       0.000031       0.000055       0.000066
  15      -0.000048      -0.000307      -0.000410
  16       0.002889      -0.002214      -0.016111
  17       0.000117       0.000002      -0.001653
  18      -0.004772       0.001770       0.011479
  19       0.005437      -0.011718       0.012217
  20      -0.001106      -0.000691       0.001265
---------------------------------------------------
 Number of fixed atoms: 0
 Gradient time:  CPU 394.14 s  wall 33.88 s
 ----------------------------------------------------------------
             Standard Nuclear Orientation (Angstroms)
    I     Atom           X                Y                Z
 ----------------------------------------------------------------
    1      C       3.0556807000    -0.6440855000    -1.2434678000
    2      O       1.6708130000    -0.4214322000    -1.1323478000
    3      C       3.5731200000    -1.0625794000     0.1400414000
    4      O       3.0903007000    -2.3586694000     0.3636560000
    5      C       3.1525753000    -0.0599283000     1.2170720000
    6      C       3.9357118000    -0.0590888000     2.5309354000
    7      O       5.2228525000     0.1978784000     2.5929716000
    8      H       3.5732325000     0.2611511000    -1.5586033000
    9      H       1.3761075000     0.0256945000    -1.9337089000
   10      H       2.1014229000    -0.2456045000     1.4298959000
   11      H       3.2216433000     0.9521538000     0.8165849000
   12      H       3.3611715000     0.4022473000     3.4123364000
   13      O       3.3462661000    -1.6214513000    -2.2121262000
   14      H       3.0428731000    -2.4733526000    -1.8699843000
   15      O       4.9927252000    -1.2430738000     0.0560527000
   16      O       5.6354988000     0.0346103000     0.0431022000
   17      H       3.3361366000    -2.6313002000     1.2569913000
   18      H       5.6002278000     0.2300318000     1.0581701000
   19      O       3.8501431000    -1.7588662000     3.2684575000
   20      O       2.7032169000    -2.0111645000     3.8274728000
 ----------------------------------------------------------------
 Nuclear Repulsion Energy =         823.03257517 hartrees
 There are       49 alpha and       48 beta electrons
 Discretize the solute cavity surface with Lebedev spheres
	Using 110 Lebedev grid points for each H atom
	Using 194 Lebedev grid points for other atoms
	Atomic van der Waals radii will be scaled by 1.20
 Remove points where switching function is < 1.0e-08
 Keep 1606 surface tesserae and discard 1602 interior tesserae
 Molecular Surface Area = 177.327 Angst**2
 Requested basis set is 6-311++G(2df,2p)
 There are 144 shells and 488 basis functions
 A cutoff of  1.0D-11 yielded   8811 shell pairs
 There are     99748 function pairs (    124389 Cartesian)
 Smallest overlap matrix eigenvalue = 5.26E-06
 Guess MOs from SCF MO coefficient file

 -----------------------------------------------------------------------
  General SCF calculation program by
  Eric Jon Sundstrom, Paul Horn, Yuezhi Mao, Dmitri Zuev, Alec White,
  David Stuck, Shaama M.S., Shane Yost, Joonho Lee, David Small,
  Daniel Levine, Susi Lehtola, Hugh Burton, Evgeny Epifanovsky,
  Bang C. Huynh
 -----------------------------------------------------------------------
 Exchange:     0.1500 Hartree-Fock + 1.0000 wB97M-V + LR-HF
 Correlation:  1.0000 wB97M-V
 Using SG-2 standard quadrature grid
 Nonlocal Correlation:  VV10 with C = 0.0100 and b = 6.00 and scale = 1.00000
 Grid used for NLC:  SG-1 standard quadrature
 
 Citation of the SMD model:
 Marenich, A.V.; Cramer, C.J.; Truhlar, D.G.
 J. Phys. Chem. B 2009, 113, 6378-6396.
 iSolventCode=           1
 Solvent: water                                                           
 
 vradii
            1           2           3           4           5           6
    1   1.8500000   1.5200000   1.8500000   1.5200000   1.8500000   1.8500000
            7           8           9          10          11          12
    1   1.5200000   1.2000000   1.2000000   1.2000000   1.2000000   1.2000000
           13          14          15          16          17          18
    1   1.5200000   1.2000000   1.5200000   1.5200000   1.2000000   1.2000000
           19          20
    1   1.5200000   1.5200000
 -------------------------------------------------------
 OpenMP BLAS3 based DFT computing Module                
 Release: version 1.0, May 2013, Q-Chem Inc. Pittsburgh 
 -------------------------------------------------------
 A unrestricted SCF calculation will be
 performed using Roothaan-Hall, DIIS, GDM
 SCF converges when RMS gradient is below 1.0e-06
 ---------------------------------------
  Cycle       Energy         DIIS error
 ---------------------------------------
    1    -758.9010826437      2.11e-04  Roothaan Step
 ---------------------------------------
  Cycle       Energy         DIIS error
 ---------------------------------------
    1    -759.0128032526      2.29e-04  
    2    -759.0196276226      2.01e-04  Done DIIS. Switching to GDM
 ---------------------------------------
  Cycle       Energy        RMS Gradient
 ---------------------------------------
    1    -759.0196276226      1.07e-02   Normal BFGS step
    2    -759.0187555983      1.90e-02  Line search: overstep
    3    -759.0227481528      3.25e-03   Normal BFGS step
    4    -759.0229917430      8.65e-04   Normal BFGS step
    5    -759.0230363971      4.06e-04   Normal BFGS step
    6    -759.0230444642      3.07e-04   Normal BFGS step
    7    -759.0230452659      1.62e-04   Normal BFGS step
    8    -759.0230456095      1.02e-04   Normal BFGS step
    9    -759.0230456421      5.55e-05   Normal BFGS step
   10    -759.0230456653      5.41e-05   Normal BFGS step
   11    -759.0230456713      4.71e-05   Normal BFGS step
   12    -759.0230456780      3.98e-05   Normal BFGS step
   13    -759.0230456843      2.53e-05   Normal BFGS step
   14    -759.0230456877      1.58e-05   Normal BFGS step
   15    -759.0230456910      1.44e-05   Normal BFGS step
   16    -759.0230456924      6.28e-06   Normal BFGS step
   17    -759.0230456928      1.46e-06   Normal BFGS step
   18    -759.0230456933      7.17e-07  Convergence criterion met
 ---------------------------------------
 SCF time:   CPU 2854.34s  wall 196.00s 
<S^2> =          0.755804255
(3)  G-ENP(liq) elect-nuc-pol free energy of system     -759.023045693 a.u.
(4)  G-CDS(liq) cavity-dispersion-solvent structure 
     free energy                                                2.9911 kcal/mol
(6)  G-S(liq) free energy of system                     -759.018279098 a.u.
 SCF   energy in the final basis set =     -759.0182790979
 Total energy in the final basis set =     -759.0182790979
 
 --------------------------------------------------------------
 
                    Orbital Energies (a.u.)
 --------------------------------------------------------------
 
 Alpha MOs
 -- Occupied --
-19.4043 -19.3936 -19.3797 -19.3714 -19.3553 -19.3460 -19.3444 -19.2965
-10.4625 -10.4483 -10.4452 -10.3494  -1.2832  -1.2638  -1.2071  -1.1758
 -1.1352  -1.1200  -1.0159  -0.9169  -0.8972  -0.8280  -0.7418  -0.7009
 -0.6834  -0.6423  -0.6344  -0.6173  -0.5837  -0.5796  -0.5754  -0.5710
 -0.5634  -0.5422  -0.5300  -0.5247  -0.5152  -0.4889  -0.4757  -0.4567
 -0.4449  -0.4297  -0.4185  -0.4084  -0.3991  -0.3798  -0.3600  -0.3507
 -0.3300
 -- Virtual --
  0.0294   0.0423   0.0449   0.0502   0.0664   0.0722   0.0728   0.0764
  0.0977   0.1017   0.1129   0.1212   0.1224   0.1355   0.1402   0.1408
  0.1515   0.1593   0.1618   0.1704   0.1743   0.1841   0.1885   0.1963
  0.2023   0.2077   0.2148   0.2219   0.2364   0.2451   0.2494   0.2626
  0.2658   0.2781   0.2821   0.2842   0.2857   0.2927   0.2992   0.3020
  0.3096   0.3123   0.3250   0.3263   0.3344   0.3382   0.3453   0.3495
  0.3591   0.3596   0.3643   0.3664   0.3702   0.3796   0.3847   0.3912
  0.3931   0.4033   0.4041   0.4110   0.4194   0.4221   0.4257   0.4370
  0.4448   0.4550   0.4673   0.4710   0.4738   0.4834   0.4864   0.4982
  0.5252   0.5384   0.5428   0.5722   0.5968   0.6185   0.6233   0.6336
  0.6415   0.6506   0.6646   0.6736   0.6825   0.6898   0.6977   0.7144
  0.7265   0.7430   0.7549   0.7595   0.7737   0.7838   0.7998   0.8064
  0.8386   0.8392   0.8793   0.8875   0.9122   0.9148   0.9626   0.9786
  0.9876   0.9986   1.0072   1.0455   1.0592   1.0655   1.0735   1.0800
  1.0961   1.1124   1.1252   1.1278   1.1436   1.1567   1.1667   1.1741
  1.1795   1.1832   1.1920   1.2085   1.2106   1.2158   1.2194   1.2254
  1.2333   1.2430   1.2462   1.2692   1.2712   1.2885   1.2908   1.2954
  1.3040   1.3079   1.3302   1.3377   1.3537   1.3672   1.3725   1.3942
  1.4008   1.4089   1.4247   1.4355   1.4524   1.4624   1.4829   1.4992
  1.5033   1.5103   1.5253   1.5317   1.5423   1.5479   1.5739   1.5783
  1.5930   1.6188   1.6327   1.6370   1.6525   1.6705   1.6844   1.6959
  1.7035   1.7134   1.7346   1.7559   1.7784   1.7881   1.8053   1.8283
  1.8405   1.8504   1.8777   1.9024   1.9243   1.9388   1.9572   1.9685
  1.9963   2.0292   2.0574   2.0774   2.0841   2.1339   2.1604   2.1683
  2.1936   2.2180   2.2247   2.2380   2.2793   2.2851   2.3300   2.3500
  2.3775   2.3927   2.4070   2.4333   2.4522   2.4778   2.4969   2.5097
  2.5220   2.5602   2.5768   2.6163   2.6506   2.6966   2.7003   2.7359
  2.7666   2.8009   2.8074   2.8569   2.8725   2.8856   2.9056   2.9679
  2.9771   3.0038   3.0493   3.0700   3.0996   3.1264   3.1740   3.1908
  3.2158   3.2309   3.2680   3.2892   3.2947   3.3408   3.3539   3.3810
  3.4272   3.4348   3.4439   3.4748   3.4821   3.5016   3.5124   3.5495
  3.5811   3.5933   3.6181   3.6486   3.6688   3.6879   3.6947   3.7294
  3.7323   3.7568   3.7693   3.7849   3.8256   3.8344   3.8485   3.8595
  3.8766   3.8882   3.9189   3.9213   3.9546   3.9660   3.9785   3.9937
  4.0282   4.0580   4.0787   4.0962   4.1353   4.1564   4.1652   4.2058
  4.2282   4.2490   4.2531   4.2767   4.2952   4.3048   4.3190   4.3647
  4.3826   4.4060   4.4296   4.4420   4.4517   4.4894   4.5216   4.5477
  4.5713   4.6072   4.6397   4.6585   4.6822   4.6994   4.7293   4.7759
  4.7895   4.8005   4.8422   4.8874   4.9160   4.9190   5.0262   5.0675
  5.0872   5.1045   5.1168   5.1293   5.1689   5.1910   5.2205   5.2270
  5.2374   5.2487   5.2520   5.2562   5.2615   5.2663   5.2692   5.2927
  5.2978   5.3113   5.3322   5.3356   5.3411   5.3542   5.3564   5.3670
  5.3786   5.4046   5.4067   5.4144   5.4610   5.4657   5.4766   5.4871
  5.5066   5.5244   5.5371   5.5557   5.5630   5.5764   5.5945   5.6104
  5.6305   5.6482   5.6636   5.6722   5.6757   5.6842   5.6988   5.7211
  5.7577   5.7958   5.8273   5.8603   5.9072   5.9829   6.0299   6.0635
  6.0844   6.1300   6.1573   6.1620   6.2658   6.2922   6.5107   6.5155
  6.5692   6.5837   6.7526   6.8278   6.8374   6.8679   6.8845   6.9218
  6.9608   6.9805   7.0166   7.0377   7.0599   7.0858   7.1028   7.1130
  7.1399   7.1548   7.1801   7.1941   7.2602   7.2838   7.3030   7.3147
  7.3231   7.3359   7.3484   7.3964   7.4194   7.4318   7.4459   7.4583
  7.4673   7.4940   7.5240   7.5569   7.5979   7.6314   7.6550   7.6622
  7.6952   7.7838   7.8408   7.8639   7.8706   7.9063   7.9308   8.0182
  8.0435   8.0810   8.2351  24.6285  24.7143  24.7833  24.8554  50.4542
 50.5234  50.5469  50.6025  50.6339  50.6571  50.6864  50.7410
 
 Beta MOs
 -- Occupied --
-19.3936 -19.3912 -19.3714 -19.3630 -19.3552 -19.3460 -19.3444 -19.2967
-10.4625 -10.4486 -10.4451 -10.3493  -1.2641  -1.2537  -1.2070  -1.1757
 -1.1352  -1.1200  -1.0159  -0.9013  -0.8730  -0.8264  -0.7414  -0.6994
 -0.6832  -0.6418  -0.6340  -0.6141  -0.5788  -0.5721  -0.5673  -0.5553
 -0.5408  -0.5380  -0.5245  -0.5141  -0.4876  -0.4810  -0.4746  -0.4549
 -0.4442  -0.4295  -0.4147  -0.4083  -0.3985  -0.3781  -0.3511  -0.3125
 -- Virtual --
  0.0030   0.0295   0.0426   0.0451   0.0503   0.0673   0.0724   0.0730
  0.0768   0.0986   0.1033   0.1137   0.1219   0.1231   0.1359   0.1405
  0.1420   0.1521   0.1594   0.1621   0.1712   0.1746   0.1846   0.1891
  0.1973   0.2025   0.2099   0.2158   0.2222   0.2373   0.2467   0.2504
  0.2633   0.2665   0.2788   0.2836   0.2855   0.2893   0.2939   0.3021
  0.3036   0.3105   0.3156   0.3254   0.3285   0.3356   0.3395   0.3461
  0.3498   0.3598   0.3606   0.3648   0.3674   0.3733   0.3817   0.3859
  0.3923   0.3946   0.4035   0.4043   0.4113   0.4202   0.4227   0.4273
  0.4374   0.4449   0.4555   0.4675   0.4713   0.4742   0.4841   0.4867
  0.4985   0.5253   0.5386   0.5436   0.5722   0.5970   0.6188   0.6234
  0.6337   0.6420   0.6508   0.6648   0.6737   0.6830   0.6900   0.6980
  0.7145   0.7269   0.7431   0.7552   0.7595   0.7738   0.7839   0.7999
  0.8064   0.8388   0.8402   0.8793   0.8880   0.9127   0.9160   0.9630
  0.9787   0.9884   0.9992   1.0096   1.0462   1.0618   1.0681   1.0743
  1.0836   1.0966   1.1146   1.1289   1.1318   1.1483   1.1610   1.1704
  1.1780   1.1812   1.1841   1.1931   1.2124   1.2132   1.2204   1.2221
  1.2317   1.2396   1.2460   1.2494   1.2705   1.2730   1.2902   1.2936
  1.2969   1.3043   1.3096   1.3310   1.3390   1.3566   1.3701   1.3788
  1.3965   1.4015   1.4098   1.4271   1.4372   1.4536   1.4665   1.4837
  1.5013   1.5094   1.5134   1.5293   1.5352   1.5452   1.5530   1.5754
  1.5805   1.5941   1.6204   1.6355   1.6416   1.6645   1.6736   1.6897
  1.6994   1.7122   1.7182   1.7407   1.7596   1.7845   1.7893   1.8085
  1.8286   1.8428   1.8588   1.8839   1.9080   1.9244   1.9395   1.9602
  1.9734   1.9976   2.0299   2.0599   2.0780   2.0851   2.1355   2.1632
  2.1713   2.1945   2.2230   2.2265   2.2431   2.2799   2.2948   2.3397
  2.3514   2.3820   2.3934   2.4137   2.4342   2.4525   2.4795   2.4972
  2.5105   2.5222   2.5603   2.5769   2.6163   2.6507   2.6985   2.7052
  2.7369   2.7683   2.8008   2.8083   2.8570   2.8729   2.8855   2.9059
  2.9677   2.9771   3.0038   3.0489   3.0699   3.0996   3.1260   3.1739
  3.1908   3.2155   3.2309   3.2680   3.2890   3.2945   3.3409   3.3540
  3.3809   3.4271   3.4347   3.4442   3.4744   3.4818   3.5013   3.5122
  3.5495   3.5811   3.5930   3.6173   3.6483   3.6686   3.6878   3.6945
  3.7292   3.7318   3.7563   3.7693   3.7845   3.8255   3.8344   3.8485
  3.8593   3.8767   3.8881   3.9189   3.9214   3.9545   3.9661   3.9782
  3.9938   4.0283   4.0579   4.0785   4.0960   4.1354   4.1564   4.1653
  4.2059   4.2280   4.2492   4.2532   4.2766   4.2952   4.3047   4.3191
  4.3651   4.3825   4.4060   4.4298   4.4424   4.4518   4.4903   4.5224
  4.5498   4.5715   4.6200   4.6551   4.6595   4.6861   4.7090   4.7323
  4.7845   4.7990   4.8138   4.8579   4.8906   4.9189   4.9272   5.0265
  5.0678   5.1184   5.1427   5.1498   5.1872   5.1915   5.1952   5.2231
  5.2373   5.2415   5.2518   5.2614   5.2686   5.2735   5.2891   5.2976
  5.2988   5.3117   5.3292   5.3352   5.3383   5.3532   5.3604   5.3639
  5.3719   5.3811   5.4073   5.4154   5.4183   5.4628   5.4676   5.4770
  5.4884   5.5082   5.5248   5.5376   5.5565   5.5633   5.5814   5.5984
  5.6106   5.6314   5.6490   5.6660   5.6758   5.6792   5.7030   5.7105
  5.7279   5.7596   5.7963   5.8276   5.8607   5.9073   5.9829   6.0300
  6.0635   6.0844   6.1301   6.1575   6.1621   6.2659   6.2922   6.5115
  6.5621   6.5795   6.5859   6.7530   6.8298   6.8691   6.9016   6.9376
  6.9598   6.9806   7.0007   7.0366   7.0588   7.0790   7.0930   7.1050
  7.1396   7.1566   7.1706   7.1869   7.2050   7.2607   7.2842   7.3040
  7.3208   7.3234   7.3478   7.3562   7.4004   7.4218   7.4456   7.4592
  7.4604   7.4848   7.4953   7.5280   7.5595   7.5986   7.6425   7.6579
  7.6623   7.6954   7.7839   7.8410   7.8641   7.8709   7.9064   7.9309
  8.0360   8.0436   8.0983   8.2351  24.6284  24.7141  24.7833  24.8554
 50.4661  50.5237  50.5564  50.6032  50.6339  50.6573  50.6864  50.7409
 --------------------------------------------------------------
 
          Ground-State Mulliken Net Atomic Charges

     Atom                 Charge (a.u.)    Spin (a.u.)
  --------------------------------------------------------
      1 C                    -0.064243       0.002724
      2 O                    -0.423283      -0.000093
      3 C                     0.167125       0.007045
      4 O                    -0.392220      -0.003173
      5 C                    -0.440186      -0.006609
      6 C                    -0.188690      -0.009150
      7 O                    -0.650715      -0.007177
      8 H                     0.297951       0.000007
      9 H                     0.339809       0.000037
     10 H                     0.265238      -0.000529
     11 H                     0.316051      -0.001271
     12 H                     0.255910       0.001598
     13 O                    -0.463698      -0.000037
     14 H                     0.346407      -0.000051
     15 O                    -0.217209       0.001107
     16 O                    -0.361299      -0.000012
     17 H                     0.322890      -0.001252
     18 H                     0.363013       0.000287
     19 O                    -0.082066       0.420525
     20 O                    -0.390785       0.596023
  --------------------------------------------------------
  Sum of atomic charges =    -1.000000
  Sum of spin   charges =     1.000000

 -----------------------------------------------------------------
                    Cartesian Multipole Moments
 -----------------------------------------------------------------
    Charge (ESU x 10^10)
                -4.8032
    Dipole Moment (Debye)
         X     -23.6973      Y       7.4095      Z     -10.4187
       Tot      26.9260
    Quadrupole Moments (Debye-Ang)
        XX    -199.4917     XY      24.1055     YY     -82.4844
        XZ     -39.1397     YZ      12.0406     ZZ    -115.6479
    Octopole Moments (Debye-Ang^2)
       XXX   -1498.4597    XXY     156.9499    XYY    -301.7651
       YYY     203.9616    XXZ    -237.0596    XYZ      32.0839
       YYZ     -92.3072    XZZ    -448.1308    YZZ     138.7112
       ZZZ    -319.4054
    Hexadecapole Moments (Debye-Ang^3)
      XXXX  -10352.8045   XXXY    1039.8980   XXYY   -1356.6218
      XYYY     680.9928   YYYY    -757.1950   XXXZ   -1627.7507
      XXYZ     134.0108   XYYZ    -340.9210   YYYZ     243.4075
      XXZZ   -2203.9192   XYZZ     433.7493   YYZZ    -573.9106
      XZZZ   -1239.6317   YZZZ     390.8781   ZZZZ   -2427.2901
 -----------------------------------------------------------------
 Calculating analytic gradient of the SCF energy
 Gradient of CDS energy
            1           2           3           4           5           6
    1  -0.0014699   0.0022391  -0.0009447   0.0010200  -0.0001221   0.0036042
    2  -0.0013343  -0.0005535  -0.0026523   0.0029203   0.0000606   0.0011940
    3  -0.0019737  -0.0000270   0.0004351  -0.0005422  -0.0000399   0.0004746
            7           8           9          10          11          12
    1  -0.0031556   0.0001994  -0.0004352  -0.0001554   0.0000517  -0.0002583
    2  -0.0008563   0.0000823   0.0002081  -0.0001462   0.0000580  -0.0001499
    3  -0.0000700   0.0000987  -0.0001879  -0.0000064  -0.0001770   0.0001941
           13          14          15          16          17          18
    1  -0.0005219  -0.0000517  -0.0000191  -0.0001474  -0.0000273   0.0002760
    2   0.0019610  -0.0004428   0.0000345  -0.0001578  -0.0004130   0.0001741
    3   0.0020250  -0.0002192  -0.0000403  -0.0001704   0.0000918   0.0000271
           19          20
    1  -0.0001209   0.0000390
    2   0.0000066   0.0000065
    3   0.0000070   0.0001005
 Gradient of SCF Energy
            1           2           3           4           5           6
    1  -0.0002637  -0.0148619   0.0431545   0.0002371  -0.0592650  -0.0107290
    2   0.0363480  -0.0003177  -0.0222787  -0.0183569   0.0376117   0.0050599
    3  -0.0109965  -0.0003895  -0.0029856   0.0205201  -0.0126305   0.0089077
            7           8           9          10          11          12
    1   0.0270587  -0.0169369   0.0054945   0.0267406  -0.0062066   0.0034251
    2  -0.0021917  -0.0178331  -0.0015367   0.0084504  -0.0200099   0.0030562
    3   0.0131362   0.0052733   0.0035192  -0.0040289   0.0056342  -0.0036626
           13          14          15          16          17          18
    1   0.0030447   0.0025477  -0.0012759   0.0031701  -0.0047460  -0.0043256
    2  -0.0204521   0.0180468  -0.0195948   0.0153223   0.0113420   0.0024155
    3   0.0005467  -0.0069286   0.0075310   0.0080450  -0.0282240  -0.0116507
           19          20
    1   0.0061150  -0.0023773
    2  -0.0143778  -0.0007036
    3   0.0058248   0.0025584
 Max gradient component =       5.927E-02
 RMS gradient           =       1.630E-02
 Computing fast CPCM-SWIG gradient
 Updating gradient with PCM contributions...
 -- total gradient after adding PCM contribution --
---------------------------------------------------
  Atom         X              Y              Z     
---------------------------------------------------
   1      -0.000749      -0.000228       0.000808
   2       0.000220      -0.000029      -0.000496
   3       0.000439       0.002232       0.001615
   4      -0.000626      -0.002179      -0.000519
   5      -0.005131       0.009732      -0.007922
   6      -0.021026      -0.018446      -0.042129
   7       0.032669       0.008028       0.019119
   8       0.000145       0.000123      -0.000085
   9       0.000033      -0.000068       0.000002
  10      -0.000728      -0.000183      -0.001008
  11      -0.001112      -0.000935      -0.001651
  12      -0.006787       0.015375       0.025929
  13      -0.000016      -0.000316      -0.000664
  14       0.000024       0.000090       0.000110
  15       0.000085      -0.000358      -0.000310
  16       0.002883      -0.002215      -0.016111
  17       0.000118       0.000015      -0.001651
  18      -0.004771       0.001771       0.011480
  19       0.005436      -0.011717       0.012217
  20      -0.001105      -0.000691       0.001265
---------------------------------------------------
 Number of fixed atoms: 0
 Gradient time:  CPU 375.09 s  wall 32.74 s
 ----------------------------------------------------------------
             Standard Nuclear Orientation (Angstroms)
    I     Atom           X                Y                Z
 ----------------------------------------------------------------
    1      C       3.0566807000    -0.6430855000    -1.2434678000
    2      O       1.6708130000    -0.4214322000    -1.1323478000
    3      C       3.5731200000    -1.0625794000     0.1400414000
    4      O       3.0903007000    -2.3586694000     0.3636560000
    5      C       3.1525753000    -0.0599283000     1.2170720000
    6      C       3.9357118000    -0.0590888000     2.5309354000
    7      O       5.2228525000     0.1978784000     2.5929716000
    8      H       3.5732325000     0.2611511000    -1.5586033000
    9      H       1.3761075000     0.0256945000    -1.9337089000
   10      H       2.1014229000    -0.2456045000     1.4298959000
   11      H       3.2216433000     0.9521538000     0.8165849000
   12      H       3.3611715000     0.4022473000     3.4123364000
   13      O       3.3462661000    -1.6214513000    -2.2121262000
   14      H       3.0428731000    -2.4733526000    -1.8699843000
   15      O       4.9927252000    -1.2430738000     0.0560527000
   16      O       5.6354988000     0.0346103000     0.0431022000
   17      H       3.3361366000    -2.6313002000     1.2569913000
   18      H       5.6002278000     0.2300318000     1.0581701000
   19      O       3.8501431000    -1.7588662000     3.2684575000
   20      O       2.7032169000    -2.0111645000     3.8274728000
 ----------------------------------------------------------------
 Nuclear Repulsion Energy =         823.02288636 hartrees
 There are       49 alpha and       48 beta electrons
 Discretize the solute cavity surface with Lebedev spheres
	Using 110 Lebedev grid points for each H atom
	Using 194 Lebedev grid points for other atoms
	Atomic van der Waals radii will be scaled by 1.20
 Remove points where switching function is < 1.0e-08
 Keep 1605 surface tesserae and discard 1603 interior tesserae
 Molecular Surface Area = 177.326 Angst**2
 Requested basis set is 6-311++G(2df,2p)
 There are 144 shells and 488 basis functions
 A cutoff of  1.0D-11 yielded   8811 shell pairs
 There are     99748 function pairs (    124389 Cartesian)
 Smallest overlap matrix eigenvalue = 5.25E-06
 Guess MOs from SCF MO coefficient file

 -----------------------------------------------------------------------
  General SCF calculation program by
  Eric Jon Sundstrom, Paul Horn, Yuezhi Mao, Dmitri Zuev, Alec White,
  David Stuck, Shaama M.S., Shane Yost, Joonho Lee, David Small,
  Daniel Levine, Susi Lehtola, Hugh Burton, Evgeny Epifanovsky,
  Bang C. Huynh
 -----------------------------------------------------------------------
 Exchange:     0.1500 Hartree-Fock + 1.0000 wB97M-V + LR-HF
 Correlation:  1.0000 wB97M-V
 Using SG-2 standard quadrature grid
 Nonlocal Correlation:  VV10 with C = 0.0100 and b = 6.00 and scale = 1.00000
 Grid used for NLC:  SG-1 standard quadrature
 
 Citation of the SMD model:
 Marenich, A.V.; Cramer, C.J.; Truhlar, D.G.
 J. Phys. Chem. B 2009, 113, 6378-6396.
 iSolventCode=           1
 Solvent: water                                                           
 
 vradii
            1           2           3           4           5           6
    1   1.8500000   1.5200000   1.8500000   1.5200000   1.8500000   1.8500000
            7           8           9          10          11          12
    1   1.5200000   1.2000000   1.2000000   1.2000000   1.2000000   1.2000000
           13          14          15          16          17          18
    1   1.5200000   1.2000000   1.5200000   1.5200000   1.2000000   1.2000000
           19          20
    1   1.5200000   1.5200000
 -------------------------------------------------------
 OpenMP BLAS3 based DFT computing Module                
 Release: version 1.0, May 2013, Q-Chem Inc. Pittsburgh 
 -------------------------------------------------------
 A unrestricted SCF calculation will be
 performed using Roothaan-Hall, DIIS, GDM
 SCF converges when RMS gradient is below 1.0e-06
 ---------------------------------------
  Cycle       Energy         DIIS error
 ---------------------------------------
    1    -758.9010541802      2.11e-04  Roothaan Step
 ---------------------------------------
  Cycle       Energy         DIIS error
 ---------------------------------------
    1    -759.0127773759      2.30e-04  
    2    -759.0196082817      2.01e-04  Done DIIS. Switching to GDM
 ---------------------------------------
  Cycle       Energy        RMS Gradient
 ---------------------------------------
    1    -759.0196082817      1.07e-02   Normal BFGS step
    2    -759.0187357225      1.90e-02  Line search: overstep
    3    -759.0227420064      3.26e-03   Normal BFGS step
    4    -759.0229857718      8.65e-04   Normal BFGS step
    5    -759.0230306014      4.08e-04   Normal BFGS step
    6    -759.0230387120      3.06e-04   Normal BFGS step
    7    -759.0230395152      1.62e-04   Normal BFGS step
    8    -759.0230398586      1.02e-04   Normal BFGS step
    9    -759.0230398914      5.55e-05   Normal BFGS step
   10    -759.0230399145      5.41e-05   Normal BFGS step
   11    -759.0230399205      4.71e-05   Normal BFGS step
   12    -759.0230399272      3.98e-05   Normal BFGS step
   13    -759.0230399336      2.53e-05   Normal BFGS step
   14    -759.0230399370      1.58e-05   Normal BFGS step
   15    -759.0230399403      1.43e-05   Normal BFGS step
   16    -759.0230399417      6.26e-06   Normal BFGS step
   17    -759.0230399422      1.45e-06   Normal BFGS step
   18    -759.0230399426      7.15e-07  Convergence criterion met
 ---------------------------------------
 SCF time:   CPU 2855.44s  wall 197.00s 
<S^2> =          0.755804270
(3)  G-ENP(liq) elect-nuc-pol free energy of system     -759.023039943 a.u.
(4)  G-CDS(liq) cavity-dispersion-solvent structure 
     free energy                                                2.9879 kcal/mol
(6)  G-S(liq) free energy of system                     -759.018278452 a.u.
 SCF   energy in the final basis set =     -759.0182784523
 Total energy in the final basis set =     -759.0182784523
 
 --------------------------------------------------------------
 
[...]
            7           8           9          10          11          12
    1  -0.0194562  -0.0163058   0.0058499   0.0281192  -0.0041266   0.0139539
    2  -0.0085735  -0.0175141  -0.0013133   0.0102853  -0.0173995  -0.0011816
    3   0.0007006   0.0060458   0.0034413  -0.0041956   0.0077072  -0.0306312
           13          14          15          16          17          18
    1   0.0027151   0.0027464  -0.0019437   0.0020753   0.0009274  -0.0010598
    2  -0.0214096   0.0193792  -0.0192837   0.0170527   0.0115415   0.0002044
    3   0.0021740  -0.0083560   0.0069672   0.0211541  -0.0334240  -0.0232870
           19          20
    1   0.0068995  -0.0060626
    2  -0.0066084  -0.0028367
    3  -0.0137061   0.0104345
 Max gradient component =       6.246E-02
 RMS gradient           =       1.879E-02
 Computing fast CPCM-SWIG gradient
 Updating gradient with PCM contributions...
 -- total gradient after adding PCM contribution --
---------------------------------------------------
  Atom         X              Y              Z     
---------------------------------------------------
   1      -0.000004       0.000009       0.000000
   2      -0.000005      -0.000000       0.000006
   3       0.000004       0.000017       0.000006
   4       0.000010      -0.000008       0.000046
   5      -0.000001      -0.000018       0.000017
   6       0.000016      -0.000007      -0.000020
   7       0.000002      -0.000002       0.000001
   8      -0.000009       0.000008       0.000004
   9      -0.000009       0.000003       0.000008
  10      -0.000002      -0.000004       0.000004
  11      -0.000007      -0.000002       0.000006
  12      -0.000007      -0.000011       0.000002
  13      -0.000005       0.000010      -0.000003
  14      -0.000001       0.000007      -0.000006
  15       0.000002       0.000007      -0.000001
  16      -0.000005       0.000008      -0.000010
  17       0.000003       0.000005      -0.000023
  18      -0.000004       0.000003       0.000001
  19       0.000011      -0.000012      -0.000047
  20       0.000009      -0.000012       0.000007
---------------------------------------------------
 Number of fixed atoms: 0
 Gradient time:  CPU 481.34 s  wall 40.18 s
 Geometry Optimization Parameters
   NAtoms,    NIC,     NZ,  NCons,   NDum,   NFix, NCnnct, MaxDiis
       20     132       0       0       0       0       0       0

 Cartesian Hessian Update
 Hessian updated using Powell/Murtagh-Sargent update
  Mixing factors:     0.999990 Powell                      0.000010 Murtagh-Sargent


** GEOMETRY OPTIMIZATION IN DELOCALIZED INTERNAL COORDINATES **
   Searching for a Transition State

   Optimization Cycle:  33

                       Coordinates (Angstroms)
     ATOM                X               Y               Z
      1  C         3.0668064614   -0.6540983559   -1.2162432430
      2  O         1.6805603653   -0.4474499495   -1.0862544632
      3  C         3.6048261822   -1.0422882934    0.1676851272
      4  O         3.1607478793   -2.3383594130    0.4285004694
      5  C         3.1789705248   -0.0314236434    1.2357672913
      6  C         3.9745185276    0.0245966686    2.5202699063
      7  O         5.2014293825    0.2072314810    2.5384199201
      8  H         3.5654246555    0.2510971074   -1.5587544408
      9  H         1.3678742339   -0.0130563979   -1.8878335478
     10  H         2.1361429249   -0.2271509471    1.4728735248
     11  H         3.2266619701    0.9764535830    0.8147033796
     12  H         3.3815758191    0.2492291643    3.4118253375
     13  O         3.3552302764   -1.6481287690   -2.1675475295
     14  H         3.0539698664   -2.4943058248   -1.8095099372
     15  O         5.0312859802   -1.1948779806    0.0724944724
     16  O         5.6453670733    0.0877682334   -0.0467014117
     17  H         3.3007827358   -2.5157084764    1.3761467969
     18  H         5.7150879360    0.3207857138    0.9133246579
     19  O         3.6429890620   -1.9669702999    3.0814148449
     20  O         2.5524674434   -2.0301731009    3.8029207448
   Point Group: c1    Number of degrees of freedom:    54


   Energy is   -759.025454930

 Hessian updated using Powell/Murtagh-Sargent update
  Mixing factors:     0.982222 Powell                      0.017778 Murtagh-Sargent

 54 Hessian modes will be used to form the next step
  Hessian Eigenvalues:
    -0.010175    0.001391    0.002777    0.003914    0.004904    0.005682
     0.008377    0.015514    0.031889    0.035226    0.046649    0.058001
     0.060482    0.063050    0.069161    0.075052    0.076698    0.083289
     0.094547    0.096518    0.114296    0.124437    0.137911    0.149018
     0.161474    0.163982    0.173599    0.178126    0.191713    0.199108
     0.211676    0.220011    0.231137    0.235538    0.252168    0.269797
     0.271813    0.286628    0.318165    0.336197    0.342868    0.343096
     0.348412    0.414622    0.425654    0.452461    0.457557    0.512550
     0.515544    0.518010    0.526788    0.531859    0.598945    0.871005

 Transition state search - taking P-RFO step
 Searching for Lamda that Maximizes Along the Lowest mode
 Value Taken    Lamda =   0.00000000
 Searching for Lamda that Minimizes Along All other modes
 Value Taken    Lamda =  -0.00000014
 Step Taken.  Stepsize is  0.006820

                             Maximum     Tolerance    Cnvgd?
         Gradient           0.000099      0.000300     YES
         Displacement       0.005954      0.001200      NO
         Energy change      0.000000      0.000001     YES

 Final energy is   -759.025454929678     


 ******************************
 **  OPTIMIZATION CONVERGED  **
 ******************************

                       Coordinates (Angstroms)
     ATOM                X               Y               Z
      1  C         3.0668064614   -0.6540983559   -1.2162432430
      2  O         1.6805603653   -0.4474499495   -1.0862544632
      3  C         3.6048261822   -1.0422882934    0.1676851272
      4  O         3.1607478793   -2.3383594130    0.4285004694
      5  C         3.1789705248   -0.0314236434    1.2357672913
      6  C         3.9745185276    0.0245966686    2.5202699063
      7  O         5.2014293825    0.2072314810    2.5384199201
      8  H         3.5654246555    0.2510971074   -1.5587544408
      9  H         1.3678742339   -0.0130563979   -1.8878335478
     10  H         2.1361429249   -0.2271509471    1.4728735248
     11  H         3.2266619701    0.9764535830    0.8147033796
     12  H         3.3815758191    0.2492291643    3.4118253375
     13  O         3.3552302764   -1.6481287690   -2.1675475295
     14  H         3.0539698664   -2.4943058248   -1.8095099372
     15  O         5.0312859802   -1.1948779806    0.0724944724
     16  O         5.6453670733    0.0877682334   -0.0467014117
     17  H         3.3007827358   -2.5157084764    1.3761467969
     18  H         5.7150879360    0.3207857138    0.9133246579
     19  O         3.6429890620   -1.9669702999    3.0814148449
     20  O         2.5524674434   -2.0301731009    3.8029207448

Z-matrix Print:
$molecule
-1 2
O 
O  1 1.427055
H  2 0.990358 1 99.253514
C  1 1.437753 2 109.698639 3 85.462848 0
O  4 1.394644 1 103.277545 2 -173.545829 0
H  5 0.974216 4 107.777330 1 79.578138 0
C  4 1.531013 1 113.093368 2 -50.771590 0
H  7 1.087206 4 107.462333 1 -160.922193 0
H  7 1.093337 4 109.138136 1 83.423337 0
C  7 1.511946 4 118.085749 1 -37.188426 0
H  10 1.094035 7 114.504634 4 -145.245925 0
O  10 1.240562 7 122.565871 4 55.504256 0
C  4 1.534736 1 108.357819 2 73.220098 0
H  13 1.088721 4 109.477259 1 -56.644124 0
O  13 1.405797 4 111.065388 1 60.464518 0
H  15 0.966936 13 107.715738 4 51.332559 0
O  13 1.407579 4 107.404027 1 -177.231251 0
H  17 0.963846 13 107.990684 4 167.272848 0
O  6 1.823776 5 151.850339 4 15.115742 0
O  19 1.309123 6 110.150919 5 105.909847 0
$end

 
 --------------------------------------------------------------
 
                    Orbital Energies (a.u.)
 --------------------------------------------------------------
 
 Alpha MOs
 -- Occupied --
-19.3958 -19.3794 -19.3714 -19.3648 -19.3492 -19.3456 -19.3443 -19.3169
-10.4617 -10.4446 -10.4387 -10.3443  -1.2699  -1.2563  -1.2075  -1.1746
 -1.1628  -1.1350  -1.0247  -0.9031  -0.8916  -0.8282  -0.7420  -0.7037
 -0.6858  -0.6461  -0.6329  -0.6151  -0.5899  -0.5770  -0.5684  -0.5641
 -0.5556  -0.5483  -0.5341  -0.5255  -0.5142  -0.4934  -0.4755  -0.4652
 -0.4483  -0.4355  -0.4277  -0.4092  -0.3995  -0.3855  -0.3609  -0.3452
 -0.3139
 -- Virtual --
  0.0297   0.0425   0.0450   0.0501   0.0664   0.0718   0.0724   0.0759
  0.0861   0.0990   0.1115   0.1199   0.1231   0.1349   0.1404   0.1435
  0.1514   0.1582   0.1627   0.1718   0.1739   0.1841   0.1894   0.1969
  0.2019   0.2076   0.2174   0.2236   0.2389   0.2460   0.2483   0.2650
  0.2680   0.2782   0.2805   0.2874   0.2924   0.2941   0.2997   0.3025
  0.3064   0.3166   0.3245   0.3274   0.3397   0.3414   0.3442   0.3521
  0.3565   0.3601   0.3656   0.3735   0.3799   0.3815   0.3834   0.3896
  0.3934   0.4035   0.4084   0.4132   0.4136   0.4200   0.4280   0.4424
  0.4520   0.4605   0.4685   0.4764   0.4786   0.4837   0.4868   0.5011
  0.5239   0.5376   0.5602   0.5711   0.6049   0.6194   0.6317   0.6370
  0.6533   0.6618   0.6625   0.6815   0.6925   0.6967   0.7008   0.7131
  0.7422   0.7483   0.7568   0.7701   0.7780   0.7864   0.7934   0.8025
  0.8243   0.8426   0.8712   0.8856   0.9106   0.9180   0.9513   0.9741
  0.9825   0.9894   1.0111   1.0426   1.0576   1.0668   1.0758   1.0864
  1.0926   1.1178   1.1239   1.1367   1.1449   1.1545   1.1652   1.1760
  1.1835   1.1869   1.1987   1.2062   1.2132   1.2242   1.2295   1.2328
  1.2406   1.2520   1.2577   1.2608   1.2726   1.2873   1.2914   1.3001
  1.3078   1.3119   1.3302   1.3348   1.3507   1.3641   1.3724   1.3859
  1.4049   1.4113   1.4268   1.4350   1.4472   1.4603   1.4810   1.4968
  1.5012   1.5179   1.5225   1.5318   1.5406   1.5550   1.5827   1.5954
  1.6118   1.6185   1.6344   1.6418   1.6483   1.6724   1.6885   1.6925
  1.7054   1.7179   1.7333   1.7520   1.7884   1.7927   1.8215   1.8271
  1.8519   1.8684   1.8940   1.9159   1.9418   1.9464   1.9577   2.0010
  2.0242   2.0359   2.0632   2.0860   2.1139   2.1401   2.1722   2.1827
  2.2178   2.2320   2.2433   2.2571   2.2751   2.3534   2.3685   2.3778
  2.3876   2.3940   2.4056   2.4433   2.4602   2.4702   2.4943   2.5118
  2.5259   2.5564   2.5781   2.6193   2.6409   2.7073   2.7163   2.7284
  2.7496   2.7934   2.7997   2.8466   2.8640   2.8864   2.9020   2.9629
  2.9950   3.0319   3.0543   3.0628   3.1102   3.1140   3.1827   3.1865
  3.2081   3.2420   3.2606   3.2661   3.2990   3.3182   3.3584   3.3926
  3.4084   3.4296   3.4353   3.4552   3.4857   3.5055   3.5134   3.5383
  3.5724   3.5782   3.6288   3.6628   3.6643   3.6880   3.7010   3.7166
  3.7290   3.7615   3.7747   3.7796   3.8322   3.8418   3.8534   3.8734
  3.8858   3.8893   3.8932   3.9248   3.9616   3.9699   3.9923   4.0253
  4.0417   4.0655   4.0838   4.1233   4.1491   4.1579   4.1634   4.2194
  4.2252   4.2419   4.2848   4.2912   4.2972   4.3210   4.3441   4.3904
  4.4000   4.4151   4.4301   4.4410   4.4737   4.5094   4.5578   4.5629
  4.5823   4.6265   4.6450   4.6782   4.6902   4.7349   4.7667   4.7727
  4.7893   4.8247   4.8412   4.8864   4.9068   4.9205   5.0088   5.0623
  5.1003   5.1053   5.1239   5.1387   5.1842   5.1965   5.2165   5.2342
  5.2367   5.2470   5.2484   5.2506   5.2677   5.2799   5.2866   5.2958
  5.3049   5.3273   5.3315   5.3428   5.3538   5.3635   5.3769   5.3904
  5.3974   5.4060   5.4185   5.4268   5.4511   5.4631   5.4752   5.5006
  5.5123   5.5472   5.5530   5.5644   5.5932   5.6103   5.6216   5.6231
  5.6380   5.6489   5.6671   5.6766   5.6786   5.7142   5.7166   5.7582
  5.7967   5.8359   5.8438   5.8637   5.9111   5.9859   6.0352   6.0690
  6.0916   6.1425   6.1627   6.2726   6.3243   6.4950   6.5143   6.5334
  6.5770   6.6126   6.7558   6.8404   6.8488   6.8727   6.8845   6.9727
  7.0020   7.0329   7.0462   7.0753   7.0961   7.1108   7.1244   7.1402
  7.1559   7.1654   7.1891   7.2363   7.2646   7.2798   7.3018   7.3107
  7.3248   7.3411   7.3603   7.4053   7.4279   7.4413   7.4443   7.4654
  7.4789   7.5044   7.5242   7.5275   7.5714   7.6006   7.6637   7.6680
  7.7113   7.7898   7.8371   7.8619   7.8752   7.9012   7.9303   8.0020
  8.0391   8.1065   8.2223  24.6607  24.7839  24.8527  24.9525  50.4710
 50.5186  50.5691  50.5981  50.6322  50.6565  50.6933  50.7707
 
 Beta MOs
 -- Occupied --
-19.3959 -19.3794 -19.3584 -19.3489 -19.3487 -19.3456 -19.3443 -19.3172
-10.4617 -10.4446 -10.4388 -10.3444  -1.2697  -1.2277  -1.2074  -1.1740
 -1.1630  -1.1350  -1.0246  -0.9003  -0.8558  -0.8249  -0.7415  -0.7028
 -0.6857  -0.6459  -0.6321  -0.6134  -0.5894  -0.5736  -0.5668  -0.5530
 -0.5475  -0.5301  -0.5226  -0.5164  -0.4906  -0.4770  -0.4688  -0.4532
 -0.4477  -0.4349  -0.4275  -0.4092  -0.3993  -0.3851  -0.3593  -0.2945
 -- Virtual --
  0.0116   0.0298   0.0427   0.0454   0.0503   0.0673   0.0721   0.0728
  0.0766   0.0872   0.0994   0.1122   0.1207   0.1235   0.1352   0.1406
  0.1445   0.1520   0.1586   0.1630   0.1724   0.1743   0.1848   0.1898
  0.1979   0.2026   0.2095   0.2183   0.2240   0.2403   0.2476   0.2498
  0.2656   0.2697   0.2792   0.2824   0.2908   0.2937   0.2964   0.3010
  0.3041   0.3074   0.3180   0.3250   0.3283   0.3427   0.3435   0.3452
  0.3527   0.3574   0.3615   0.3670   0.3755   0.3806   0.3830   0.3847
  0.3917   0.3966   0.4040   0.4089   0.4142   0.4144   0.4214   0.4289
  0.4425   0.4526   0.4607   0.4688   0.4771   0.4798   0.4842   0.4874
  0.5011   0.5240   0.5381   0.5609   0.5712   0.6053   0.6198   0.6324
  0.6373   0.6537   0.6627   0.6629   0.6821   0.6930   0.6976   0.7009
  0.7135   0.7426   0.7485   0.7572   0.7705   0.7783   0.7868   0.7938
  0.8028   0.8256   0.8431   0.8715   0.8859   0.9108   0.9187   0.9518
  0.9750   0.9832   0.9903   1.0116   1.0429   1.0582   1.0684   1.0767
  1.0889   1.0956   1.1231   1.1253   1.1376   1.1484   1.1583   1.1687
  1.1785   1.1870   1.1899   1.2002   1.2087   1.2150   1.2255   1.2322
  1.2406   1.2443   1.2552   1.2591   1.2643   1.2751   1.2903   1.2973
  1.3015   1.3106   1.3166   1.3325   1.3369   1.3578   1.3684   1.3755
  1.3881   1.4055   1.4148   1.4304   1.4361   1.4493   1.4607   1.4845
  1.4979   1.5026   1.5207   1.5242   1.5358   1.5439   1.5584   1.5862
  1.5973   1.6138   1.6246   1.6386   1.6448   1.6512   1.6773   1.6921
  1.7052   1.7132   1.7289   1.7397   1.7539   1.7907   1.7949   1.8247
  1.8282   1.8541   1.8722   1.8949   1.9190   1.9425   1.9529   1.9584
  2.0016   2.0255   2.0374   2.0657   2.0863   2.1166   2.1411   2.1744
  2.1845   2.2217   2.2361   2.2462   2.2616   2.2786   2.3626   2.3754
  2.3866   2.3900   2.3974   2.4120   2.4449   2.4608   2.4719   2.4950
  2.5122   2.5267   2.5568   2.5782   2.6195   2.6414   2.7074   2.7180
  2.7299   2.7570   2.7943   2.7998   2.8467   2.8641   2.8866   2.9022
  2.9631   2.9953   3.0319   3.0543   3.0629   3.1102   3.1139   3.1828
  3.1866   3.2083   3.2420   3.2605   3.2663   3.2990   3.3181   3.3584
  3.3927   3.4082   3.4295   3.4354   3.4551   3.4856   3.5057   3.5134
  3.5383   3.5725   3.5781   3.6287   3.6628   3.6643   3.6880   3.7009
  3.7165   3.7291   3.7615   3.7749   3.7794   3.8323   3.8418   3.8534
  3.8734   3.8859   3.8895   3.8935   3.9249   3.9616   3.9700   3.9926
  4.0254   4.0419   4.0656   4.0839   4.1236   4.1493   4.1580   4.1634
  4.2195   4.2254   4.2420   4.2850   4.2913   4.2973   4.3210   4.3441
  4.3906   4.4002   4.4153   4.4313   4.4420   4.4740   4.5103   4.5589
  4.5633   4.5872   4.6374   4.6623   4.6806   4.6975   4.7373   4.7685
  4.7767   4.8059   4.8291   4.8610   4.8980   4.9093   4.9250   5.0094
  5.0624   5.1076   5.1427   5.1661   5.1938   5.2043   5.2155   5.2176
  5.2354   5.2447   5.2495   5.2628   5.2710   5.2744   5.2974   5.2993
  5.3076   5.3207   5.3330   5.3437   5.3539   5.3587   5.3666   5.3784
  5.3989   5.4011   5.4180   5.4274   5.4321   5.4593   5.4691   5.4763
  5.5009   5.5148   5.5476   5.5532   5.5649   5.5941   5.6120   5.6229
  5.6242   5.6519   5.6639   5.6759   5.6782   5.6929   5.7144   5.7179
  5.7588   5.7969   5.8360   5.8438   5.8638   5.9113   5.9861   6.0357
  6.0691   6.0916   6.1428   6.1628   6.2727   6.3243   6.5106   6.5426
  6.5466   6.5781   6.6131   6.7561   6.8423   6.8774   6.9205   6.9536
  6.9782   7.0365   7.0457   7.0827   7.0941   7.1056   7.1174   7.1315
  7.1437   7.1602   7.1894   7.2077   7.2373   7.2670   7.2800   7.3061
  7.3178   7.3261   7.3508   7.3661   7.4140   7.4327   7.4448   7.4529
  7.4768   7.4902   7.5192   7.5319   7.5365   7.5765   7.6018   7.6638
  7.6683   7.7118   7.7905   7.8372   7.8624   7.8762   7.9020   7.9313
  8.0196   8.0393   8.1245   8.2223  24.6607  24.7839  24.8527  24.9524
 50.4827  50.5186  50.5786  50.5988  50.6322  50.6566  50.6935  50.7705
 --------------------------------------------------------------
 
          Ground-State Mulliken Net Atomic Charges

     Atom                 Charge (a.u.)    Spin (a.u.)
  --------------------------------------------------------
      1 C                    -0.074554       0.002561
      2 O                    -0.422006      -0.000121
      3 C                     0.161045       0.006558
      4 O                    -0.415392       0.002138
      5 C                    -0.462316      -0.000640
      6 C                    -0.127954      -0.006802
      7 O                    -0.516947      -0.008414
      8 H                     0.298439       0.000124
      9 H                     0.339038       0.000054
     10 H                     0.281131      -0.000527
     11 H                     0.303541      -0.000936
     12 H                     0.253990      -0.001140
     13 O                    -0.464125      -0.000037
     14 H                     0.349814      -0.000063
     15 O                    -0.200624       0.000889
     16 O                    -0.323368      -0.000238
     17 H                     0.325884       0.007081
     18 H                     0.343588       0.000102
     19 O                    -0.193657       0.424825
     20 O                    -0.455526       0.574585
  --------------------------------------------------------
  Sum of atomic charges =    -1.000000
  Sum of spin   charges =     1.000000

 -----------------------------------------------------------------
                    Cartesian Multipole Moments
 -----------------------------------------------------------------
    Charge (ESU x 10^10)
                -4.8032
    Dipole Moment (Debye)
         X     -21.6382      Y       9.7321      Z     -10.6810
       Tot      26.0194
    Quadrupole Moments (Debye-Ang)
        XX    -181.5429     XY      31.8376     YY     -87.8321
        XZ     -34.1678     YZ      17.8990     ZZ    -116.5281
    Octopole Moments (Debye-Ang^2)
       XXX   -1372.2036    XXY     185.1037    XYY    -316.2371
       YYY     223.8787    XXZ    -193.4818    XYZ      48.2511
       YYZ    -104.6359    XZZ    -430.8667    YZZ     154.5860
       ZZZ    -321.1846
    Hexadecapole Moments (Debye-Ang^3)
      XXXX   -9531.0816   XXXY    1138.1733   XXYY   -1398.7135
      XYYY     735.2323   YYYY    -836.2323   XXXZ   -1309.8985
      XXYZ     186.6068   XYYZ    -360.6435   YYYZ     296.6342
      XXZZ   -2053.8657   XYZZ     465.9722   YYZZ    -605.4827
      XZZZ   -1147.8439   YZZZ     445.2443   ZZZZ   -2378.0673
 -----------------------------------------------------------------
 Total job time:  11271.21s(wall), 157468.98s(cpu) 
 Tue Aug 20 03:06:18 2024

        *************************************************************
        *                                                           *
        *  Thank you very much for using Q-Chem.  Have a nice day.  *
        *                                                           *
        *************************************************************


