
Running Job 1 of 1 Q_in.in
qchem Q_in.in_417751.0 /scratch/ari.fischer/qChem1518400.hpc-mn1/qchem417751/ 0
/usr/local/qchem-5.4.1/exe/qcprog.exe_s Q_in.in_417751.0 /scratch/ari.fischer/qChem1518400.hpc-mn1/qchem417751/
                  Welcome to Q-Chem
     A Quantum Leap Into The Future Of Chemistry


 Q-Chem 5.4, Q-Chem, Inc., Pleasanton, CA (2021)

 License issued to: Nanyang Technological University (site)

 E. Epifanovsky,  A. T. B. Gilbert,  Xintian Feng,  Joonho Lee,  Yuezhi Mao,  
 N. Mardirossian,  P. Pokhilko,  A. White,  M. Wormit,  M. P. Coons,  
 A. L. Dempwolff,  Zhengting Gan,  D. Hait,  P. R. Horn,  L. D. Jacobson,  
 I. Kaliman,  J. Kussmann,  A. W. Lange,  Ka Un Lao,  D. S. Levine,  Jie Liu,  
 S. C. McKenzie,  A. F. Morrison,  K. Nanda,  F. Plasser,  D. R. Rehn,  
 M. L. Vidal,  Zhi-Qiang You,  Ying Zhu,  B. Alam,  B. Albrecht,  
 A. Aldossary,  E. Alguire,  J. H. Andersen,  D. Barton,  K. Begam,  A. Behn,  
 Y. A. Bernard,  E. J. Berquist,  H. Burton,  A. Carreras,  K. Carter-Fenk,  
 R. Chakraborty,  A. D. Chien,  K. D. Closser,  V. Cofer-Shabica,  
 S. Dasgupta,  Jia Deng,  M. de Wergifosse,  M. Diedenhofen,  Hainam Do,  
 S. Ehlert,  Po-Tung Fang,  S. Fatehi,  Qingguo Feng,  T. Friedhoff,  
 J. Gayvert,  Qinghui Ge,  G. Gidofalvi,  M. Goldey,  J. Gomes,  
 C. Gonzalez-Espinoza,  S. Gulania,  A. Gunina,  M. W. D. Hanson-Heine,  
 P. H. P. Harbach,  A. W. Hauser,  M. F. Herbst,  M. Hernandez Vera,  
 M. Hodecker,  Z. C. Holden,  S. Houck,  Xunkun Huang,  Kerwin Hui,  
 B. C. Huynh,  M. Ivanov,  Hyunjun Ji,  Hanjie Jiang,  B. Kaduk,  S. Kaehler,  
 K. Khistyaev,  Jaehoon Kim,  P. Klunzinger,  Z. Koczor-Benda,  
 Joong Hoon Koh,  D. Kosenkov,  L. Koulias,  T. Kowalczyk,  C. M. Krauter,  
 K. Kue,  A. Kunitsa,  T. Kus,  A. Landau,  K. V. Lawler,  D. Lefrancois,  
 S. Lehtola,  Rain Li,  Yi-Pei Li,  Jiashu Liang,  M. Liebenthal,  
 Hung-Hsuan Lin,  You-Sheng Lin,  Fenglai Liu,  Kuan-Yu Liu,  
 M. Loipersberger,  A. Luenser,  A. Manjanath,  P. Manohar,  E. Mansoor,  
 S. F. Manzer,  Shan-Ping Mao,  A. V. Marenich,  T. Markovich,  S. Mason,  
 S. A. Maurer,  P. F. McLaughlin,  M. F. S. J. Menger,  J.-M. Mewes,  
 S. A. Mewes,  P. Morgante,  J. W. Mullinax,  K. J. Oosterbaan,  G. Paran,  
 Alexander C. Paul,  Suranjan K. Paul,  F. Pavosevic,  Zheng Pei,  S. Prager,  
 E. I. Proynov,  E. Ramos,  B. Rana,  A. E. Rask,  A. Rettig,  R. M. Richard,  
 F. Rob,  E. Rossomme,  T. Scheele,  M. Scheurer,  M. Schneider,  
 N. Sergueev,  S. M. Sharada,  W. Skomorowski,  D. W. Small,  C. J. Stein,  
 Yu-Chuan Su,  E. J. Sundstrom,  Zhen Tao,  J. Thirman,  T. Tsuchimochi,  
 N. M. Tubman,  S. P. Veccham,  O. Vydrov,  J. Wenzel,  J. Witte,  A. Yamada,  
 Kun Yao,  S. Yeganeh,  S. R. Yost,  A. Zech,  Igor Ying Zhang,  Xing Zhang,  
 Yu Zhang,  D. Zuev,  A. Aspuru-Guzik,  A. T. Bell,  N. A. Besley,  
 K. B. Bravaya,  B. R. Brooks,  D. Casanova,  Jeng-Da Chai,  S. Coriani,  
 C. J. Cramer,  A. E. DePrince, III,  R. A. DiStasio Jr.,  A. Dreuw,  
 B. D. Dunietz,  T. R. Furlani,  W. A. Goddard III,  S. Grimme,  
 S. Hammes-Schiffer,  T. Head-Gordon,  W. J. Hehre,  Chao-Ping Hsu,  
 T.-C. Jagau,  Yousung Jung,  A. Klamt,  Jing Kong,  D. S. Lambrecht,  
 WanZhen Liang,  N. J. Mayhall,  C. W. McCurdy,  J. B. Neaton,  
 C. Ochsenfeld,  J. A. Parkhill,  R. Peverati,  V. A. Rassolov,  Yihan Shao,  
 L. V. Slipchenko,  T. Stauch,  R. P. Steele,  J. E. Subotnik,  
 A. J. W. Thom,  A. Tkatchenko,  D. G. Truhlar,  T. Van Voorhis,  
 T. A. Wesolowski,  K. B. Whaley,  H. L. Woodcock III,  P. M. Zimmerman,  
 S. Faraji,  P. M. W. Gill,  M. Head-Gordon,  J. M. Herbert,  A. I. Krylov

 Additional authors for Version 5.4.1: 
 S. Kotaru,  Shaozhi Li,  Xiangyuan Li,  F. Matz,  A. Molle,  Haisheng Ren,  
 Yingli Su,  Hung-Yi Tsai,  C. Utku,  Fang Wang

 Contributors to earlier versions of Q-Chem not listed above: 
 R. D. Adamson,  B. Austin,  R. Baer,  J. Baker,  G. J. O. Beran,  
 K. Brandhorst,  S. T. Brown,  E. F. C. Byrd,  A. K. Chakraborty,  
 G. K. L. Chan,  Chun-Min Chang,  Yunqing Chen,  C.-L. Cheng,  
 Siu Hung Chien,  D. M. Chipman,  D. L. Crittenden,  H. Dachsel,  
 R. J. Doerksen,  A. D. Dutoi,  R. G. Edgar,  J. Fosso-Tande,  
 L. Fusti-Molnar,  D. Ghosh,  A. Ghysels,  A. Golubeva-Zadorozhnaya,  
 J. Gonthier,  M. S. Gordon,  S. R. Gwaltney,  G. Hawkins,  J. E. Herr,  
 A. Heyden,  S. Hirata,  E. G. Hohenstein,  G. Kedziora,  F. J. Keil,  
 C. Kelley,  Jihan Kim,  R. A. King,  R. Z. Khaliullin,  P. P. Korambath,  
 W. Kurlancheek,  A. Laurent,  A. M. Lee,  M. S. Lee,  S. V. Levchenko,  
 Ching Yeh Lin,  D. Liotard,  E. Livshits,  R. C. Lochan,  I. Lotan,  
 L. A. Martinez-Martinez,  P. E. Maslen,  N. Nair,  D. P. O'Neill,  
 D. Neuhauser,  E. Neuscamman,  C. M. Oana,  R. Olivares-Amaya,  R. Olson,  
 T. M. Perrine,  B. Peters,  P. A. Pieniazek,  A. Prociuk,  Y. M. Rhee,  
 J. Ritchie,  M. A. Rohrdanz,  E. Rosta,  N. J. Russ,  H. F. Schaefer III,  
 M. W. Schmidt,  N. E. Schultz,  S. Sharma,  N. Shenvi,  C. D. Sherrill,  
 A. C. Simmonett,  A. Sodt,  T. Stein,  D. Stuck,  K. S. Thanthiriwatte,  
 V. Vanovschi,  L. Vogt,  Tao Wang,  A. Warshel,  M. A. Watson,  
 C. F. Williams,  Q. Wu,  X. Xu,  Jun Yang,  W. Zhang,  Yan Zhao

 Please cite Q-Chem as follows:
 Y. Shao et al., Mol. Phys. 113, 184-215 (2015)
 DOI: 10.1080/00268976.2014.952696

 Q-Chem 5.4.1 for Intel X86 EM64T Linux

 Parts of Q-Chem use Armadillo 9.800.1 (Horizon Scraper).
 http://arma.sourceforge.net/

 Q-Chem begins on Thu Apr 27 12:20:13 2023  

 Host: 
0

     Scratch files written to /scratch/ari.fischer/qChem1518400.hpc-mn1/qchem417751//
 Aug1521 |scratch|qcdevops|jenkins|workspace|build_RNUM 8249   
 Processing $rem in /usr/local/qchem-5.4.1/config/preferences:
 Processing $rem in /home/ari.fischer/.qchemrc:
 Symmetry turned off for PCM/SM12/SMD calculation

 Checking the input file for inconsistencies... 	...done.

--------------------------------------------------------------
User input:
--------------------------------------------------------------
$molecule
0 1
C         0.6475379016    0.1269243786    0.6603589991
C         2.0469495659   -0.3177950048    1.0301203978
O         2.4405556820   -1.5406559787    0.4210979746
C        -0.2597468243   -0.7761423274    0.1102158407
C        -1.5546503456   -0.3601537692   -0.2004614000
O        -2.4797993369   -1.2171126371   -0.7492825013
C        -1.9566270864    0.9525685074    0.0396531035
C        -1.0440458625    1.8482818024    0.5909733192
C         0.2538128450    1.4466208927    0.8972099433
H         2.7593856683    0.4846048909    0.7970397510
H         2.1026252783   -0.4935924751    2.1100170594
H         2.4429985561   -1.3898586720   -0.5384507696
H         0.0383983539   -1.8040077145   -0.0824461489
H        -2.0613424512   -2.0858563764   -0.8708223305
H        -2.9686938202    1.2565474433   -0.2108230395
H        -1.3506756997    2.8743260521    0.7758372894
H         0.9628474756    2.1554378877    1.3178624118
$end

$rem
BASIS = 6-311++G(2df,2p)
GUI = 2
JOB_TYPE = Optimization
METHOD = wB97M-V
SCF_ALGORITHM = DIIS_GDM
MAX_SCF_CYCLES = 400
GEOM_OPT_MAX_CYCLES = 150
SCF_CONVERGENCE = 7
THRESH = 12
Solvent_method = SMD
$end
--------------------------------------------------------------
 ----------------------------------------------------------------
             Standard Nuclear Orientation (Angstroms)
    I     Atom           X                Y                Z
 ----------------------------------------------------------------
    1      C       0.6475379016     0.1269243786     0.6603589991
    2      C       2.0469495659    -0.3177950048     1.0301203978
    3      O       2.4405556820    -1.5406559787     0.4210979746
    4      C      -0.2597468243    -0.7761423274     0.1102158407
    5      C      -1.5546503456    -0.3601537692    -0.2004614000
    6      O      -2.4797993369    -1.2171126371    -0.7492825013
    7      C      -1.9566270864     0.9525685074     0.0396531035
    8      C      -1.0440458625     1.8482818024     0.5909733192
    9      C       0.2538128450     1.4466208927     0.8972099433
   10      H       2.7593856683     0.4846048909     0.7970397510
   11      H       2.1026252783    -0.4935924751     2.1100170594
   12      H       2.4429985561    -1.3898586720    -0.5384507696
   13      H       0.0383983539    -1.8040077145    -0.0824461489
   14      H      -2.0613424512    -2.0858563764    -0.8708223305
   15      H      -2.9686938202     1.2565474433    -0.2108230395
   16      H      -1.3506756997     2.8743260521     0.7758372894
   17      H       0.9628474756     2.1554378877     1.3178624118
 ----------------------------------------------------------------
 Nuclear Repulsion Energy =         421.86438077 hartrees
 There are       33 alpha and       33 beta electrons
 Requested basis set is 6-311++G(2df,2p)
 There are 120 shells and 386 basis functions

 Total QAlloc Memory Limit 288000 MB
 Mega-Array Size       188 MB
 MEM_STATIC part       192 MB
 
 Citation of the SMD model:
 Marenich, A.V.; Cramer, C.J.; Truhlar, D.G.
 J. Phys. Chem. B 2009, 113, 6378-6396.
 iSolventCode=           1
 Solvent: water                                                           
 
 vradii
            1           2           3           4           5           6
    1   1.8500000   1.8500000   1.5200000   1.8500000   1.8500000   1.5200000
            7           8           9          10          11          12
    1   1.8500000   1.8500000   1.8500000   1.2000000   1.2000000   1.2000000
           13          14          15          16          17
    1   1.2000000   1.2000000   1.2000000   1.2000000   1.2000000
 Changing PCM_VDW_RADII to SMD_RADIUS
 Discretize the solute cavity surface with Lebedev spheres
	Using 110 Lebedev grid points for each H atom
	Using 194 Lebedev grid points for other atoms
	Atomic van der Waals radii will be scaled by 1.20
 Remove points where switching function is < 1.0e-08
 Keep 1255 surface tesserae and discard 1371 interior tesserae
 Molecular Surface Area = 151.056 Angst**2
 A cutoff of  1.0D-12 yielded   6510 shell pairs
 There are     67797 function pairs (     84303 Cartesian)
 Smallest overlap matrix eigenvalue = 9.50E-07
 Linear dependence detected in AO basis
 Tighter screening thresholds may be required for diffuse basis sets
 Use S2THRESH > 14 and THRESH = 14 in case of SCF convergence issues
 Number of orthogonalized atomic orbitals = 385
 Maximum deviation from orthogonality = 1.819E-10

 Scale SEOQF with 1.000000e-01/1.000000e-01/1.000000e-01

 Standard Electronic Orientation quadrupole field applied
 Nucleus-field energy     =     0.0000000110 hartrees
 Guess from superposition of atomic densities
 Warning:  Energy on first SCF cycle will be non-variational
 SAD guess density has 66.000000 electrons

 -----------------------------------------------------------------------
  General SCF calculation program by
  Eric Jon Sundstrom, Paul Horn, Yuezhi Mao, Dmitri Zuev, Alec White,
  David Stuck, Shaama M.S., Shane Yost, Joonho Lee, David Small,
  Daniel Levine, Susi Lehtola, Hugh Burton, Evgeny Epifanovsky,
  Bang C. Huynh
 -----------------------------------------------------------------------
 Exchange:     0.1500 Hartree-Fock + 1.0000 wB97M-V + LR-HF
 Correlation:  1.0000 wB97M-V
 Using SG-2 standard quadrature grid
 Nonlocal Correlation:  VV10 with C = 0.0100 and b = 6.00 and scale = 1.00000
 Grid used for NLC:  SG-1 standard quadrature
 
 Citation of the SMD model:
 Marenich, A.V.; Cramer, C.J.; Truhlar, D.G.
 J. Phys. Chem. B 2009, 113, 6378-6396.
 iSolventCode=           1
 Solvent: water                                                           
 
 vradii
            1           2           3           4           5           6
    1   1.8500000   1.8500000   1.5200000   1.8500000   1.8500000   1.5200000
            7           8           9          10          11          12
    1   1.8500000   1.8500000   1.8500000   1.2000000   1.2000000   1.2000000
           13          14          15          16          17
    1   1.2000000   1.2000000   1.2000000   1.2000000   1.2000000
 using 8 threads for integral computing
 -------------------------------------------------------
 OpenMP Integral computing Module                
 Release: version 1.0, May 2013, Q-Chem Inc. Pittsburgh 
 -------------------------------------------------------
 -------------------------------------------------------
 OpenMP BLAS3 based DFT computing Module                
 Release: version 1.0, May 2013, Q-Chem Inc. Pittsburgh 
 -------------------------------------------------------
 A restricted SCF calculation will be
 performed using DIIS, GDM
 SCF converges when RMS gradient is below 1.0e-07
 ---------------------------------------
  Cycle       Energy         DIIS error
 ---------------------------------------
    1    -424.6564180695      2.65e-02  
    2    -421.9067814166      2.39e-03  Done DIIS. Switching to GDM
 ---------------------------------------
  Cycle       Energy        RMS Gradient
 ---------------------------------------
    1    -421.9067814166      3.13e-02   Descent step
    2    -421.9720832107      2.43e-02   Normal BFGS step
    3    -422.0014215706      4.51e-03   Normal BFGS step
    4    -422.0022597247      4.17e-03   Normal BFGS step
    5    -422.0027160064      5.09e-04   Normal BFGS step
    6    -422.0027235641      6.75e-04   Normal BFGS step
    7    -422.0027266731      1.05e-04   Normal BFGS step
    8    -422.0027268348      4.98e-05   Normal BFGS step
    9    -422.0027268699      1.57e-05   Normal BFGS step
   10    -422.0027268743      6.83e-06   Normal BFGS step
   11    -422.0027268750      1.96e-06   Normal BFGS step
   12    -422.0027268751      9.49e-07   Normal BFGS step
   13    -422.0027268752      1.95e-07   Normal BFGS step
   14    -422.0027268752      1.37e-07   Normal BFGS step
   15    -422.0027268752      2.28e-08  Convergence criterion met
 ---------------------------------------
 SCF time:   CPU 1214.56s  wall 154.00s 
(3)  G-ENP(liq) elect-nuc-pol free energy of system     -422.002726875 a.u.
(4)  G-CDS(liq) cavity-dispersion-solvent structure 
     free energy                                                3.8006 kcal/mol
(6)  G-S(liq) free energy of system                     -421.996670200 a.u.
 SCF   energy in the final basis set =     -421.9966702004
 Total energy in the final basis set =     -421.9966702004
 
 --------------------------------------------------------------
 
                    Orbital Energies (a.u.)
 --------------------------------------------------------------
 
 Alpha MOs
 -- Occupied --
-19.3620 -19.3393 -10.4103 -10.3884 -10.3573 -10.3481 -10.3410 -10.3392
-10.3372  -1.1871  -1.1567  -0.9825  -0.8890  -0.8622  -0.7997  -0.7332
 -0.7034  -0.6516  -0.6258  -0.5962  -0.5685  -0.5475  -0.5412  -0.5291
 -0.5239  -0.4982  -0.4692  -0.4579  -0.4465  -0.4291  -0.3943  -0.3420
 -0.3164
 -- Virtual --
  0.0243   0.0356   0.0382   0.0471   0.0539   0.0569   0.0638   0.0693
  0.0839   0.0935   0.0968   0.1065   0.1085   0.1198   0.1378   0.1402
  0.1464   0.1519   0.1564   0.1602   0.1641   0.1707   0.1768   0.1818
  0.1834   0.1864   0.1931   0.1985   0.2082   0.2153   0.2177   0.2248
  0.2368   0.2501   0.2574   0.2677   0.2745   0.2755   0.2767   0.2882
  0.2978   0.3050   0.3084   0.3249   0.3275   0.3458   0.3523   0.3540
  0.3592   0.3638   0.3687   0.3751   0.3917   0.3998   0.4128   0.4167
  0.4337   0.4494   0.4670   0.4807   0.5069   0.5413   0.5428   0.5684
  0.5799   0.5969   0.5991   0.6051   0.6099   0.6227   0.6319   0.6354
  0.6395   0.6479   0.6594   0.6680   0.6853   0.6902   0.6939   0.7039
  0.7224   0.7259   0.7288   0.7345   0.7398   0.7485   0.7684   0.7779
  0.7839   0.8002   0.8081   0.8221   0.8289   0.8446   0.8504   0.8707
  0.8780   0.8897   0.8936   0.9029   0.9109   0.9310   0.9396   0.9627
  0.9939   1.0237   1.0373   1.0488   1.0535   1.0704   1.0811   1.0990
  1.1131   1.1276   1.1402   1.1604   1.1659   1.1735   1.1925   1.2130
  1.2188   1.2249   1.2561   1.2583   1.2704   1.2950   1.3050   1.3290
  1.3377   1.3504   1.3685   1.3734   1.3907   1.4049   1.4132   1.4228
  1.4305   1.4400   1.4518   1.4707   1.4795   1.5120   1.5320   1.5382
  1.5527   1.5693   1.5758   1.5916   1.6056   1.6229   1.6425   1.6674
  1.6964   1.7196   1.7463   1.7738   1.7840   1.8083   1.8425   1.8937
  1.9365   1.9421   1.9766   1.9982   2.0643   2.0690   2.0842   2.1271
  2.1611   2.2098   2.2414   2.3712   2.3827   2.4439   2.4564   2.5225
  2.5557   2.5957   2.6248   2.6834   2.6992   2.7198   2.7532   2.7735
  2.7947   2.7980   2.8169   2.8253   2.8386   2.8613   2.8710   2.8810
  2.8890   2.9011   2.9195   2.9254   2.9425   2.9612   2.9711   2.9887
  3.0116   3.0180   3.0350   3.0501   3.0612   3.0841   3.0945   3.1489
  3.1750   3.1824   3.2019   3.2102   3.2228   3.2381   3.2385   3.2590
  3.2690   3.2814   3.3087   3.3343   3.3491   3.3627   3.3699   3.3877
  3.3954   3.4084   3.4225   3.4530   3.4856   3.4957   3.5122   3.5147
  3.5175   3.5351   3.5690   3.5802   3.6056   3.6151   3.6308   3.6432
  3.6637   3.6838   3.7052   3.7498   3.7709   3.7825   3.7926   3.8046
  3.8097   3.8253   3.8301   3.8525   3.8716   3.8780   3.9080   3.9374
  3.9494   3.9755   3.9848   4.0277   4.0334   4.0642   4.0918   4.1257
  4.1340   4.1475   4.1622   4.1694   4.2029   4.2215   4.2350   4.2707
  4.3037   4.3137   4.3376   4.3657   4.3831   4.4031   4.4188   4.4457
  4.4549   4.4817   4.5156   4.5345   4.5488   4.5538   4.5585   4.5782
  4.5919   4.6070   4.6879   4.7009   4.7331   4.7764   4.8062   4.8148
  4.9298   5.0074   5.0377   5.0914   5.1670   5.2039   5.2195   5.2719
  5.3020   5.3140   5.3236   5.3439   5.3587   5.4076   5.4682   5.4907
  5.5042   5.5924   5.6428   5.6548   5.6739   5.7026   5.7401   5.8106
  5.8255   5.8658   5.9113   5.9261   5.9709   6.0330   6.1044   6.3760
  6.6316   6.7048   6.8751   7.0576   7.1000   7.2757   7.2763   7.3268
  7.3385   7.3567   7.4558   7.6435   7.7320   7.7915   7.8433  24.2181
 24.7957  24.8003  24.8343  25.0428  25.0662  25.5005  50.5867  50.6435
 --------------------------------------------------------------
 
          Ground-State Mulliken Net Atomic Charges

     Atom                 Charge (a.u.)
  ----------------------------------------
      1 C                     0.508308
      2 C                    -0.341015
      3 O                    -0.439116
      4 C                     0.048194
      5 C                    -0.243961
      6 O                    -0.405732
      7 C                    -0.349845
      8 C                    -0.252946
      9 C                    -0.704362
     10 H                     0.208101
     11 H                     0.189035
     12 H                     0.332163
     13 H                     0.254140
     14 H                     0.355714
     15 H                     0.278368
     16 H                     0.289277
     17 H                     0.273675
  ----------------------------------------
  Sum of atomic charges =     0.000000

 -----------------------------------------------------------------
                    Cartesian Multipole Moments
 -----------------------------------------------------------------
    Charge (ESU x 10^10)
                -0.0000
    Dipole Moment (Debye)
         X       1.3122      Y       0.5459      Z      -0.8712
       Tot       1.6670
    Quadrupole Moments (Debye-Ang)
        XX     -59.1420     XY       4.3901     YY     -48.5813
        XZ      -2.1830     YZ       6.0993     ZZ     -54.2957
    Octopole Moments (Debye-Ang^2)
       XXX      36.0258    XXY      21.7722    XYY     -13.7187
       YYY      -2.1217    XXZ     -21.4800    XYZ       6.7212
       YYZ     -23.7718    XZZ      19.4447    YZZ      -4.7032
       ZZZ     -50.9456
    Hexadecapole Moments (Debye-Ang^3)
      XXXX   -1075.5190   XXXY      83.3281   XXYY    -256.0274
      XYYY     115.3720   YYYY    -462.9659   XXXZ    -137.3351
      XXYZ       3.9390   XYYZ     -38.4020   YYYZ      -9.5786
      XXZZ    -198.9845   XYZZ      27.0449   YYZZ    -115.9344
      XZZZ     -95.1703   YZZZ     -55.7105   ZZZZ    -206.5130
 -----------------------------------------------------------------
 Calculating analytic gradient of the SCF energy
 Gradient of CDS energy
            1           2           3           4           5           6
    1   0.0000234   0.0009474  -0.0003161   0.0001124  -0.0041742   0.0038421
    2  -0.0000285  -0.0001154   0.0000521  -0.0002081  -0.0039174   0.0038189
    3   0.0000404   0.0003352   0.0000259   0.0000522  -0.0024898   0.0023552
            7           8           9          10          11          12
    1  -0.0004357  -0.0001328   0.0003041  -0.0001220  -0.0001728   0.0002629
    2   0.0000992   0.0004741   0.0001457   0.0002343  -0.0001357  -0.0002542
    3  -0.0001128   0.0000941   0.0001125  -0.0000568   0.0001375  -0.0003772
           13          14          15          16          17
    1   0.0000922  -0.0001034  -0.0002079  -0.0000603   0.0001406
    2  -0.0000753  -0.0004133   0.0000106   0.0002018   0.0001113
    3   0.0000249  -0.0001560  -0.0000661   0.0000364   0.0000446
 Gradient of SCF Energy
            1           2           3           4           5           6
    1   0.0008299  -0.0047999   0.0029342  -0.0006192   0.0004200  -0.0151120
    2   0.0030645  -0.0111110  -0.0096975   0.0054515  -0.0063354   0.0198210
    3  -0.0003565  -0.0093687   0.0242073   0.0022203  -0.0018978   0.0012669
            7           8           9          10          11          12
    1   0.0026661  -0.0010426  -0.0056631   0.0064000   0.0008617  -0.0017054
    2   0.0029131  -0.0043756  -0.0012803   0.0083210   0.0002489   0.0072424
    3   0.0017750  -0.0012466  -0.0004832  -0.0016229   0.0067784  -0.0197662
           13          14          15          16          17
    1   0.0017814   0.0117536  -0.0033934  -0.0019145   0.0066033
    2  -0.0103037  -0.0188530   0.0018460   0.0071923   0.0058560
    3  -0.0035269  -0.0021654  -0.0006728   0.0013098   0.0035492
 Max gradient component =       2.421E-02
 RMS gradient           =       7.794E-03
 Computing fast CPCM-SWIG gradient
 Updating gradient with PCM contributions...
 -- total gradient after adding PCM contribution --
---------------------------------------------------
  Atom         X              Y              Z     
---------------------------------------------------
   1       0.002509       0.000025       0.000560
   2      -0.000166      -0.002831      -0.004466
   3      -0.000086      -0.004007       0.008609
   4       0.001042      -0.001437       0.000282
   5      -0.002504      -0.005878      -0.002681
   6      -0.005316       0.006670       0.000272
   7      -0.001734       0.001940      -0.000074
   8      -0.000722       0.001594       0.000243
   9       0.000812       0.001187       0.000611
  10       0.002433       0.003030      -0.000095
  11       0.000610      -0.000920       0.003086
  12      -0.000712       0.003228      -0.006660
  13       0.001484      -0.002857      -0.000396
  14       0.004070      -0.005531      -0.000320
  15      -0.002911       0.000577      -0.000813
  16      -0.000910       0.003094       0.000565
  17       0.002100       0.002116       0.001276
---------------------------------------------------
 Number of fixed atoms: 0
 Gradient time:  CPU 257.70 s  wall 37.43 s
 Geometry Optimization Parameters
   NAtoms,    NIC,     NZ,  NCons,   NDum,   NFix, NCnnct, MaxDiis
       17     112       0       0       0       0       0       0


** GEOMETRY OPTIMIZATION IN DELOCALIZED INTERNAL COORDINATES **
   Searching for a Minimum

   Optimization Cycle:   1

                       Coordinates (Angstroms)
     ATOM                X               Y               Z
      1  C         0.6475379016    0.1269243786    0.6603589991
      2  C         2.0469495659   -0.3177950048    1.0301203978
      3  O         2.4405556820   -1.5406559787    0.4210979746
      4  C        -0.2597468243   -0.7761423274    0.1102158407
      5  C        -1.5546503456   -0.3601537692   -0.2004614000
      6  O        -2.4797993369   -1.2171126371   -0.7492825013
      7  C        -1.9566270864    0.9525685074    0.0396531035
      8  C        -1.0440458625    1.8482818024    0.5909733192
      9  C         0.2538128450    1.4466208927    0.8972099433
     10  H         2.7593856683    0.4846048909    0.7970397510
     11  H         2.1026252783   -0.4935924751    2.1100170594
     12  H         2.4429985561   -1.3898586720   -0.5384507696
     13  H         0.0383983539   -1.8040077145   -0.0824461489
     14  H        -2.0613424512   -2.0858563764   -0.8708223305
     15  H        -2.9686938202    1.2565474433   -0.2108230395
     16  H        -1.3506756997    2.8743260521    0.7758372894
     17  H         0.9628474756    2.1554378877    1.3178624118
   Point Group: c1    Number of degrees of freedom:    45


   Energy is   -421.996670200


 Attempting to generate delocalized internal coordinates
 Initial Hessian constructed with Jon Baker's OPTIMIZE code

 45 Hessian modes will be used to form the next step
  Hessian Eigenvalues:
     0.007298    0.012775    0.016723    0.018911    0.022393    0.022969
     0.023088    0.023163    0.023198    0.023317    0.023347    0.023388
     0.058018    0.073520    0.119347    0.142372    0.159995    0.159998
     0.159998    0.160000    0.160000    0.160000    0.219998    0.220859
     0.234810    0.234930    0.249936    0.250000    0.309305    0.338975
     0.341816    0.351107    0.351330    0.351943    0.352777    0.422058
     0.423354    0.424897    0.462798    0.465756    0.467725    0.468378
     0.499693    0.529902    0.531064

 Minimum search - taking simple RFO step
 Searching for Lamda that Minimizes Along All modes
 Value Taken    Lamda =  -0.00097696
 Step Taken.  Stepsize is  0.057066

                             Maximum     Tolerance    Cnvgd?
         Gradient           0.007317      0.000300      NO
         Displacement       0.020617      0.001200      NO
         Energy change     *********      0.000001      NO


 New Cartesian Coordinates Obtained by Inverse Iteration

 Displacement from previous Coordinates is:  0.103270
 ----------------------------------------------------------------
             Standard Nuclear Orientation (Angstroms)
    I     Atom           X                Y                Z
 ----------------------------------------------------------------
    1      C       0.6425608265     0.1230105094     0.6578486683
    2      C       2.0396543542    -0.3120017983     1.0306646700
    3      O       2.4521191034    -1.5289215766     0.4210928843
    4      C      -0.2634905469    -0.7740850369     0.1087314013
    5      C      -1.5520651352    -0.3554347665    -0.1968952649
    6      O      -2.4760337417    -1.2133735099    -0.7457824391
    7      C      -1.9508938242     0.9509537288     0.0433791095
    8      C      -1.0391109768     1.8408075660     0.5912207811
    9      C       0.2527634636     1.4377462194     0.8942200034
   10      H       2.7414596179     0.4909521155     0.7951945903
   11      H       2.0916546153    -0.4811430932     2.1067832221
   12      H       2.4665648061    -1.4004721733    -0.5344800943
   13      H       0.0258449067    -1.7991819620    -0.0852056446
   14      H      -2.0720591247    -2.0806407123    -0.8731903218
   15      H      -2.9580991787     1.2572795104    -0.2039997489
   16      H      -1.3418239149     2.8628337132     0.7760105184
   17      H       0.9604846493     2.1418081662     1.3125075649
 ----------------------------------------------------------------
 Nuclear Repulsion Energy =         423.02058846 hartrees
 There are       33 alpha and       33 beta electrons
 Discretize the solute cavity surface with Lebedev spheres
	Using 110 Lebedev grid points for each H atom
	Using 194 Lebedev grid points for other atoms
	Atomic van der Waals radii will be scaled by 1.20
 Remove points where switching function is < 1.0e-08
 Keep 1257 surface tesserae and discard 1369 interior tesserae
 Molecular Surface Area = 150.610 Angst**2
 Applying Cartesian multipole field
    Component          Value
    ---------          -----
     (2,0,0)        1.00000E-11
     (0,2,0)        2.00000E-11
     (0,0,2)       -3.00000E-11
 Nucleus-field energy     =     0.0000000110 hartrees
 Requested basis set is 6-311++G(2df,2p)
 There are 120 shells and 386 basis functions
 A cutoff of  1.0D-12 yielded   6513 shell pairs
 There are     67822 function pairs (     84332 Cartesian)
 Smallest overlap matrix eigenvalue = 9.21E-07
 Linear dependence detected in AO basis
 Tighter screening thresholds may be required for diffuse basis sets
 Use S2THRESH > 14 and THRESH = 14 in case of SCF convergence issues
 Number of orthogonalized atomic orbitals = 385
 Maximum deviation from orthogonality = 1.345E-10
 Guess MOs from SCF MO coefficient file

 -----------------------------------------------------------------------
  General SCF calculation program by
  Eric Jon Sundstrom, Paul Horn, Yuezhi Mao, Dmitri Zuev, Alec White,
  David Stuck, Shaama M.S., Shane Yost, Joonho Lee, David Small,
  Daniel Levine, Susi Lehtola, Hugh Burton, Evgeny Epifanovsky,
  Bang C. Huynh
 -----------------------------------------------------------------------
 Exchange:     0.1500 Hartree-Fock + 1.0000 wB97M-V + LR-HF
 Correlation:  1.0000 wB97M-V
 Using SG-2 standard quadrature grid
 Nonlocal Correlation:  VV10 with C = 0.0100 and b = 6.00 and scale = 1.00000
 Grid used for NLC:  SG-1 standard quadrature
 
 Citation of the SMD model:
 Marenich, A.V.; Cramer, C.J.; Truhlar, D.G.
 J. Phys. Chem. B 2009, 113, 6378-6396.
 iSolventCode=           1
 Solvent: water                                                           
 
 vradii
            1           2           3           4           5           6
    1   1.8500000   1.8500000   1.5200000   1.8500000   1.8500000   1.5200000
            7           8           9          10          11          12
    1   1.8500000   1.8500000   1.8500000   1.2000000   1.2000000   1.2000000
           13          14          15          16          17
    1   1.2000000   1.2000000   1.2000000   1.2000000   1.2000000
 -------------------------------------------------------
 OpenMP BLAS3 based DFT computing Module                
 Release: version 1.0, May 2013, Q-Chem Inc. Pittsburgh 
 -------------------------------------------------------
 A restricted SCF calculation will be
 performed using Roothaan-Hall, DIIS, GDM
 SCF converges when RMS gradient is below 1.0e-07
 ---------------------------------------
  Cycle       Energy         DIIS error
 ---------------------------------------
    1    -421.9759074749      3.87e-04  Roothaan Step
 ---------------------------------------
  Cycle       Energy         DIIS error
 ---------------------------------------
    1    -421.9985292229      4.06e-04  
    2    -422.0019012231      2.96e-04  Done DIIS. Switching to GDM
 ---------------------------------------
  Cycle       Energy        RMS Gradient
 ---------------------------------------
    1    -422.0019012231      5.86e-03   Normal BFGS step
    2    -422.0020888781      7.60e-03   Normal BFGS step
    3    -422.0031444998      5.99e-04   Normal BFGS step
    4    -422.0031561771      4.35e-04   Normal BFGS step
    5    -422.0031610467      1.33e-04   Normal BFGS step
    6    -422.0031611925      4.40e-05   Normal BFGS step
    7    -422.0031612418      2.31e-05   Normal BFGS step
    8    -422.0031612445      9.17e-06   Normal BFGS step
    9    -422.0031612452      3.01e-06   Normal BFGS step
   10    -422.0031612453      1.13e-06   Normal BFGS step
   11    -422.0031612453      7.18e-07   Normal BFGS step
   12    -422.0031612453      9.46e-08  Convergence criterion met
 ---------------------------------------
 SCF time:   CPU 1125.39s  wall 142.00s 
(3)  G-ENP(liq) elect-nuc-pol free energy of system     -422.003161245 a.u.
(4)  G-CDS(liq) cavity-dispersion-solvent structure 
     free energy                                                3.7767 kcal/mol
(6)  G-S(liq) free energy of system                     -421.997142617 a.u.
 SCF   energy in the final basis set =     -421.9971426170
 Total energy in the final basis set =     -421.9971426170
 
 --------------------------------------------------------------
 
                    Orbital Energies (a.u.)
 --------------------------------------------------------------
 
 Alpha MOs
 -- Occupied --
-19.3605 -19.3380 -10.4083 -10.3870 -10.3552 -10.3458 -10.3389 -10.3369
-10.3347  -1.1873  -1.1566  -0.9854  -0.8910  -0.8639  -0.8018  -0.7348
 -0.7048  -0.6534  -0.6274  -0.5967  -0.5692  -0.5496  -0.5414  -0.5300
 -0.5245  -0.4981  -0.4688  -0.4581  -0.4473  -0.4290  -0.3943  -0.3425
 -0.3169
 -- Virtual --
  0.0244   0.0356   0.0382   0.0473   0.0541   0.0572   0.0647   0.0703
  0.0842   0.0938   0.0966   0.1066   0.1088   0.1200   0.1378   0.1405
  0.1468   0.1520   0.1567   0.1606   0.1644   0.1708   0.1773   0.1823
  0.1836   0.1867   0.1932   0.1988   0.2085   0.2159   0.2181   0.2252
  0.2371   0.2505   0.2578   0.2691   0.2743   0.2764   0.2778   0.2893
  0.2982   0.3058   0.3094   0.3259   0.3290   0.3472   0.3539   0.3549
  0.3611   0.3656   0.3708   0.3780   0.3925   0.4004   0.4137   0.4174
  0.4346   0.4512   0.4680   0.4838   0.5083   0.5407   0.5448   0.5710
  0.5808   0.5986   0.6011   0.6057   0.6118   0.6238   0.6320   0.6380
  0.6422   0.6501   0.6612   0.6706   0.6862   0.6911   0.6956   0.7063
  0.7257   0.7275   0.7311   0.7359   0.7416   0.7508   0.7703   0.7793
  0.7865   0.8013   0.8103   0.8235   0.8298   0.8447   0.8512   0.8724
  0.8805   0.8916   0.8977   0.9055   0.9125   0.9341   0.9419   0.9641
  0.9926   1.0240   1.0398   1.0505   1.0555   1.0718   1.0811   1.0998
  1.1159   1.1289   1.1423   1.1635   1.1685   1.1752   1.1937   1.2144
  1.2195   1.2282   1.2575   1.2623   1.2720   1.2968   1.3084   1.3306
  1.3404   1.3538   1.3704   1.3773   1.3945   1.4086   1.4172   1.4262
  1.4357   1.4439   1.4556   1.4742   1.4849   1.5156   1.5364   1.5431
  1.5572   1.5735   1.5789   1.5942   1.6094   1.6279   1.6478   1.6711
  1.6997   1.7224   1.7505   1.7815   1.7863   1.8100   1.8474   1.8967
  1.9432   1.9451   1.9810   2.0030   2.0677   2.0741   2.0901   2.1284
  2.1656   2.2068   2.2377   2.3711   2.3838   2.4452   2.4555   2.5245
  2.5522   2.5992   2.6219   2.6880   2.6977   2.7219   2.7525   2.7746
  2.7969   2.8038   2.8205   2.8258   2.8431   2.8608   2.8705   2.8840
  2.8897   2.9011   2.9193   2.9245   2.9441   2.9608   2.9713   2.9877
  3.0102   3.0228   3.0380   3.0569   3.0664   3.0868   3.1017   3.1524
  3.1772   3.1824   3.2064   3.2109   3.2237   3.2367   3.2421   3.2559
  3.2741   3.2830   3.3115   3.3374   3.3559   3.3662   3.3733   3.3881
  3.3968   3.4152   3.4288   3.4587   3.4878   3.4975   3.5104   3.5192
  3.5211   3.5400   3.5727   3.5884   3.6089   3.6174   3.6373   3.6497
  3.6672   3.6896   3.7106   3.7537   3.7744   3.7855   3.7997   3.8114
  3.8176   3.8337   3.8382   3.8560   3.8778   3.8874   3.9181   3.9459
  3.9580   3.9827   3.9962   4.0347   4.0441   4.0697   4.1022   4.1360
  4.1436   4.1555   4.1698   4.1762   4.2121   4.2324   4.2432   4.2804
  4.3155   4.3260   4.3490   4.3760   4.3962   4.4152   4.4323   4.4585
  4.4637   4.4992   4.5293   4.5514   4.5642   4.5719   4.5742   4.5963
  4.6080   4.6236   4.7011   4.7200   4.7490   4.7926   4.8237   4.8322
  4.9408   5.0286   5.0501   5.1116   5.1839   5.2163   5.2224   5.2765
  5.3083   5.3131   5.3238   5.3534   5.3649   5.4180   5.4794   5.5046
  5.5196   5.5900   5.6610   5.6737   5.6873   5.7166   5.7525   5.8192
  5.8484   5.8939   5.9148   5.9513   5.9813   6.0576   6.1354   6.4035
  6.6345   6.7426   6.8856   7.0600   7.1020   7.2780   7.3119   7.3294
  7.3523   7.3692   7.4544   7.6591   7.7453   7.7884   7.8432  24.2206
 24.8173  24.8209  24.8525  25.0745  25.0997  25.5391  50.5912  50.6486
 --------------------------------------------------------------
 
          Ground-State Mulliken Net Atomic Charges

     Atom                 Charge (a.u.)
  ----------------------------------------
      1 C                     0.507999
      2 C                    -0.343486
      3 O                    -0.442356
      4 C                     0.031263
      5 C                    -0.234210
      6 O                    -0.408789
      7 C                    -0.343616
      8 C                    -0.250469
      9 C                    -0.697940
     10 H                     0.210106
     11 H                     0.192144
     12 H                     0.331502
     13 H                     0.253827
     14 H                     0.353904
     15 H                     0.278366
     16 H                     0.288784
     17 H                     0.272970
  ----------------------------------------
  Sum of atomic charges =     0.000000

 -----------------------------------------------------------------
                    Cartesian Multipole Moments
 -----------------------------------------------------------------
    Charge (ESU x 10^10)
                -0.0000
    Dipole Moment (Debye)
         X       1.2943      Y       0.5446      Z      -0.8705
       Tot       1.6521
    Quadrupole Moments (Debye-Ang)
        XX     -59.1536     XY       4.3774     YY     -48.4883
        XZ      -2.2834     YZ       6.1287     ZZ     -54.1479
    Octopole Moments (Debye-Ang^2)
       XXX      35.7126    XXY      21.3711    XYY     -13.6108
       YYY      -2.4544    XXZ     -21.8779    XYZ       6.8153
       YYZ     -23.9789    XZZ      19.2339    YZZ      -4.6753
       ZZZ     -50.8266
    Hexadecapole Moments (Debye-Ang^3)
      XXXX   -1074.3241   XXXY      82.8781   XXYY    -253.9266
      XYYY     114.5680   YYYY    -458.6106   XXXZ    -138.1660
      XXYZ       4.9697   XYYZ     -38.4038   YYYZ      -9.5411
      XXZZ    -198.3202   XYZZ      27.0000   YYZZ    -114.9400
      XZZZ     -94.4936   YZZZ     -55.2226   ZZZZ    -205.0712
 -----------------------------------------------------------------
 Calculating analytic gradient of the SCF energy
 Gradient of CDS energy
            1           2           3           4           5           6
    1   0.0000213   0.0009189  -0.0003021   0.0001124  -0.0041497   0.0038226
    2  -0.0000236  -0.0001162   0.0000659  -0.0002052  -0.0039008   0.0038119
    3   0.0000443   0.0003629   0.0000145   0.0000491  -0.0024772   0.0023479
            7           8           9          10          11          12
    1  -0.0004313  -0.0001298   0.0003004  -0.0001145  -0.0001797   0.0002706
    2   0.0000977   0.0004702   0.0001427   0.0002141  -0.0001238  -0.0002580
    3  -0.0001108   0.0000936   0.0001117  -0.0000716   0.0001318  -0.0003753
           13          14          15          16          17
    1   0.0000893  -0.0001046  -0.0002033  -0.0000582   0.0001377
    2  -0.0000741  -0.0004139   0.0000105   0.0001965   0.0001062
    3   0.0000242  -0.0001571  -0.0000645   0.0000355   0.0000411
 Gradient of SCF Energy
            1           2           3           4           5           6
    1  -0.0018664  -0.0049265   0.0031376  -0.0022601   0.0029555  -0.0096259
    2   0.0042837  -0.0088834  -0.0055415   0.0071078  -0.0010106   0.0139881
    3  -0.0006160  -0.0044654   0.0156158   0.0017352   0.0006236   0.0013053
            7           8           9          10          11          12
    1   0.0051576  -0.0004215  -0.0064875   0.0039231   0.0001126  -0.0007825
    2   0.0014568  -0.0064585  -0.0030279   0.0052533   0.0017014   0.0035314
    3   0.0022353  -0.0017220  -0.0012875  -0.0015281   0.0040214  -0.0140101
           13          14          15          16          17
    1   0.0002817   0.0077104  -0.0003873  -0.0009466   0.0044258
    2  -0.0072447  -0.0139463   0.0011477   0.0039871   0.0036555
    3  -0.0029754  -0.0020384   0.0001205   0.0007316   0.0022542
 Max gradient component =       1.562E-02
 RMS gradient           =       5.549E-03
 Computing fast CPCM-SWIG gradient
 Updating gradient with PCM contributions...
 -- total gradient after adding PCM contribution --
---------------------------------------------------
  Atom         X              Y              Z     
---------------------------------------------------
   1      -0.000322       0.001204       0.000256
   2      -0.000417      -0.000625       0.000389
   3       0.000258      -0.000135      -0.000012
   4      -0.000470       0.000200      -0.000077
   5       0.000070      -0.000445      -0.000091
   6       0.000016       0.000794       0.000223
   7       0.000788       0.000573       0.000415
   8      -0.000091      -0.000581      -0.000258
   9      -0.000226      -0.000467      -0.000268
  10       0.000063       0.000012       0.000047
  11      -0.000075       0.000465       0.000298
  12       0.000097      -0.000202      -0.000822
  13       0.000075       0.000168       0.000102
  14       0.000214      -0.000605      -0.000118
  15       0.000068      -0.000131      -0.000032
  16       0.000051      -0.000124      -0.000020
  17      -0.000101      -0.000101      -0.000031
---------------------------------------------------
 Number of fixed atoms: 0
 Gradient time:  CPU 259.10 s  wall 37.97 s
 Geometry Optimization Parameters
   NAtoms,    NIC,     NZ,  NCons,   NDum,   NFix, NCnnct, MaxDiis
       17     112       0       0       0       0       0       0

 Cartesian Hessian Update
 Hessian updated using BFGS update


** GEOMETRY OPTIMIZATION IN DELOCALIZED INTERNAL COORDINATES **
   Searching for a Minimum

   Optimization Cycle:   2

                       Coordinates (Angstroms)
     ATOM                X               Y               Z
      1  C         0.6425608265    0.1230105094    0.6578486683
      2  C         2.0396543542   -0.3120017983    1.0306646700
      3  O         2.4521191034   -1.5289215766    0.4210928843
      4  C        -0.2634905469   -0.7740850369    0.1087314013
      5  C        -1.5520651352   -0.3554347665   -0.1968952649
      6  O        -2.4760337417   -1.2133735099   -0.7457824391
      7  C        -1.9508938242    0.9509537288    0.0433791095
      8  C        -1.0391109768    1.8408075660    0.5912207811
      9  C         0.2527634636    1.4377462194    0.8942200034
     10  H         2.7414596179    0.4909521155    0.7951945903
     11  H         2.0916546153   -0.4811430932    2.1067832221
     12  H         2.4665648061   -1.4004721733   -0.5344800943
     13  H         0.0258449067   -1.7991819620   -0.0852056446
     14  H        -2.0720591247   -2.0806407123   -0.8731903218
     15  H        -2.9580991787    1.2572795104   -0.2039997489
     16  H        -1.3418239149    2.8628337132    0.7760105184
     17  H         0.9604846493    2.1418081662    1.3125075649
   Point Group: c1    Number of degrees of freedom:    45


   Energy is   -421.997142617

 Hessian updated using BFGS update

 45 Hessian modes will be used to form the next step
  Hessian Eigenvalues:
     0.007300    0.012774    0.016723    0.018911    0.022394    0.022963
     0.023088    0.023162    0.023201    0.023317    0.023348    0.023388
     0.058690    0.073518    0.119514    0.142775    0.159048    0.159995
     0.159998    0.160000    0.160000    0.164985    0.219998    0.220999
     0.233578    0.234861    0.245557    0.250106    0.308830    0.337131
     0.340726    0.351201    0.351621    0.352404    0.353216    0.421303
     0.423128    0.424885    0.464114    0.464576    0.467857    0.494437
     0.504730    0.512182    0.530511

 Minimum search - taking simple RFO step
 Searching for Lamda that Minimizes Along All modes
 Value Taken    Lamda =  -0.00002043
 Step Taken.  Stepsize is  0.016747

                             Maximum     Tolerance    Cnvgd?
         Gradient           0.000896      0.000300      NO
         Displacement       0.007251      0.001200      NO
         Energy change     -0.000472      0.000001      NO


 New Cartesian Coordinates Obtained by Inverse Iteration

 Displacement from previous Coordinates is:  0.029377
 ----------------------------------------------------------------
             Standard Nuclear Orientation (Angstroms)
    I     Atom           X                Y                Z
 ----------------------------------------------------------------
    1      C       0.6434255083     0.1225059666     0.6561939532
    2      C       2.0411396052    -0.3097665139     1.0292503304
    3      O       2.4511300518    -1.5303966436     0.4275682373
    4      C      -0.2627976192    -0.7742946557     0.1065807739
    5      C      -1.5521593474    -0.3550581927    -0.1977308501
    6      O      -2.4760665974    -1.2132236887    -0.7471639710
    7      C      -1.9522462531     0.9506614494     0.0441737092
    8      C      -1.0399443893     1.8406714774     0.5928702214
    9      C       0.2527876280     1.4375223384     0.8942912541
   10      H       2.7431025146     0.4916685201     0.7899848241
   11      H       2.0942107086    -0.4775957552     2.1051071536
   12      H       2.4646268611    -1.4053917153    -0.5275560856
   13      H       0.0257356567    -1.7993625242    -0.0894382120
   14      H      -2.0715383028    -2.0792503044    -0.8754876062
   15      H      -2.9596702629     1.2573614152    -0.2020424509
   16      H      -1.3428884012     2.8625073967     0.7789094997
   17      H       0.9606825389     2.1415783297     1.3125891187
 ----------------------------------------------------------------
 Nuclear Repulsion Energy =         422.97912797 hartrees
 There are       33 alpha and       33 beta electrons
 Discretize the solute cavity surface with Lebedev spheres
	Using 110 Lebedev grid points for each H atom
	Using 194 Lebedev grid points for other atoms
	Atomic van der Waals radii will be scaled by 1.20
 Remove points where switching function is < 1.0e-08
 Keep 1258 surface tesserae and discard 1368 interior tesserae
 Molecular Surface Area = 150.592 Angst**2
 Applying Cartesian multipole field
    Component          Value
    ---------          -----
     (2,0,0)        1.00000E-11
     (0,2,0)        2.00000E-11
     (0,0,2)       -3.00000E-11
 Nucleus-field energy     =     0.0000000110 hartrees
 Requested basis set is 6-311++G(2df,2p)
 There are 120 shells and 386 basis functions
 A cutoff of  1.0D-12 yielded   6513 shell pairs
 There are     67822 function pairs (     84332 Cartesian)
 Smallest overlap matrix eigenvalue = 9.24E-07
 Linear dependence detected in AO basis
 Tighter screening thresholds may be required for diffuse basis sets
 Use S2THRESH > 14 and THRESH = 14 in case of SCF convergence issues
 Number of orthogonalized atomic orbitals = 385
 Maximum deviation from orthogonality = 3.968E-11
 Guess MOs from SCF MO coefficient file

 -----------------------------------------------------------------------
  General SCF calculation program by
  Eric Jon Sundstrom, Paul Horn, Yuezhi Mao, Dmitri Zuev, Alec White,
  David Stuck, Shaama M.S., Shane Yost, Joonho Lee, David Small,
  Daniel Levine, Susi Lehtola, Hugh Burton, Evgeny Epifanovsky,
  Bang C. Huynh
 -----------------------------------------------------------------------
 Exchange:     0.1500 Hartree-Fock + 1.0000 wB97M-V + LR-HF
 Correlation:  1.0000 wB97M-V
 Using SG-2 standard quadrature grid
 Nonlocal Correlation:  VV10 with C = 0.0100 and b = 6.00 and scale = 1.00000
 Grid used for NLC:  SG-1 standard quadrature
 
 Citation of the SMD model:
 Marenich, A.V.; Cramer, C.J.; Truhlar, D.G.
 J. Phys. Chem. B 2009, 113, 6378-6396.
 iSolventCode=           1
 Solvent: water                                                           
 
 vradii
            1           2           3           4           5           6
    1   1.8500000   1.8500000   1.5200000   1.8500000   1.8500000   1.5200000
            7           8           9          10          11          12
    1   1.8500000   1.8500000   1.8500000   1.2000000   1.2000000   1.2000000
           13          14          15          16          17
    1   1.2000000   1.2000000   1.2000000   1.2000000   1.2000000
 -------------------------------------------------------
 OpenMP BLAS3 based DFT computing Module                
 Release: version 1.0, May 2013, Q-Chem Inc. Pittsburgh 
 -------------------------------------------------------
 A restricted SCF calculation will be
 performed using Roothaan-Hall, DIIS, GDM
 SCF converges when RMS gradient is below 1.0e-07
 ---------------------------------------
  Cycle       Energy         DIIS error
 ---------------------------------------
    1    -421.9760325320      3.68e-04  Roothaan Step
 ---------------------------------------
  Cycle       Energy         DIIS error
 ---------------------------------------
    1    -421.9984844300      4.11e-04  
    2    -422.0018696477      3.00e-04  Done DIIS. Switching to GDM
 ---------------------------------------
  Cycle       Energy        RMS Gradient
 ---------------------------------------
    1    -422.0018696477      5.90e-03   Normal BFGS step
    2    -422.0020744071      7.59e-03   Normal BFGS step
    3    -422.0031487332      5.65e-04   Normal BFGS step
    4    -422.0031602511      4.70e-04   Normal BFGS step
    5    -422.0031655363      1.42e-04   Normal BFGS step
    6    -422.0031657006      4.43e-05   Normal BFGS step
    7    -422.0031657502      2.47e-05   Normal BFGS step
    8    -422.0031657534      9.93e-06   Normal BFGS step
    9    -422.0031657541      3.11e-06   Normal BFGS step
   10    -422.0031657542      1.28e-06   Normal BFGS step
   11    -422.0031657542      7.18e-07   Normal BFGS step
   12    -422.0031657542      9.03e-08  Convergence criterion met
 ---------------------------------------
 SCF time:   CPU 1123.35s  wall 142.00s 
(3)  G-ENP(liq) elect-nuc-pol free energy of system     -422.003165754 a.u.
(4)  G-CDS(liq) cavity-dispersion-solvent structure 
     free energy                                                3.7732 kcal/mol
(6)  G-S(liq) free energy of system                     -421.997152728 a.u.
 SCF   energy in the final basis set =     -421.9971527277
 Total energy in the final basis set =     -421.9971527277
 
 --------------------------------------------------------------
 
                    Orbital Energies (a.u.)
 --------------------------------------------------------------
 
 Alpha MOs
 -- Occupied --
-19.3604 -19.3380 -10.4084 -10.3868 -10.3553 -10.3459 -10.3391 -10.3371
-10.3349  -1.1874  -1.1571  -0.9852  -0.8910  -0.8638  -0.8018  -0.7347
 -0.7049  -0.6534  -0.6275  -0.5968  -0.5692  -0.5494  -0.5416  -0.5299
 -0.5244  -0.4980  -0.4691  -0.4580  -0.4472  -0.4292  -0.3943  -0.3426
 -0.3169
 -- Virtual --
  0.0244   0.0357   0.0382   0.0473   0.0541   0.0571   0.0646   0.0702
  0.0842   0.0938   0.0965   0.1066   0.1088   0.1200   0.1378   0.1406
  0.1468   0.1520   0.1567   0.1606   0.1644   0.1708   0.1773   0.1823
  0.1836   0.1867   0.1932   0.1988   0.2085   0.2158   0.2181   0.2252
  0.2372   0.2504   0.2578   0.2691   0.2744   0.2764   0.2777   0.2896
  0.2982   0.3058   0.3094   0.3260   0.3287   0.3472   0.3540   0.3548
  0.3611   0.3657   0.3707   0.3778   0.3926   0.4004   0.4138   0.4174
  0.4346   0.4511   0.4679   0.4837   0.5084   0.5408   0.5449   0.5709
  0.5809   0.5983   0.6009   0.6055   0.6117   0.6240   0.6319   0.6381
  0.6422   0.6503   0.6611   0.6708   0.6862   0.6911   0.6955   0.7061
  0.7255   0.7275   0.7310   0.7358   0.7415   0.7508   0.7702   0.7792
  0.7865   0.8010   0.8102   0.8235   0.8299   0.8447   0.8510   0.8724
  0.8805   0.8916   0.8975   0.9055   0.9126   0.9338   0.9422   0.9644
  0.9925   1.0239   1.0398   1.0506   1.0553   1.0717   1.0810   1.0996
  1.1157   1.1291   1.1422   1.1636   1.1682   1.1749   1.1938   1.2143
  1.2193   1.2282   1.2574   1.2622   1.2718   1.2964   1.3085   1.3307
  1.3407   1.3535   1.3703   1.3775   1.3944   1.4083   1.4172   1.4259
  1.4352   1.4438   1.4556   1.4744   1.4846   1.5160   1.5361   1.5437
  1.5577   1.5733   1.5790   1.5946   1.6095   1.6281   1.6479   1.6704
  1.6994   1.7222   1.7510   1.7813   1.7861   1.8099   1.8473   1.8965
  1.9432   1.9450   1.9810   2.0030   2.0671   2.0734   2.0896   2.1282
  2.1654   2.2077   2.2372   2.3710   2.3833   2.4450   2.4550   2.5238
  2.5529   2.5996   2.6218   2.6875   2.6979   2.7217   2.7530   2.7750
  2.7967   2.8039   2.8207   2.8260   2.8429   2.8608   2.8702   2.8840
  2.8899   2.9016   2.9196   2.9245   2.9445   2.9607   2.9713   2.9880
  3.0107   3.0230   3.0378   3.0565   3.0666   3.0868   3.1018   3.1520
  3.1770   3.1825   3.2059   3.2109   3.2240   3.2371   3.2420   3.2561
  3.2734   3.2830   3.3111   3.3373   3.3568   3.3664   3.3730   3.3883
  3.3964   3.4146   3.4283   3.4585   3.4878   3.4975   3.5104   3.5193
  3.5209   3.5399   3.5724   3.5885   3.6087   3.6172   3.6374   3.6490
  3.6667   3.6889   3.7099   3.7533   3.7745   3.7856   3.7996   3.8108
  3.8174   3.8334   3.8376   3.8563   3.8775   3.8865   3.9171   3.9454
  3.9575   3.9827   3.9965   4.0344   4.0441   4.0707   4.1016   4.1358
  4.1449   4.1547   4.1701   4.1764   4.2117   4.2319   4.2436   4.2804
  4.3159   4.3259   4.3486   4.3759   4.3959   4.4151   4.4323   4.4584
  4.4645   4.4978   4.5293   4.5507   4.5628   4.5707   4.5730   4.5953
  4.6069   4.6233   4.7018   4.7195   4.7489   4.7916   4.8226   4.8308
  4.9410   5.0271   5.0489   5.1104   5.1832   5.2152   5.2222   5.2771
  5.3084   5.3141   5.3236   5.3529   5.3646   5.4176   5.4789   5.5056
  5.5191   5.5916   5.6618   5.6747   5.6891   5.7174   5.7522   5.8194
  5.8482   5.8930   5.9137   5.9505   5.9830   6.0573   6.1336   6.4015
  6.6375   6.7399   6.8834   7.0602   7.1024   7.2778   7.3173   7.3307
  7.3533   7.3725   7.4549   7.6580   7.7451   7.7895   7.8429  24.2209
 24.8165  24.8231  24.8510  25.0726  25.0971  25.5363  50.5924  50.6487
 --------------------------------------------------------------
 
          Ground-State Mulliken Net Atomic Charges

     Atom                 Charge (a.u.)
  ----------------------------------------
      1 C                     0.506158
      2 C                    -0.342815
      3 O                    -0.441771
      4 C                     0.026962
      5 C                    -0.234191
      6 O                    -0.408346
      7 C                    -0.343768
      8 C                    -0.249742
      9 C                    -0.692920
     10 H                     0.209660
     11 H                     0.192178
     12 H                     0.331126
     13 H                     0.253494
     14 H                     0.353643
     15 H                     0.278461
     16 H                     0.288840
     17 H                     0.273033
  ----------------------------------------
  Sum of atomic charges =     0.000000

 -----------------------------------------------------------------
                    Cartesian Multipole Moments
 -----------------------------------------------------------------
    Charge (ESU x 10^10)
                -0.0000
    Dipole Moment (Debye)
         X       1.3016      Y       0.5436      Z      -0.8813
       Tot       1.6632
    Quadrupole Moments (Debye-Ang)
        XX     -59.1322     XY       4.3482     YY     -48.4832
        XZ      -2.3011     YZ       6.1641     ZZ     -54.1907
    Octopole Moments (Debye-Ang^2)
       XXX      35.8056    XXY      21.3882    XYY     -13.5368
       YYY      -2.4695    XXZ     -21.8818    XYZ       6.8454
       YYZ     -24.0429    XZZ      19.1485    YZZ      -4.6373
       ZZZ     -50.8820
    Hexadecapole Moments (Debye-Ang^3)
      XXXX   -1074.3029   XXXY      82.6752   XXYY    -253.9040
      XYYY     114.3688   YYYY    -458.6908   XXXZ    -138.4813
      XXYZ       5.0705   XYYZ     -38.6302   YYYZ      -9.3620
      XXZZ    -198.6309   XYZZ      27.1412   YYZZ    -115.0069
      XZZZ     -94.7466   YZZZ     -55.2289   ZZZZ    -205.2957
 -----------------------------------------------------------------
 Calculating analytic gradient of the SCF energy
 Gradient of CDS energy
            1           2           3           4           5           6
    1   0.0000216   0.0009279  -0.0003074   0.0001141  -0.0041541   0.0038271
    2  -0.0000232  -0.0001177   0.0000703  -0.0002065  -0.0039055   0.0038173
    3   0.0000443   0.0003489   0.0000225   0.0000488  -0.0024824   0.0023534
            7           8           9          10          11          12
    1  -0.0004327  -0.0001301   0.0003009  -0.0001184  -0.0001788   0.0002704
    2   0.0000968   0.0004711   0.0001431   0.0002170  -0.0001279  -0.0002603
    3  -0.0001110   0.0000948   0.0001121  -0.0000683   0.0001317  -0.0003737
           13          14          15          16          17
    1   0.0000887  -0.0001048  -0.0002035  -0.0000583   0.0001373
    2  -0.0000739  -0.0004142   0.0000105   0.0001965   0.0001063
    3   0.0000246  -0.0001577  -0.0000644   0.0000358   0.0000408
 Gradient of SCF Energy
            1           2           3           4           5           6
    1  -0.0015405  -0.0045330   0.0028639  -0.0021310   0.0029103  -0.0095030
    2   0.0035458  -0.0083397  -0.0053144   0.0068783  -0.0008826   0.0132208
    3  -0.0007797  -0.0050254   0.0157415   0.0017934   0.0006327   0.0011515
            7           8           9          10          11          12
    1   0.0045467  -0.0005548  -0.0060343   0.0038860   0.0002343  -0.0009426
    2   0.0011770  -0.0060003  -0.0027754   0.0052263   0.0011013   0.0037665
    3   0.0019508  -0.0015647  -0.0010828  -0.0014919   0.0035766  -0.0130065
           13          14          15          16          17
    1   0.0002648   0.0074532  -0.0004285  -0.0009750   0.0044835
    2  -0.0073885  -0.0132381   0.0012431   0.0040615   0.0037186
    3  -0.0030775  -0.0019354   0.0001285   0.0007308   0.0022582
 Max gradient component =       1.574E-02
 RMS gradient           =       5.344E-03
 Computing fast CPCM-SWIG gradient
 Updating gradient with PCM contributions...
 -- total gradient after adding PCM contribution --
---------------------------------------------------
  Atom         X              Y              Z     
---------------------------------------------------
   1       0.000028       0.000421       0.000103
   2      -0.000010      -0.000046      -0.000218
   3      -0.000013       0.000050       0.000070
   4      -0.000293      -0.000073      -0.000063
   5       0.000050      -0.000318      -0.000081
   6       0.000151       0.000048       0.000054
   7       0.000168       0.000301       0.000129
   8      -0.000254      -0.000110      -0.000096
   9       0.000188      -0.000208      -0.000055
  10      -0.000000      -0.000025       0.000109
  11       0.000039      -0.000138      -0.000122
  12      -0.000047       0.000063       0.000205
  13       0.000035       0.000067       0.000037
  14      -0.000058       0.000089       0.000001
  15       0.000033      -0.000038      -0.000025
  16       0.000025      -0.000049      -0.000025
  17      -0.000042      -0.000036      -0.000023
---------------------------------------------------
 Number of fixed atoms: 0
 Gradient time:  CPU 259.86 s  wall 37.79 s
 Geometry Optimization Parameters
   NAtoms,    NIC,     NZ,  NCons,   NDum,   NFix, NCnnct, MaxDiis
       17     112       0       0       0       0       0       0

 Cartesian Hessian Update
 Hessian updated using BFGS update


** GEOMETRY OPTIMIZATION IN DELOCALIZED INTERNAL COORDINATES **
   Searching for a Minimum

   Optimization Cycle:   3

                       Coordinates (Angstroms)
     ATOM                X               Y               Z
      1  C         0.6434255083    0.1225059666    0.6561939532
      2  C         2.0411396052   -0.3097665139    1.0292503304
      3  O         2.4511300518   -1.5303966436    0.4275682373
      4  C        -0.2627976192   -0.7742946557    0.1065807739
      5  C        -1.5521593474   -0.3550581927   -0.1977308501
      6  O        -2.4760665974   -1.2132236887   -0.7471639710
      7  C        -1.9522462531    0.9506614494    0.0441737092
      8  C        -1.0399443893    1.8406714774    0.5928702214
      9  C         0.2527876280    1.4375223384    0.8942912541
     10  H         2.7431025146    0.4916685201    0.7899848241
     11  H         2.0942107086   -0.4775957552    2.1051071536
     12  H         2.4646268611   -1.4053917153   -0.5275560856
     13  H         0.0257356567   -1.7993625242   -0.0894382120
     14  H        -2.0715383028   -2.0792503044   -0.8754876062
     15  H        -2.9596702629    1.2573614152   -0.2020424509
     16  H        -1.3428884012    2.8625073967    0.7789094997
     17  H         0.9606825389    2.1415783297    1.3125891187
   Point Group: c1    Number of degrees of freedom:    45


   Energy is   -421.997152728

 Hessian updated using BFGS update

 45 Hessian modes will be used to form the next step
  Hessian Eigenvalues:
     0.006599    0.012762    0.016748    0.018911    0.022395    0.022983
     0.023087    0.023166    0.023198    0.023319    0.023353    0.023392
     0.062280    0.074716    0.122064    0.144416    0.155974    0.159968
     0.159995    0.159998    0.160000    0.178639    0.219892    0.220868
     0.222430    0.234862    0.240633    0.250502    0.308864    0.338249
     0.342622    0.350956    0.351261    0.351878    0.352752    0.418506
     0.424876    0.434413    0.440344    0.464519    0.467622    0.486120
     0.496973    0.529624    0.551778

 Minimum search - taking simple RFO step
 Searching for Lamda that Minimizes Along All modes
 Value Taken    Lamda =  -0.00000274
 Step Taken.  Stepsize is  0.013020

                             Maximum     Tolerance    Cnvgd?
         Gradient           0.000346      0.000300      NO
         Displacement       0.006202      0.001200      NO
         Energy change     -0.000010      0.000001      NO


 New Cartesian Coordinates Obtained by Inverse Iteration

 Displacement from previous Coordinates is:  0.022490
 ----------------------------------------------------------------
             Standard Nuclear Orientation (Angstroms)
    I     Atom           X                Y                Z
 ----------------------------------------------------------------
    1      C       0.6435413667     0.1221905659     0.6560735328
    2      C       2.0417016083    -0.3088378601     1.0287945840
    3      O       2.4505915343    -1.5318290669     0.4307727074
    4      C      -0.2623998206    -0.7742235871     0.1056804226
    5      C      -1.5520691012    -0.3546893161    -0.1983086100
    6      O      -2.4756606613    -1.2129903245    -0.7486107177
    7      C      -1.9527165989     0.9505919855     0.0445348927
    8      C      -1.0403171217     1.8405847400     0.5940665539
    9      C       0.2524189673     1.4373048926     0.8952322505
   10      H       2.7431102782     0.4916577285     0.7846775530
   11      H       2.0962098203    -0.4719309195     2.1054203762
   12      H       2.4631893653    -1.4108426202    -0.5249412723
   13      H       0.0258347923    -1.7992502612    -0.0915906332
   14      H      -2.0705213150    -2.0786579122    -0.8774316373
   15      H      -2.9602254034     1.2575272924    -0.2013081935
   16      H      -1.3434616558     2.8623077714     0.7809827131
   17      H       0.9603038449     2.1412237915     1.3140553778
 ----------------------------------------------------------------
 Nuclear Repulsion Energy =         422.94341299 hartrees
 There are       33 alpha and       33 beta electrons
 Discretize the solute cavity surface with Lebedev spheres
	Using 110 Lebedev grid points for each H atom
	Using 194 Lebedev grid points for other atoms
	Atomic van der Waals radii will be scaled by 1.20
 Remove points where switching function is < 1.0e-08
 Keep 1256 surface tesserae and discard 1370 interior tesserae
 Molecular Surface Area = 150.597 Angst**2
 Applying Cartesian multipole field
    Component          Value
    ---------          -----
     (2,0,0)        1.00000E-11
     (0,2,0)        2.00000E-11
     (0,0,2)       -3.00000E-11
 Nucleus-field energy     =     0.0000000110 hartrees
 Requested basis set is 6-311++G(2df,2p)
 There are 120 shells and 386 basis functions
 A cutoff of  1.0D-12 yielded   6513 shell pairs
 There are     67822 function pairs (     84332 Cartesian)
 Smallest overlap matrix eigenvalue = 9.25E-07
 Linear dependence detected in AO basis
 Tighter screening thresholds may be required for diffuse basis sets
 Use S2THRESH > 14 and THRESH = 14 in case of SCF convergence issues
 Number of orthogonalized atomic orbitals = 385
 Maximum deviation from orthogonality = 8.823E-11
 Guess MOs from SCF MO coefficient file

 -----------------------------------------------------------------------
  General SCF calculation program by
  Eric Jon Sundstrom, Paul Horn, Yuezhi Mao, Dmitri Zuev, Alec White,
  David Stuck, Shaama M.S., Shane Yost, Joonho Lee, David Small,
  Daniel Levine, Susi Lehtola, Hugh Burton, Evgeny Epifanovsky,
  Bang C. Huynh
 -----------------------------------------------------------------------
 Exchange:     0.1500 Hartree-Fock + 1.0000 wB97M-V + LR-HF
 Correlation:  1.0000 wB97M-V
 Using SG-2 standard quadrature grid
 Nonlocal Correlation:  VV10 with C = 0.0100 and b = 6.00 and scale = 1.00000
 Grid used for NLC:  SG-1 standard quadrature
 
 Citation of the SMD model:
 Marenich, A.V.; Cramer, C.J.; Truhlar, D.G.
 J. Phys. Chem. B 2009, 113, 6378-6396.
 iSolventCode=           1
 Solvent: water                                                           
 
 vradii
            1           2           3           4           5           6
    1   1.8500000   1.8500000   1.5200000   1.8500000   1.8500000   1.5200000
            7           8           9          10          11          12
    1   1.8500000   1.8500000   1.8500000   1.2000000   1.2000000   1.2000000
           13          14          15          16          17
    1   1.2000000   1.2000000   1.2000000   1.2000000   1.2000000
 -------------------------------------------------------
 OpenMP BLAS3 based DFT computing Module                
 Release: version 1.0, May 2013, Q-Chem Inc. Pittsburgh 
 -------------------------------------------------------
 A restricted SCF calculation will be
 performed using Roothaan-Hall, DIIS, GDM
 SCF converges when RMS gradient is below 1.0e-07
 ---------------------------------------
  Cycle       Energy         DIIS error
 ---------------------------------------
    1    -421.9760167011      3.67e-04  Roothaan Step
 ---------------------------------------
  Cycle       Energy         DIIS error
 ---------------------------------------
    1    -421.9984760178      4.12e-04  
    2    -422.0018597732      3.02e-04  Done DIIS. Switching to GDM
 ---------------------------------------
  Cycle       Energy        RMS Gradient
 ---------------------------------------
    1    -422.0018597732      5.92e-03   Normal BFGS step
    2    -422.0020606259      7.61e-03   Normal BFGS step
    3    -422.0031482928      5.68e-04   Normal BFGS step
    4    -422.0031598315      4.67e-04   Normal BFGS step
    5    -422.0031650909      1.42e-04   Normal BFGS step
    6    -422.0031652546      4.39e-05   Normal BFGS step
    7    -422.0031653043      2.46e-05   Normal BFGS step
    8    -422.0031653074      9.86e-06   Normal BFGS step
    9    -422.0031653081      3.09e-06   Normal BFGS step
   10    -422.0031653083      1.27e-06   Normal BFGS step
   11    -422.0031653083      7.23e-07   Normal BFGS step
   12    -422.0031653083      9.17e-08  Convergence criterion met
 ---------------------------------------
 SCF time:   CPU 1123.33s  wall 142.00s 
(3)  G-ENP(liq) elect-nuc-pol free energy of system     -422.003165308 a.u.
(4)  G-CDS(liq) cavity-dispersion-solvent structure 
     free energy                                                3.7717 kcal/mol
(6)  G-S(liq) free energy of system                     -421.997154792 a.u.
 SCF   energy in the final basis set =     -421.9971547917
 Total energy in the final basis set =     -421.9971547917
 
 --------------------------------------------------------------
 
                    Orbital Energies (a.u.)
 --------------------------------------------------------------
 
 Alpha MOs
 -- Occupied --
-19.3604 -19.3380 -10.4085 -10.3869 -10.3554 -10.3460 -10.3392 -10.3371
-10.3350  -1.1873  -1.1571  -0.9851  -0.8910  -0.8638  -0.8019  -0.7346
 -0.7049  -0.6533  -0.6275  -0.5968  -0.5693  -0.5494  -0.5415  -0.5299
 -0.5244  -0.4980  -0.4691  -0.4580  -0.4472  -0.4292  -0.3943  -0.3426
 -0.3168
 -- Virtual --
  0.0244   0.0356   0.0382   0.0473   0.0541   0.0571   0.0646   0.0702
  0.0842   0.0938   0.0964   0.1067   0.1087   0.1200   0.1378   0.1406
  0.1468   0.1520   0.1567   0.1606   0.1644   0.1707   0.1773   0.1824
  0.1836   0.1867   0.1932   0.1988   0.2085   0.2158   0.2181   0.2251
  0.2372   0.2504   0.2578   0.2691   0.2744   0.2764   0.2776   0.2896
  0.2982   0.3059   0.3094   0.3257   0.3285   0.3471   0.3541   0.3548
  0.3611   0.3657   0.3707   0.3778   0.3926   0.4004   0.4138   0.4173
  0.4346   0.4511   0.4679   0.4836   0.5084   0.5407   0.5449   0.5709
  0.5809   0.5981   0.6008   0.6054   0.6117   0.6240   0.6319   0.6381
  0.6422   0.6503   0.6608   0.6708   0.6862   0.6911   0.6954   0.7060
  0.7254   0.7274   0.7310   0.7356   0.7414   0.7508   0.7702   0.7790
  0.7864   0.8008   0.8101   0.8235   0.8298   0.8447   0.8510   0.8724
  0.8805   0.8916   0.8974   0.9054   0.9126   0.9336   0.9424   0.9645
  0.9924   1.0238   1.0400   1.0507   1.0551   1.0717   1.0808   1.0993
  1.1155   1.1292   1.1420   1.1637   1.1681   1.1747   1.1938   1.2143
  1.2192   1.2282   1.2572   1.2621   1.2718   1.2963   1.3088   1.3309
  1.3407   1.3534   1.3702   1.3776   1.3943   1.4081   1.4172   1.4257
  1.4350   1.4435   1.4556   1.4743   1.4844   1.5156   1.5358   1.5438
  1.5578   1.5732   1.5791   1.5946   1.6094   1.6283   1.6477   1.6699
  1.6995   1.7220   1.7512   1.7813   1.7861   1.8098   1.8473   1.8963
  1.9430   1.9450   1.9809   2.0030   2.0668   2.0730   2.0896   2.1279
  2.1652   2.2079   2.2371   2.3710   2.3831   2.4449   2.4548   2.5233
  2.5523   2.6000   2.6218   2.6874   2.6980   2.7217   2.7534   2.7753
  2.7965   2.8036   2.8207   2.8260   2.8428   2.8607   2.8700   2.8840
  2.8897   2.9017   2.9195   2.9244   2.9443   2.9606   2.9712   2.9881
  3.0109   3.0230   3.0377   3.0566   3.0667   3.0866   3.1021   3.1519
  3.1766   3.1824   3.2055   3.2105   3.2241   3.2371   3.2420   3.2562
  3.2732   3.2830   3.3110   3.3371   3.3568   3.3665   3.3728   3.3882
  3.3957   3.4142   3.4279   3.4585   3.4878   3.4976   3.5104   3.5193
  3.5207   3.5400   3.5724   3.5887   3.6090   3.6173   3.6376   3.6489
  3.6666   3.6887   3.7095   3.7532   3.7745   3.7855   3.7994   3.8107
  3.8172   3.8332   3.8373   3.8564   3.8772   3.8861   3.9167   3.9453
  3.9574   3.9826   3.9963   4.0342   4.0441   4.0705   4.1013   4.1356
  4.1458   4.1543   4.1699   4.1759   4.2117   4.2317   4.2431   4.2802
  4.3156   4.3260   4.3483   4.3755   4.3955   4.4147   4.4318   4.4585
  4.4645   4.4973   4.5290   4.5505   4.5624   4.5702   4.5725   4.5948
  4.6064   4.6234   4.7016   4.7192   4.7489   4.7912   4.8222   4.8304
  4.9409   5.0266   5.0483   5.1099   5.1829   5.2149   5.2221   5.2770
  5.3082   5.3138   5.3235   5.3524   5.3644   5.4175   5.4785   5.5050
  5.5188   5.5911   5.6619   5.6745   5.6883   5.7166   5.7519   5.8193
  5.8478   5.8925   5.9131   5.9502   5.9827   6.0570   6.1327   6.4006
  6.6369   6.7389   6.8823   7.0601   7.1023   7.2776   7.3168   7.3303
  7.3532   7.3724   7.4550   7.6581   7.7449   7.7895   7.8429  24.2208
 24.8161  24.8229  24.8503  25.0720  25.0962  25.5354  50.5924  50.6485
 --------------------------------------------------------------
 
          Ground-State Mulliken Net Atomic Charges

     Atom                 Charge (a.u.)
  ----------------------------------------
      1 C                     0.503813
      2 C                    -0.342430
      3 O                    -0.442274
      4 C                     0.023205
      5 C                    -0.234173
      6 O                    -0.408307
      7 C                    -0.343867
      8 C                    -0.249274
      9 C                    -0.687324
     10 H                     0.209452
     11 H                     0.192736
     12 H                     0.331267
     13 H                     0.253141
     14 H                     0.353633
     15 H                     0.278485
     16 H                     0.288820
     17 H                     0.273098
  ----------------------------------------
  Sum of atomic charges =     0.000000

 -----------------------------------------------------------------
                    Cartesian Multipole Moments
 -----------------------------------------------------------------
    Charge (ESU x 10^10)
                -0.0000
    Dipole Moment (Debye)
         X       1.3060      Y       0.5421      Z      -0.8876
       Tot       1.6695
    Quadrupole Moments (Debye-Ang)
        XX     -59.1386     XY       4.3302     YY     -48.4796
        XZ      -2.3166     YZ       6.1995     ZZ     -54.2020
    Octopole Moments (Debye-Ang^2)
       XXX      35.8109    XXY      21.3976    XYY     -13.4907
       YYY      -2.4767    XXZ     -21.9003    XYZ       6.8929
       YYZ     -24.1175    XZZ      19.1280    YZZ      -4.6031
       ZZZ     -50.9046
    Hexadecapole Moments (Debye-Ang^3)
      XXXX   -1074.3598   XXXY      82.6333   XXYY    -253.8899
      XYYY     114.3119   YYYY    -458.8127   XXXZ    -138.7477
      XXYZ       5.1647   XYYZ     -38.8296   YYYZ      -9.2439
      XXZZ    -198.7697   XYZZ      27.2547   YYZZ    -115.0726
      XZZZ     -94.8542   YZZZ     -55.2445   ZZZZ    -205.5185
 -----------------------------------------------------------------
 Calculating analytic gradient of the SCF energy
 Gradient of CDS energy
            1           2           3           4           5           6
    1   0.0000223   0.0009271  -0.0003062   0.0001151  -0.0041557   0.0038289
    2  -0.0000218  -0.0001193   0.0000690  -0.0002070  -0.0039085   0.0038208
    3   0.0000437   0.0003482   0.0000204   0.0000489  -0.0024881   0.0023591
            7           8           9          10          11          12
    1  -0.0004332  -0.0001298   0.0003010  -0.0001182  -0.0001802   0.0002706
    2   0.0000964   0.0004713   0.0001427   0.0002168  -0.0001248  -0.0002617
    3  -0.0001112   0.0000953   0.0001138  -0.0000696   0.0001334  -0.0003726
           13          14          15          16          17
    1   0.0000882  -0.0001049  -0.0002037  -0.0000583   0.0001368
    2  -0.0000735  -0.0004143   0.0000105   0.0001965   0.0001066
    3   0.0000249  -0.0001582  -0.0000645   0.0000360   0.0000406
 Gradient of SCF Energy
            1           2           3           4           5           6
    1  -0.0014666  -0.0045206   0.0028747  -0.0020461   0.0029085  -0.0096049
    2   0.0032869  -0.0082996  -0.0052720   0.0068625  -0.0007588   0.0131359
    3  -0.0008514  -0.0047976   0.0156584   0.0018472   0.0006704   0.0011063
            7           8           9          10          11          12
    1   0.0043638  -0.0004679  -0.0059797   0.0038708   0.0001877  -0.0009333
    2   0.0010274  -0.0058621  -0.0026505   0.0052436   0.0011862   0.0036351
    3   0.0018544  -0.0015173  -0.0010334  -0.0015784   0.0036905  -0.0131348
           13          14          15          16          17
    1   0.0002645   0.0074820  -0.0004692  -0.0009939   0.0045304
    2  -0.0074932  -0.0132285   0.0012878   0.0041290   0.0037706
    3  -0.0031382  -0.0019384   0.0001324   0.0007499   0.0022799
 Max gradient component =       1.566E-02
 RMS gradient           =       5.331E-03
 Computing fast CPCM-SWIG gradient
 Updating gradient with PCM contributions...
 -- total gradient after adding PCM contribution --
---------------------------------------------------
  Atom         X              Y              Z     
---------------------------------------------------
   1       0.000128       0.000131       0.000039
   2       0.000005       0.000032      -0.000012
   3      -0.000008       0.000027      -0.000068
   4      -0.000146      -0.000107      -0.000021
   5       0.000051      -0.000195      -0.000046
   6       0.000060      -0.000032       0.000000
   7      -0.000017       0.000152       0.000029
   8      -0.000188       0.000037      -0.000046
   9       0.000188      -0.000077      -0.000007
  10      -0.000014       0.000000       0.000051
  11      -0.000016      -0.000080      -0.000011
  12      -0.000019      -0.000015       0.000120
  13       0.000017      -0.000010       0.000001
  14      -0.000043       0.000094       0.000007
  15      -0.000009       0.000007      -0.000023
  16       0.000006       0.000020      -0.000009
  17       0.000004       0.000016      -0.000005
---------------------------------------------------
 Number of fixed atoms: 0
 Gradient time:  CPU 259.27 s  wall 37.46 s
 Geometry Optimization Parameters
   NAtoms,    NIC,     NZ,  NCons,   NDum,   NFix, NCnnct, MaxDiis
       17     112       0       0       0       0       0       0

 Cartesian Hessian Update
 Hessian updated using BFGS update


** GEOMETRY OPTIMIZATION IN DELOCALIZED INTERNAL COORDINATES **
   Searching for a Minimum

   Optimization Cycle:   4

                       Coordinates (Angstroms)
     ATOM                X               Y               Z
      1  C         0.6435413667    0.1221905659    0.6560735328
      2  C         2.0417016083   -0.3088378601    1.0287945840
      3  O         2.4505915343   -1.5318290669    0.4307727074
      4  C        -0.2623998206   -0.7742235871    0.1056804226
      5  C        -1.5520691012   -0.3546893161   -0.1983086100
      6  O        -2.4756606613   -1.2129903245   -0.7486107177
      7  C        -1.9527165989    0.9505919855    0.0445348927
      8  C        -1.0403171217    1.8405847400    0.5940665539
      9  C         0.2524189673    1.4373048926    0.8952322505
     10  H         2.7431102782    0.4916577285    0.7846775530
     11  H         2.0962098203   -0.4719309195    2.1054203762
     12  H         2.4631893653   -1.4108426202   -0.5249412723
     13  H         0.0258347923   -1.7992502612   -0.0915906332
     14  H        -2.0705213150   -2.0786579122   -0.8774316373
     15  H        -2.9602254034    1.2575272924   -0.2013081935
     16  H        -1.3434616558    2.8623077714    0.7809827131
     17  H         0.9603038449    2.1412237915    1.3140553778
   Point Group: c1    Number of degrees of freedom:    45


   Energy is   -421.997154792

 Hessian updated using BFGS update

 45 Hessian modes will be used to form the next step
  Hessian Eigenvalues:
     0.002661    0.012711    0.016673    0.018911    0.022394    0.022948
     0.023089    0.023159    0.023222    0.023315    0.023367    0.023392
     0.062800    0.074468    0.123561    0.144112    0.155716    0.159869
     0.159995    0.159998    0.160572    0.186511    0.219053    0.220151
     0.228235    0.235325    0.239156    0.250337    0.308956    0.338113
     0.344184    0.351210    0.351635    0.352510    0.356959    0.414502
     0.424839    0.426781    0.449684    0.465643    0.467556    0.496626
     0.518468    0.531422    0.580136

 Minimum search - taking simple RFO step
 Searching for Lamda that Minimizes Along All modes
 Value Taken    Lamda =  -0.00000385
 Step Taken.  Stepsize is  0.036330

                             Maximum     Tolerance    Cnvgd?
         Gradient           0.000155      0.000300     YES
         Displacement       0.017645      0.001200      NO
         Energy change     -0.000002      0.000001      NO


[...]
 
 --------------------------------------------------------------
 
                    Orbital Energies (a.u.)
 --------------------------------------------------------------
 
 Alpha MOs
 -- Occupied --
-19.3603 -19.3383 -10.4083 -10.3872 -10.3556 -10.3459 -10.3392 -10.3367
-10.3347  -1.1872  -1.1576  -0.9850  -0.8909  -0.8637  -0.8022  -0.7340
 -0.7048  -0.6536  -0.6273  -0.5977  -0.5712  -0.5481  -0.5409  -0.5300
 -0.5245  -0.4970  -0.4699  -0.4579  -0.4465  -0.4304  -0.3940  -0.3428
 -0.3163
 -- Virtual --
  0.0244   0.0355   0.0382   0.0481   0.0545   0.0572   0.0655   0.0705
  0.0844   0.0910   0.0980   0.1069   0.1093   0.1200   0.1371   0.1411
  0.1466   0.1516   0.1564   0.1604   0.1649   0.1697   0.1786   0.1827
  0.1837   0.1865   0.1942   0.1997   0.2087   0.2155   0.2185   0.2254
  0.2376   0.2491   0.2584   0.2703   0.2742   0.2762   0.2784   0.2921
  0.2971   0.3064   0.3112   0.3202   0.3242   0.3464   0.3552   0.3564
  0.3617   0.3670   0.3724   0.3776   0.3943   0.3995   0.4160   0.4170
  0.4350   0.4521   0.4691   0.4834   0.5077   0.5393   0.5482   0.5726
  0.5856   0.5935   0.6004   0.6035   0.6122   0.6228   0.6293   0.6388
  0.6437   0.6498   0.6553   0.6722   0.6851   0.6923   0.6960   0.7062
  0.7194   0.7276   0.7297   0.7374   0.7413   0.7557   0.7717   0.7779
  0.7873   0.7969   0.8087   0.8250   0.8300   0.8452   0.8511   0.8740
  0.8833   0.8928   0.8959   0.9048   0.9132   0.9311   0.9501   0.9685
  0.9928   1.0214   1.0422   1.0516   1.0545   1.0695   1.0788   1.0996
  1.1127   1.1316   1.1373   1.1597   1.1668   1.1732   1.1965   1.2148
  1.2167   1.2311   1.2520   1.2581   1.2755   1.2929   1.3131   1.3355
  1.3431   1.3532   1.3702   1.3832   1.3950   1.4049   1.4194   1.4230
  1.4326   1.4403   1.4615   1.4709   1.4846   1.5121   1.5360   1.5433
  1.5612   1.5725   1.5815   1.6010   1.6114   1.6373   1.6520   1.6574
  1.7025   1.7216   1.7557   1.7811   1.7903   1.8091   1.8490   1.9010
  1.9420   1.9468   1.9794   2.0054   2.0635   2.0665   2.0957   2.1294
  2.1596   2.2275   2.2428   2.3737   2.3811   2.4432   2.4534   2.5123
  2.5390   2.6092   2.6198   2.6874   2.7004   2.7218   2.7614   2.7884
  2.7955   2.8014   2.8211   2.8258   2.8422   2.8600   2.8676   2.8848
  2.8923   2.9039   2.9174   2.9237   2.9395   2.9596   2.9697   2.9891
  3.0183   3.0272   3.0370   3.0605   3.0786   3.0890   3.1153   3.1511
  3.1681   3.1787   3.1959   3.2017   3.2274   3.2362   3.2456   3.2575
  3.2720   3.2855   3.3139   3.3294   3.3594   3.3666   3.3707   3.3828
  3.3882   3.4130   3.4227   3.4606   3.4884   3.4991   3.5087   3.5177
  3.5217   3.5465   3.5794   3.5902   3.6185   3.6216   3.6425   3.6472
  3.6665   3.6820   3.7086   3.7590   3.7762   3.7856   3.7998   3.8094
  3.8137   3.8256   3.8447   3.8600   3.8727   3.8854   3.9124   3.9478
  3.9583   3.9852   3.9965   4.0369   4.0516   4.0710   4.1029   4.1330
  4.1480   4.1667   4.1707   4.1811   4.2113   4.2335   4.2381   4.2804
  4.3146   4.3345   4.3454   4.3673   4.3963   4.4098   4.4213   4.4645
  4.4692   4.4937   4.5264   4.5568   4.5638   4.5698   4.5718   4.5888
  4.5998   4.6307   4.7005   4.7207   4.7556   4.7911   4.8245   4.8347
  4.9466   5.0239   5.0441   5.1108   5.1824   5.2195   5.2221   5.2830
  5.3052   5.3123   5.3238   5.3517   5.3606   5.4188   5.4739   5.5015
  5.5236   5.5872   5.6690   5.6742   5.6831   5.7148   5.7524   5.8197
  5.8436   5.8933   5.9129   5.9534   5.9973   6.0492   6.1324   6.4007
  6.6419   6.7404   6.8815   7.0602   7.1027   7.2775   7.3161   7.3281
  7.3573   7.3737   7.4556   7.6542   7.7452   7.7927   7.8431  24.2236
 24.8170  24.8300  24.8535  25.0731  25.0978  25.5359  50.5966  50.6489
 --------------------------------------------------------------
 
          Ground-State Mulliken Net Atomic Charges

     Atom                 Charge (a.u.)
  ----------------------------------------
      1 C                     0.447111
      2 C                    -0.346963
      3 O                    -0.450393
      4 C                    -0.075662
      5 C                    -0.239907
      6 O                    -0.408999
      7 C                    -0.343676
      8 C                    -0.231408
      9 C                    -0.537658
     10 H                     0.207844
     11 H                     0.206068
     12 H                     0.334282
     13 H                     0.244231
     14 H                     0.354381
     15 H                     0.278141
     16 H                     0.288316
     17 H                     0.274293
  ----------------------------------------
  Sum of atomic charges =     0.000000

 -----------------------------------------------------------------
                    Cartesian Multipole Moments
 -----------------------------------------------------------------
    Charge (ESU x 10^10)
                -0.0000
    Dipole Moment (Debye)
         X       1.4297      Y       0.4436      Z      -1.1088
       Tot       1.8629
    Quadrupole Moments (Debye-Ang)
        XX     -58.8340     XY       3.8560     YY     -48.3560
        XZ      -2.7174     YZ       7.1732     ZZ     -54.6161
    Octopole Moments (Debye-Ang^2)
       XXX      37.0737    XXY      20.4695    XYY     -11.9866
       YYY      -3.4491    XXZ     -22.4586    XYZ       7.9598
       YYZ     -26.0850    XZZ      18.0288    YZZ      -3.4528
       ZZZ     -51.9102
    Hexadecapole Moments (Debye-Ang^3)
      XXXX   -1064.0293   XXXY      81.1333   XXYY    -251.2884
      XYYY     112.4992   YYYY    -461.1411   XXXZ    -144.3954
      XXYZ       7.7374   XYYZ     -43.6798   YYYZ      -5.7995
      XXZZ    -201.9302   XYZZ      31.1051   YYZZ    -116.6098
      XZZZ     -97.9338   YZZZ     -54.7225   ZZZZ    -212.0600
 -----------------------------------------------------------------
 Calculating analytic gradient of the SCF energy
 Gradient of CDS energy
            1           2           3           4           5           6
    1   0.0000318   0.0008932  -0.0002976   0.0001361  -0.0041172   0.0037896
    2   0.0000214  -0.0001879   0.0001002  -0.0002194  -0.0038973   0.0038110
    3   0.0000299   0.0003287   0.0000071   0.0000415  -0.0025825   0.0024509
            7           8           9          10          11          12
    1  -0.0004343  -0.0001309   0.0003063  -0.0001046  -0.0001803   0.0002777
    2   0.0000938   0.0004678   0.0001367   0.0002052  -0.0000822  -0.0002994
    3  -0.0001112   0.0001061   0.0001412  -0.0001170   0.0001562  -0.0003367
           13          14          15          16          17
    1   0.0000770  -0.0001009  -0.0002038  -0.0000603   0.0001182
    2  -0.0000591  -0.0004119   0.0000102   0.0001950   0.0001159
    3   0.0000358  -0.0001671  -0.0000643   0.0000408   0.0000403
 Gradient of SCF Energy
            1           2           3           4           5           6
    1  -0.0027320  -0.0047641   0.0027762  -0.0032726   0.0027013  -0.0098714
    2   0.0040682  -0.0090538  -0.0037481   0.0069387  -0.0005886   0.0131934
    3  -0.0008904  -0.0040844   0.0171973   0.0023843   0.0007712   0.0014050
            7           8           9          10          11          12
    1   0.0042905   0.0003558  -0.0044980   0.0040344   0.0005053  -0.0012054
    2   0.0010669  -0.0060600  -0.0024219   0.0048532   0.0020446   0.0022020
    3   0.0018716  -0.0016050  -0.0013369  -0.0023047   0.0034389  -0.0142673
           13          14          15          16          17
    1   0.0008573   0.0077871  -0.0003485  -0.0009845   0.0043686
    2  -0.0080060  -0.0133287   0.0012349   0.0039405   0.0036649
    3  -0.0036888  -0.0022658   0.0001980   0.0008192   0.0023579
 Max gradient component =       1.720E-02
 RMS gradient           =       5.514E-03
 Computing fast CPCM-SWIG gradient
 Updating gradient with PCM contributions...
 -- total gradient after adding PCM contribution --
---------------------------------------------------
  Atom         X              Y              Z     
---------------------------------------------------
   1       0.000021      -0.000008       0.000002
   2      -0.000010      -0.000001       0.000022
   3       0.000040      -0.000000       0.000012
   4       0.000003      -0.000015      -0.000006
   5      -0.000003      -0.000013      -0.000010
   6      -0.000004       0.000006      -0.000009
   7      -0.000015       0.000019      -0.000011
   8      -0.000022       0.000018      -0.000010
   9       0.000028       0.000002       0.000015
  10       0.000006      -0.000008       0.000010
  11      -0.000019      -0.000001       0.000009
  12      -0.000033      -0.000015       0.000001
  13      -0.000010      -0.000006      -0.000001
  14       0.000004       0.000010       0.000000
  15       0.000002       0.000006      -0.000013
  16       0.000007       0.000006      -0.000009
  17       0.000005      -0.000000      -0.000002
---------------------------------------------------
 Number of fixed atoms: 0
 Gradient time:  CPU 257.42 s  wall 37.14 s
 Geometry Optimization Parameters
   NAtoms,    NIC,     NZ,  NCons,   NDum,   NFix, NCnnct, MaxDiis
       17     112       0       0       0       0       0       0

 Cartesian Hessian Update
 Hessian updated using BFGS update


** GEOMETRY OPTIMIZATION IN DELOCALIZED INTERNAL COORDINATES **
   Searching for a Minimum

   Optimization Cycle:  19

                       Coordinates (Angstroms)
     ATOM                X               Y               Z
      1  C         0.6448499347    0.1299031450    0.6513972189
      2  C         2.0542107084   -0.2851860879    1.0018006674
      3  O         2.4163235658   -1.5757460911    0.5316002800
      4  C        -0.2513683441   -0.7609778553    0.0794584138
      5  C        -1.5456536710   -0.3463682845   -0.2161104160
      6  O        -2.4596177493   -1.2020007106   -0.7867094022
      7  C        -1.9587128095    0.9482223024    0.0553313373
      8  C        -1.0547827897    1.8336818701    0.6280170094
      9  C         0.2398005425    1.4354880660    0.9228756027
     10  H         2.7535683177    0.4670937265    0.6305552742
     11  H         2.1615583811   -0.3194298513    2.0859919097
     12  H         2.4180310238   -1.5584259903   -0.4316751169
     13  H         0.0449178853   -1.7788926208   -0.1412396013
     14  H        -2.0455579268   -2.0607818458   -0.9327625316
     15  H        -2.9689518096    1.2514347338   -0.1836886192
     16  H        -1.3684724947    2.8472262524    0.8402903658
     17  H         0.9393871355    2.1348961412    1.3629675079
   Point Group: c1    Number of degrees of freedom:    45


   Energy is   -421.997180958

 Hessian updated using BFGS update

 45 Hessian modes will be used to form the next step
  Hessian Eigenvalues:
     0.000890    0.005977    0.017227    0.018942    0.022435    0.022526
     0.023116    0.023184    0.023328    0.023363    0.023425    0.024179
     0.066952    0.074650    0.123727    0.144086    0.150065    0.156011
     0.159802    0.160021    0.184909    0.189819    0.207709    0.218960
     0.229122    0.234661    0.241235    0.246674    0.308817    0.318133
     0.338378    0.345033    0.351240    0.351528    0.352632    0.355710
     0.422057    0.428867    0.438298    0.465784    0.469078    0.511532
     0.531875    0.576826    0.618054

 Minimum search - taking simple RFO step
 Searching for Lamda that Minimizes Along All modes
 Value Taken    Lamda =  -0.00000020
 Step Taken.  Stepsize is  0.007958

                             Maximum     Tolerance    Cnvgd?
         Gradient           0.000028      0.000300     YES
         Displacement       0.004851      0.001200      NO
         Energy change     -0.000000      0.000001     YES

 Final energy is   -421.997180957569     


 ******************************
 **  OPTIMIZATION CONVERGED  **
 ******************************

                       Coordinates (Angstroms)
     ATOM                X               Y               Z
      1  C         0.6448499347    0.1299031450    0.6513972189
      2  C         2.0542107084   -0.2851860879    1.0018006674
      3  O         2.4163235658   -1.5757460911    0.5316002800
      4  C        -0.2513683441   -0.7609778553    0.0794584138
      5  C        -1.5456536710   -0.3463682845   -0.2161104160
      6  O        -2.4596177493   -1.2020007106   -0.7867094022
      7  C        -1.9587128095    0.9482223024    0.0553313373
      8  C        -1.0547827897    1.8336818701    0.6280170094
      9  C         0.2398005425    1.4354880660    0.9228756027
     10  H         2.7535683177    0.4670937265    0.6305552742
     11  H         2.1615583811   -0.3194298513    2.0859919097
     12  H         2.4180310238   -1.5584259903   -0.4316751169
     13  H         0.0449178853   -1.7788926208   -0.1412396013
     14  H        -2.0455579268   -2.0607818458   -0.9327625316
     15  H        -2.9689518096    1.2514347338   -0.1836886192
     16  H        -1.3684724947    2.8472262524    0.8402903658
     17  H         0.9393871355    2.1348961412    1.3629675079

Z-matrix Print:
$molecule
0 1
C 
C  1 1.387080
H  2 1.082887 1 120.729659
C  2 1.390840 1 119.829998 3 -179.967414 0
O  4 1.375871 2 121.393531 1 179.829995 0
H  5 0.964511 4 109.350153 2 -0.675531 0
C  4 1.385736 2 120.947452 1 -0.148940 0
H  7 1.081504 4 119.806171 2 179.894686 0
C  7 1.388919 4 118.839502 2 0.150970 0
H  9 1.082004 7 119.300558 4 179.811709 0
C  9 1.386162 7 120.823214 4 0.109977 0
H  11 1.082716 9 120.288189 7 179.576670 0
C  1 1.510424 2 121.469018 3 -0.729956 0
H  13 1.090031 1 109.346047 2 -110.409353 0
H  13 1.092176 1 109.228828 2 132.495777 0
O  13 1.420479 1 114.252288 2 8.180452 0
H  16 0.963433 13 108.365644 1 65.075534 0
$end

 
 --------------------------------------------------------------
 
                    Orbital Energies (a.u.)
 --------------------------------------------------------------
 
 Alpha MOs
 -- Occupied --
-19.3603 -19.3383 -10.4083 -10.3872 -10.3556 -10.3459 -10.3392 -10.3367
-10.3347  -1.1872  -1.1576  -0.9850  -0.8909  -0.8637  -0.8022  -0.7340
 -0.7048  -0.6536  -0.6273  -0.5977  -0.5712  -0.5481  -0.5409  -0.5300
 -0.5245  -0.4970  -0.4699  -0.4579  -0.4465  -0.4304  -0.3940  -0.3428
 -0.3163
 -- Virtual --
  0.0244   0.0355   0.0382   0.0481   0.0545   0.0572   0.0655   0.0705
  0.0844   0.0910   0.0980   0.1069   0.1093   0.1200   0.1371   0.1411
  0.1466   0.1516   0.1564   0.1604   0.1649   0.1697   0.1786   0.1827
  0.1837   0.1865   0.1942   0.1997   0.2087   0.2155   0.2185   0.2254
  0.2376   0.2491   0.2584   0.2703   0.2742   0.2762   0.2784   0.2921
  0.2971   0.3064   0.3112   0.3202   0.3242   0.3464   0.3552   0.3564
  0.3617   0.3670   0.3724   0.3776   0.3943   0.3995   0.4160   0.4170
  0.4350   0.4521   0.4691   0.4834   0.5077   0.5393   0.5482   0.5726
  0.5856   0.5935   0.6004   0.6035   0.6122   0.6228   0.6293   0.6388
  0.6437   0.6498   0.6553   0.6722   0.6851   0.6923   0.6960   0.7062
  0.7194   0.7276   0.7297   0.7374   0.7413   0.7557   0.7717   0.7779
  0.7873   0.7969   0.8087   0.8250   0.8300   0.8452   0.8511   0.8740
  0.8833   0.8928   0.8959   0.9048   0.9132   0.9311   0.9501   0.9685
  0.9928   1.0214   1.0422   1.0516   1.0545   1.0695   1.0788   1.0996
  1.1127   1.1316   1.1373   1.1597   1.1668   1.1732   1.1965   1.2148
  1.2167   1.2311   1.2520   1.2581   1.2755   1.2929   1.3131   1.3355
  1.3431   1.3532   1.3702   1.3832   1.3950   1.4049   1.4194   1.4230
  1.4326   1.4403   1.4615   1.4709   1.4846   1.5121   1.5360   1.5433
  1.5612   1.5725   1.5815   1.6010   1.6114   1.6373   1.6520   1.6574
  1.7025   1.7216   1.7557   1.7811   1.7903   1.8091   1.8490   1.9010
  1.9420   1.9468   1.9794   2.0054   2.0635   2.0665   2.0957   2.1294
  2.1596   2.2275   2.2428   2.3737   2.3811   2.4432   2.4534   2.5123
  2.5390   2.6092   2.6198   2.6874   2.7004   2.7218   2.7614   2.7884
  2.7955   2.8014   2.8211   2.8258   2.8422   2.8600   2.8676   2.8848
  2.8923   2.9039   2.9174   2.9237   2.9395   2.9596   2.9697   2.9891
  3.0183   3.0272   3.0370   3.0605   3.0786   3.0890   3.1153   3.1511
  3.1681   3.1787   3.1959   3.2017   3.2274   3.2362   3.2456   3.2575
  3.2720   3.2855   3.3139   3.3294   3.3594   3.3666   3.3707   3.3828
  3.3882   3.4130   3.4227   3.4606   3.4884   3.4991   3.5087   3.5177
  3.5217   3.5465   3.5794   3.5902   3.6185   3.6216   3.6425   3.6472
  3.6665   3.6820   3.7086   3.7590   3.7762   3.7856   3.7998   3.8094
  3.8137   3.8256   3.8447   3.8600   3.8727   3.8854   3.9124   3.9478
  3.9583   3.9852   3.9965   4.0369   4.0516   4.0710   4.1029   4.1330
  4.1480   4.1667   4.1707   4.1811   4.2113   4.2335   4.2381   4.2804
  4.3146   4.3345   4.3454   4.3673   4.3963   4.4098   4.4213   4.4645
  4.4692   4.4937   4.5264   4.5568   4.5638   4.5698   4.5718   4.5888
  4.5998   4.6307   4.7005   4.7207   4.7556   4.7911   4.8245   4.8347
  4.9466   5.0239   5.0441   5.1108   5.1824   5.2195   5.2221   5.2830
  5.3052   5.3123   5.3238   5.3517   5.3606   5.4188   5.4739   5.5015
  5.5236   5.5872   5.6690   5.6742   5.6831   5.7148   5.7524   5.8197
  5.8436   5.8933   5.9129   5.9534   5.9973   6.0492   6.1324   6.4007
  6.6419   6.7404   6.8815   7.0602   7.1027   7.2775   7.3161   7.3281
  7.3573   7.3737   7.4556   7.6542   7.7452   7.7927   7.8431  24.2236
 24.8170  24.8300  24.8535  25.0731  25.0978  25.5359  50.5966  50.6489
 --------------------------------------------------------------
 
          Ground-State Mulliken Net Atomic Charges

     Atom                 Charge (a.u.)
  ----------------------------------------
      1 C                     0.447111
      2 C                    -0.346963
      3 O                    -0.450393
      4 C                    -0.075662
      5 C                    -0.239907
      6 O                    -0.408999
      7 C                    -0.343676
      8 C                    -0.231408
      9 C                    -0.537658
     10 H                     0.207844
     11 H                     0.206068
     12 H                     0.334282
     13 H                     0.244231
     14 H                     0.354381
     15 H                     0.278141
     16 H                     0.288316
     17 H                     0.274293
  ----------------------------------------
  Sum of atomic charges =     0.000000

 -----------------------------------------------------------------
                    Cartesian Multipole Moments
 -----------------------------------------------------------------
    Charge (ESU x 10^10)
                -0.0000
    Dipole Moment (Debye)
         X       1.4297      Y       0.4436      Z      -1.1088
       Tot       1.8629
    Quadrupole Moments (Debye-Ang)
        XX     -58.8340     XY       3.8560     YY     -48.3560
        XZ      -2.7174     YZ       7.1732     ZZ     -54.6161
    Octopole Moments (Debye-Ang^2)
       XXX      37.0737    XXY      20.4695    XYY     -11.9866
       YYY      -3.4491    XXZ     -22.4586    XYZ       7.9598
       YYZ     -26.0850    XZZ      18.0288    YZZ      -3.4528
       ZZZ     -51.9102
    Hexadecapole Moments (Debye-Ang^3)
      XXXX   -1064.0293   XXXY      81.1333   XXYY    -251.2884
      XYYY     112.4992   YYYY    -461.1411   XXXZ    -144.3954
      XXYZ       7.7374   XYYZ     -43.6798   YYYZ      -5.7995
      XXZZ    -201.9302   XYZZ      31.1051   YYZZ    -116.6098
      XZZZ     -97.9338   YZZZ     -54.7225   ZZZZ    -212.0600
 -----------------------------------------------------------------
 Total job time:  3529.39s(wall), 27131.54s(cpu) 
 Thu Apr 27 13:19:02 2023

        *************************************************************
        *                                                           *
        *  Thank you very much for using Q-Chem.  Have a nice day.  *
        *                                                           *
        *************************************************************


