
Running Job 1 of 1 Q_in.in
qchem Q_in.in_201734.0 /scratch/ari.fischer/qChem2263282.hpc-mn1/qchem201734/ 0
/usr/local/qchem-5.4.1/exe/qcprog.exe_s Q_in.in_201734.0 /scratch/ari.fischer/qChem2263282.hpc-mn1/qchem201734/
                  Welcome to Q-Chem
     A Quantum Leap Into The Future Of Chemistry


 Q-Chem 5.4, Q-Chem, Inc., Pleasanton, CA (2021)

 License issued to: Nanyang Technological University (site)

 E. Epifanovsky,  A. T. B. Gilbert,  Xintian Feng,  Joonho Lee,  Yuezhi Mao,  
 N. Mardirossian,  P. Pokhilko,  A. White,  M. Wormit,  M. P. Coons,  
 A. L. Dempwolff,  Zhengting Gan,  D. Hait,  P. R. Horn,  L. D. Jacobson,  
 I. Kaliman,  J. Kussmann,  A. W. Lange,  Ka Un Lao,  D. S. Levine,  Jie Liu,  
 S. C. McKenzie,  A. F. Morrison,  K. Nanda,  F. Plasser,  D. R. Rehn,  
 M. L. Vidal,  Zhi-Qiang You,  Ying Zhu,  B. Alam,  B. Albrecht,  
 A. Aldossary,  E. Alguire,  J. H. Andersen,  D. Barton,  K. Begam,  A. Behn,  
 Y. A. Bernard,  E. J. Berquist,  H. Burton,  A. Carreras,  K. Carter-Fenk,  
 R. Chakraborty,  A. D. Chien,  K. D. Closser,  V. Cofer-Shabica,  
 S. Dasgupta,  Jia Deng,  M. de Wergifosse,  M. Diedenhofen,  Hainam Do,  
 S. Ehlert,  Po-Tung Fang,  S. Fatehi,  Qingguo Feng,  T. Friedhoff,  
 J. Gayvert,  Qinghui Ge,  G. Gidofalvi,  M. Goldey,  J. Gomes,  
 C. Gonzalez-Espinoza,  S. Gulania,  A. Gunina,  M. W. D. Hanson-Heine,  
 P. H. P. Harbach,  A. W. Hauser,  M. F. Herbst,  M. Hernandez Vera,  
 M. Hodecker,  Z. C. Holden,  S. Houck,  Xunkun Huang,  Kerwin Hui,  
 B. C. Huynh,  M. Ivanov,  Hyunjun Ji,  Hanjie Jiang,  B. Kaduk,  S. Kaehler,  
 K. Khistyaev,  Jaehoon Kim,  P. Klunzinger,  Z. Koczor-Benda,  
 Joong Hoon Koh,  D. Kosenkov,  L. Koulias,  T. Kowalczyk,  C. M. Krauter,  
 K. Kue,  A. Kunitsa,  T. Kus,  A. Landau,  K. V. Lawler,  D. Lefrancois,  
 S. Lehtola,  Rain Li,  Yi-Pei Li,  Jiashu Liang,  M. Liebenthal,  
 Hung-Hsuan Lin,  You-Sheng Lin,  Fenglai Liu,  Kuan-Yu Liu,  
 M. Loipersberger,  A. Luenser,  A. Manjanath,  P. Manohar,  E. Mansoor,  
 S. F. Manzer,  Shan-Ping Mao,  A. V. Marenich,  T. Markovich,  S. Mason,  
 S. A. Maurer,  P. F. McLaughlin,  M. F. S. J. Menger,  J.-M. Mewes,  
 S. A. Mewes,  P. Morgante,  J. W. Mullinax,  K. J. Oosterbaan,  G. Paran,  
 Alexander C. Paul,  Suranjan K. Paul,  F. Pavosevic,  Zheng Pei,  S. Prager,  
 E. I. Proynov,  E. Ramos,  B. Rana,  A. E. Rask,  A. Rettig,  R. M. Richard,  
 F. Rob,  E. Rossomme,  T. Scheele,  M. Scheurer,  M. Schneider,  
 N. Sergueev,  S. M. Sharada,  W. Skomorowski,  D. W. Small,  C. J. Stein,  
 Yu-Chuan Su,  E. J. Sundstrom,  Zhen Tao,  J. Thirman,  T. Tsuchimochi,  
 N. M. Tubman,  S. P. Veccham,  O. Vydrov,  J. Wenzel,  J. Witte,  A. Yamada,  
 Kun Yao,  S. Yeganeh,  S. R. Yost,  A. Zech,  Igor Ying Zhang,  Xing Zhang,  
 Yu Zhang,  D. Zuev,  A. Aspuru-Guzik,  A. T. Bell,  N. A. Besley,  
 K. B. Bravaya,  B. R. Brooks,  D. Casanova,  Jeng-Da Chai,  S. Coriani,  
 C. J. Cramer,  A. E. DePrince, III,  R. A. DiStasio Jr.,  A. Dreuw,  
 B. D. Dunietz,  T. R. Furlani,  W. A. Goddard III,  S. Grimme,  
 S. Hammes-Schiffer,  T. Head-Gordon,  W. J. Hehre,  Chao-Ping Hsu,  
 T.-C. Jagau,  Yousung Jung,  A. Klamt,  Jing Kong,  D. S. Lambrecht,  
 WanZhen Liang,  N. J. Mayhall,  C. W. McCurdy,  J. B. Neaton,  
 C. Ochsenfeld,  J. A. Parkhill,  R. Peverati,  V. A. Rassolov,  Yihan Shao,  
 L. V. Slipchenko,  T. Stauch,  R. P. Steele,  J. E. Subotnik,  
 A. J. W. Thom,  A. Tkatchenko,  D. G. Truhlar,  T. Van Voorhis,  
 T. A. Wesolowski,  K. B. Whaley,  H. L. Woodcock III,  P. M. Zimmerman,  
 S. Faraji,  P. M. W. Gill,  M. Head-Gordon,  J. M. Herbert,  A. I. Krylov

 Additional authors for Version 5.4.1: 
 S. Kotaru,  Shaozhi Li,  Xiangyuan Li,  F. Matz,  A. Molle,  Haisheng Ren,  
 Yingli Su,  Hung-Yi Tsai,  C. Utku,  Fang Wang

 Contributors to earlier versions of Q-Chem not listed above: 
 R. D. Adamson,  B. Austin,  R. Baer,  J. Baker,  G. J. O. Beran,  
 K. Brandhorst,  S. T. Brown,  E. F. C. Byrd,  A. K. Chakraborty,  
 G. K. L. Chan,  Chun-Min Chang,  Yunqing Chen,  C.-L. Cheng,  
 Siu Hung Chien,  D. M. Chipman,  D. L. Crittenden,  H. Dachsel,  
 R. J. Doerksen,  A. D. Dutoi,  R. G. Edgar,  J. Fosso-Tande,  
 L. Fusti-Molnar,  D. Ghosh,  A. Ghysels,  A. Golubeva-Zadorozhnaya,  
 J. Gonthier,  M. S. Gordon,  S. R. Gwaltney,  G. Hawkins,  J. E. Herr,  
 A. Heyden,  S. Hirata,  E. G. Hohenstein,  G. Kedziora,  F. J. Keil,  
 C. Kelley,  Jihan Kim,  R. A. King,  R. Z. Khaliullin,  P. P. Korambath,  
 W. Kurlancheek,  A. Laurent,  A. M. Lee,  M. S. Lee,  S. V. Levchenko,  
 Ching Yeh Lin,  D. Liotard,  E. Livshits,  R. C. Lochan,  I. Lotan,  
 L. A. Martinez-Martinez,  P. E. Maslen,  N. Nair,  D. P. O'Neill,  
 D. Neuhauser,  E. Neuscamman,  C. M. Oana,  R. Olivares-Amaya,  R. Olson,  
 T. M. Perrine,  B. Peters,  P. A. Pieniazek,  A. Prociuk,  Y. M. Rhee,  
 J. Ritchie,  M. A. Rohrdanz,  E. Rosta,  N. J. Russ,  H. F. Schaefer III,  
 M. W. Schmidt,  N. E. Schultz,  S. Sharma,  N. Shenvi,  C. D. Sherrill,  
 A. C. Simmonett,  A. Sodt,  T. Stein,  D. Stuck,  K. S. Thanthiriwatte,  
 V. Vanovschi,  L. Vogt,  Tao Wang,  A. Warshel,  M. A. Watson,  
 C. F. Williams,  Q. Wu,  X. Xu,  Jun Yang,  W. Zhang,  Yan Zhao

 Please cite Q-Chem as follows:
 Y. Shao et al., Mol. Phys. 113, 184-215 (2015)
 DOI: 10.1080/00268976.2014.952696

 Q-Chem 5.4.1 for Intel X86 EM64T Linux

 Parts of Q-Chem use Armadillo 9.800.1 (Horizon Scraper).
 http://arma.sourceforge.net/

 Q-Chem begins on Wed Aug  7 10:37:40 2024  

 Host: 
0

     Scratch files written to /scratch/ari.fischer/qChem2263282.hpc-mn1/qchem201734//
 Aug1521 |scratch|qcdevops|jenkins|workspace|build_RNUM 8249   
 Processing $rem in /usr/local/qchem-5.4.1/config/preferences:
 Processing $rem in /home/ari.fischer/.qchemrc:
 Symmetry turned off for PCM/SM12/SMD calculation


!!********************************************.
!!******************Warning*******************.
!!Desired Analytical derivatives not available.
!!Finite difference job might take a long time.
!!********************************************.
!!********************************************.


 2-order derivative to be evaluated numerically with 1-order analytical derivatives

 Checking the input file for inconsistencies... 	...done.

--------------------------------------------------------------
User input:
--------------------------------------------------------------
$molecule
0 1
O    1.9057449   -1.4210530    0.6103459
C    2.3468486   -0.1675161    0.1256726
O    1.2573949    0.6084617   -0.3303092
C    3.0146520    0.6203525    1.2109664
C    4.2983794    0.9372125    1.2859760
C    5.3681511    0.5851725    0.2978813
O    6.0242591    1.7919313   -0.0344996
O    6.2775886   -0.3501095    0.8444799
H    1.3904740   -1.2715577    1.4136285
H    3.0098622   -0.4033013   -0.7025854
H    0.8965581    0.1807993   -1.1159973
H    2.3442291    0.9239906    2.0095683
H    4.6590978    1.4963010    2.1443419
H    4.9809023    0.1108593   -0.5999973
H    6.6221498    1.6131473   -0.7698434
H    6.5831783   -0.0142846    1.6971454
$end

$rem
BASIS = 6-311++G(2df,2p)
GUI = 2
JOB_TYPE = Frequency
METHOD = wB97M-V
SOLVENT_METHOD = SMD
SCF_ALGORITHM = DIIS_GDM
MAX_SCF_CYCLES = 400
SCF_CONVERGENCE = 7
THRESH = 12
$end
--------------------------------------------------------------
 ----------------------------------------------------------------
             Standard Nuclear Orientation (Angstroms)
    I     Atom           X                Y                Z
 ----------------------------------------------------------------
    1      O       1.9057449000    -1.4210530000     0.6103459000
    2      C       2.3468486000    -0.1675161000     0.1256726000
    3      O       1.2573949000     0.6084617000    -0.3303092000
    4      C       3.0146520000     0.6203525000     1.2109664000
    5      C       4.2983794000     0.9372125000     1.2859760000
    6      C       5.3681511000     0.5851725000     0.2978813000
    7      O       6.0242591000     1.7919313000    -0.0344996000
    8      O       6.2775886000    -0.3501095000     0.8444799000
    9      H       1.3904740000    -1.2715577000     1.4136285000
   10      H       3.0098622000    -0.4033013000    -0.7025854000
   11      H       0.8965581000     0.1807993000    -1.1159973000
   12      H       2.3442291000     0.9239906000     2.0095683000
   13      H       4.6590978000     1.4963010000     2.1443419000
   14      H       4.9809023000     0.1108593000    -0.5999973000
   15      H       6.6221498000     1.6131473000    -0.7698434000
   16      H       6.5831783000    -0.0142846000     1.6971454000
 ----------------------------------------------------------------
 Nuclear Repulsion Energy =         388.50840487 hartrees
 There are       32 alpha and       32 beta electrons
 Requested basis set is 6-311++G(2df,2p)
 There are 112 shells and 352 basis functions

 Total QAlloc Memory Limit 288000 MB
 Mega-Array Size       188 MB
 MEM_STATIC part       192 MB
 
 Citation of the SMD model:
 Marenich, A.V.; Cramer, C.J.; Truhlar, D.G.
 J. Phys. Chem. B 2009, 113, 6378-6396.
 iSolventCode=           1
 Solvent: water                                                           
 
 vradii
            1           2           3           4           5           6
    1   1.5200000   1.8500000   1.5200000   1.8500000   1.8500000   1.8500000
            7           8           9          10          11          12
    1   1.5200000   1.5200000   1.2000000   1.2000000   1.2000000   1.2000000
           13          14          15          16
    1   1.2000000   1.2000000   1.2000000   1.2000000
 Changing PCM_VDW_RADII to SMD_RADIUS
 Discretize the solute cavity surface with Lebedev spheres
	Using 110 Lebedev grid points for each H atom
	Using 194 Lebedev grid points for other atoms
	Atomic van der Waals radii will be scaled by 1.20
 Remove points where switching function is < 1.0e-08
 Keep 1262 surface tesserae and discard 1170 interior tesserae
 Molecular Surface Area = 143.271 Angst**2
 A cutoff of  1.0D-12 yielded   5618 shell pairs
 There are     54904 function pairs (     67639 Cartesian)
 Smallest overlap matrix eigenvalue = 6.61E-06
 Guess from superposition of atomic densities
 Warning:  Energy on first SCF cycle will be non-variational
 SAD guess density has 64.000000 electrons

 -----------------------------------------------------------------------
  General SCF calculation program by
  Eric Jon Sundstrom, Paul Horn, Yuezhi Mao, Dmitri Zuev, Alec White,
  David Stuck, Shaama M.S., Shane Yost, Joonho Lee, David Small,
  Daniel Levine, Susi Lehtola, Hugh Burton, Evgeny Epifanovsky,
  Bang C. Huynh
 -----------------------------------------------------------------------
 Exchange:     0.1500 Hartree-Fock + 1.0000 wB97M-V + LR-HF
 Correlation:  1.0000 wB97M-V
 Using SG-2 standard quadrature grid
 Nonlocal Correlation:  VV10 with C = 0.0100 and b = 6.00 and scale = 1.00000
 Grid used for NLC:  SG-1 standard quadrature
 using 16 threads for integral computing
 -------------------------------------------------------
 OpenMP Integral computing Module                
 Release: version 1.0, May 2013, Q-Chem Inc. Pittsburgh 
 -------------------------------------------------------
 
 Citation of the SMD model:
 Marenich, A.V.; Cramer, C.J.; Truhlar, D.G.
 J. Phys. Chem. B 2009, 113, 6378-6396.
 iSolventCode=           1
 Solvent: water                                                           
 
 vradii
            1           2           3           4           5           6
    1   1.5200000   1.8500000   1.5200000   1.8500000   1.8500000   1.8500000
            7           8           9          10          11          12
    1   1.5200000   1.5200000   1.2000000   1.2000000   1.2000000   1.2000000
           13          14          15          16
    1   1.2000000   1.2000000   1.2000000   1.2000000
 -------------------------------------------------------
 OpenMP BLAS3 based DFT computing Module                
 Release: version 1.0, May 2013, Q-Chem Inc. Pittsburgh 
 -------------------------------------------------------
 A restricted SCF calculation will be
 performed using DIIS, GDM
 SCF converges when RMS gradient is below 1.0e-07
 ---------------------------------------
  Cycle       Energy         DIIS error
 ---------------------------------------
    1    -459.8212366182      2.68e-02  
    2    -457.9903943510      3.58e-03  Done DIIS. Switching to GDM
 ---------------------------------------
  Cycle       Energy        RMS Gradient
 ---------------------------------------
    1    -457.9903943510      6.77e-02   Descent step
    2    -458.1294338802      2.38e-02   Normal BFGS step
    3    -458.1464350946      4.47e-03   Normal BFGS step
    4    -458.1473515789      2.84e-03   Normal BFGS step
    5    -458.1475448088      2.76e-04   Normal BFGS step
    6    -458.1475507070      1.08e-04   Normal BFGS step
    7    -458.1475514945      3.55e-05   Normal BFGS step
    8    -458.1475515588      2.35e-05   Normal BFGS step
    9    -458.1475515743      5.99e-06   Normal BFGS step
   10    -458.1475515765      2.01e-06   Normal BFGS step
   11    -458.1475515768      7.78e-07   Normal BFGS step
   12    -458.1475515768      2.48e-07   Normal BFGS step
   13    -458.1475515767      6.19e-08  Convergence criterion met
 ---------------------------------------
 SCF time:   CPU 930.44s  wall 76.00s 
(3)  G-ENP(liq) elect-nuc-pol free energy of system     -458.147551577 a.u.
(4)  G-CDS(liq) cavity-dispersion-solvent structure 
     free energy                                                3.6970 kcal/mol
(6)  G-S(liq) free energy of system                     -458.141659994 a.u.
 SCF   energy in the final basis set =     -458.1416599941
 Total energy in the final basis set =     -458.1416599941
 
 --------------------------------------------------------------
 
                    Orbital Energies (a.u.)
 --------------------------------------------------------------
 
 Alpha MOs
 -- Occupied --
-19.3448 -19.3448 -19.3447 -19.3447 -10.4477 -10.4476 -10.3507 -10.3498
 -1.2009  -1.1997  -1.1327  -1.1326  -0.9272  -0.8234  -0.7740  -0.7052
 -0.6799  -0.6307  -0.6220  -0.5851  -0.5798  -0.5388  -0.5375  -0.5256
 -0.5177  -0.4542  -0.4392  -0.4297  -0.4227  -0.4172  -0.3991  -0.3682
 -- Virtual --
  0.0265   0.0377   0.0378   0.0522   0.0567   0.0668   0.0670   0.0896
  0.0990   0.1034   0.1165   0.1361   0.1364   0.1450   0.1496   0.1548
  0.1571   0.1717   0.1748   0.1777   0.1800   0.1811   0.2016   0.2200
  0.2236   0.2315   0.2337   0.2449   0.2584   0.2658   0.2787   0.2857
  0.2958   0.3034   0.3069   0.3083   0.3218   0.3229   0.3394   0.3472
  0.3544   0.3620   0.3666   0.3734   0.3846   0.3861   0.4065   0.4088
  0.4174   0.4345   0.4370   0.4505   0.4516   0.4702   0.4760   0.5228
  0.5254   0.5405   0.5691   0.5795   0.5961   0.6179   0.6279   0.6385
  0.6584   0.6651   0.6683   0.6873   0.6932   0.7017   0.7049   0.7176
  0.7347   0.7569   0.7628   0.7807   0.7834   0.7870   0.8103   0.8140
  0.8387   0.8405   0.8880   0.9319   0.9329   0.9470   0.9641   1.0212
  1.0224   1.0378   1.0512   1.0553   1.0788   1.0904   1.0992   1.1119
  1.1253   1.1440   1.1493   1.1610   1.1846   1.1957   1.2044   1.2129
  1.2401   1.2456   1.2549   1.2655   1.2743   1.3138   1.3287   1.3404
  1.3564   1.3660   1.3891   1.4126   1.4174   1.4352   1.4756   1.4822
  1.4923   1.5128   1.5174   1.5420   1.5510   1.5547   1.5563   1.5930
  1.6175   1.6210   1.6403   1.6460   1.7024   1.7398   1.7564   1.7665
  1.7803   1.8296   1.8590   1.8974   1.9158   1.9415   1.9708   1.9832
  2.0605   2.1226   2.1513   2.1620   2.1633   2.2292   2.2511   2.2652
  2.3381   2.3409   2.3690   2.4084   2.4110   2.4640   2.5021   2.5246
  2.5631   2.6495   2.7300   2.7529   2.8044   2.8057   2.8356   2.8373
  2.8533   2.8939   2.9179   2.9374   2.9578   2.9805   2.9856   3.0418
  3.0480   3.0968   3.1663   3.1710   3.2076   3.2104   3.2541   3.2919
  3.3012   3.3160   3.3363   3.3407   3.3629   3.4008   3.4423   3.4429
  3.4622   3.4722   3.4772   3.4997   3.5240   3.5740   3.6009   3.6572
  3.6631   3.6838   3.7004   3.7416   3.7478   3.7807   3.8076   3.8088
  3.8133   3.8488   3.8574   3.8682   3.8871   3.8923   3.9072   3.9462
  3.9470   3.9608   3.9917   4.0854   4.0940   4.1200   4.1523   4.1916
  4.2037   4.2149   4.2502   4.2579   4.2597   4.2923   4.3381   4.3460
  4.3610   4.4100   4.4185   4.4356   4.4368   4.4512   4.5143   4.5688
  4.6534   4.6568   4.7431   4.8941   4.9283   4.9654   5.1949   5.1979
  5.2364   5.2663   5.2701   5.2835   5.2858   5.2905   5.3090   5.3296
  5.3322   5.3526   5.3542   5.4175   5.4400   5.4747   5.4900   5.5021
  5.5164   5.5510   5.5540   5.5898   5.6237   5.6260   5.6628   5.6810
  5.7037   5.7094   5.7935   5.8517   5.8608   5.9912   5.9930   6.0604
  6.0741   6.0952   6.1109   6.1425   6.5016   6.5887   6.6735   6.7310
  7.0683   7.0769   7.0921   7.1194   7.2427   7.2582   7.2702   7.2796
  7.2987   7.3135   7.3220   7.3466   7.3644   7.3872   7.4831   7.5325
  7.6108   7.6431   7.6624   7.6804   7.7992   7.8425   7.8487   7.9190
 24.3619  24.7688  24.8725  25.2217  50.5529  50.6029  50.6117  50.6234
 --------------------------------------------------------------
 
          Ground-State Mulliken Net Atomic Charges

     Atom                 Charge (a.u.)
  ----------------------------------------
      1 O                    -0.404696
      2 C                    -0.377310
      3 O                    -0.409491
      4 C                    -0.030068
      5 C                    -0.039745
      6 C                    -0.367193
      7 O                    -0.410621
      8 O                    -0.405894
      9 H                     0.339230
     10 H                     0.269262
     11 H                     0.332718
     12 H                     0.281459
     13 H                     0.283126
     14 H                     0.266344
     15 H                     0.333039
     16 H                     0.339840
  ----------------------------------------
  Sum of atomic charges =     0.000000

 -----------------------------------------------------------------
                    Cartesian Multipole Moments
 -----------------------------------------------------------------
    Charge (ESU x 10^10)
                 0.0000
    Dipole Moment (Debye)
         X       0.0086      Y       0.0438      Z      -0.0650
       Tot       0.0788
    Quadrupole Moments (Debye-Ang)
        XX     -44.5960     XY       4.2416     YY     -60.5112
        XZ      -0.9733     YZ       0.8379     ZZ     -35.6364
    Octopole Moments (Debye-Ang^2)
       XXX    -507.6250    XXY      15.4530    XYY    -230.3224
       YYY     -55.2259    XXZ     -32.0597    XYZ       2.4169
       YYZ     -25.9359    XZZ    -136.7564    YZZ     -11.2292
       ZZZ     -58.9917
    Hexadecapole Moments (Debye-Ang^3)
      XXXX   -4835.9771   XXXY     -44.4490   XXYY   -1141.3958
      XYYY    -337.9048   YYYY    -384.5241   XXXZ    -348.0034
      XXYZ     -23.8574   XYYZ    -126.7805   YYYZ     -18.0156
      XXZZ    -647.6293   XYZZ     -58.3825   YYZZ     -85.2280
      XZZZ    -239.2865   YZZZ      -8.7447   ZZZZ    -208.5524
 -----------------------------------------------------------------
 Calculating analytic gradient of the SCF energy
 Gradient of CDS energy
            1           2           3           4           5           6
    1   0.0002474  -0.0009447   0.0008098  -0.0001296   0.0000244   0.0010274
    2   0.0008124  -0.0002828  -0.0006459   0.0001416   0.0001736   0.0001808
    3  -0.0003036  -0.0005896   0.0005648   0.0002171   0.0002283  -0.0004636
            7           8           9          10          11          12
    1  -0.0004721  -0.0005676  -0.0002986   0.0001278  -0.0003636  -0.0001412
    2  -0.0009494   0.0006346  -0.0003006  -0.0000491   0.0000872   0.0000691
    3   0.0004681  -0.0003452   0.0002946   0.0000243  -0.0003586   0.0001095
           13          14          15          16
    1   0.0000823  -0.0000912   0.0003193   0.0003701
    2   0.0001261  -0.0001139   0.0002600  -0.0001437
    3   0.0001232   0.0000148  -0.0003146   0.0003304
 Gradient of SCF Energy
            1           2           3           4           5           6
    1   0.0070375  -0.0040510   0.0020096   0.0015850   0.0002674   0.0022136
    2  -0.0065884   0.0011225   0.0097651  -0.0020199  -0.0022920   0.0022313
    3  -0.0083798   0.0083059   0.0088767  -0.0061178  -0.0060259   0.0087322
            7           8           9          10          11          12
    1  -0.0071789  -0.0023589  -0.0056055   0.0036404  -0.0027280  -0.0037539
    2   0.0074154  -0.0087268   0.0033819   0.0000133  -0.0063680   0.0003714
    3   0.0085189  -0.0089383   0.0094789  -0.0069281  -0.0104349   0.0049429
           13          14          15          16
    1   0.0024610  -0.0024810   0.0064636   0.0024789
    2   0.0018740  -0.0014601  -0.0038314   0.0051118
    3   0.0052629  -0.0072930  -0.0099347   0.0099340
 Max gradient component =       1.043E-02
 RMS gradient           =       5.977E-03
 Computing fast CPCM-SWIG gradient
 Updating gradient with PCM contributions...
 -- total gradient after adding PCM contribution --
---------------------------------------------------
  Atom         X              Y              Z     
---------------------------------------------------
   1      -0.000020       0.000006      -0.000052
   2       0.000026      -0.000056      -0.000002
   3      -0.000004       0.000033       0.000021
   4      -0.000021       0.000027      -0.000029
   5       0.000008      -0.000029       0.000001
   6       0.000011      -0.000007      -0.000004
   7      -0.000045       0.000048       0.000028
   8       0.000008       0.000028      -0.000018
   9       0.000029      -0.000023       0.000002
  10       0.000027       0.000033      -0.000012
  11       0.000018      -0.000001      -0.000007
  12      -0.000006      -0.000007      -0.000002
  13      -0.000003      -0.000033       0.000029
  14      -0.000023      -0.000004       0.000005
  15       0.000008       0.000000       0.000025
  16      -0.000016      -0.000015       0.000015
---------------------------------------------------
 Number of fixed atoms: 0
 Gradient time:  CPU 167.64 s  wall 15.04 s
 ######################################################
 ######################################################
 # Starting finite difference calculation for IDERIV  #
 Finite diff step size:  1.88973e-03 a.u.
 ----------------------------------------------------------------
             Standard Nuclear Orientation (Angstroms)
    I     Atom           X                Y                Z
 ----------------------------------------------------------------
    1      O       1.9067449000    -1.4210530000     0.6103459000
    2      C       2.3468486000    -0.1675161000     0.1256726000
    3      O       1.2573949000     0.6084617000    -0.3303092000
    4      C       3.0146520000     0.6203525000     1.2109664000
    5      C       4.2983794000     0.9372125000     1.2859760000
    6      C       5.3681511000     0.5851725000     0.2978813000
    7      O       6.0242591000     1.7919313000    -0.0344996000
    8      O       6.2775886000    -0.3501095000     0.8444799000
    9      H       1.3904740000    -1.2715577000     1.4136285000
   10      H       3.0098622000    -0.4033013000    -0.7025854000
   11      H       0.8965581000     0.1807993000    -1.1159973000
   12      H       2.3442291000     0.9239906000     2.0095683000
   13      H       4.6590978000     1.4963010000     2.1443419000
   14      H       4.9809023000     0.1108593000    -0.5999973000
   15      H       6.6221498000     1.6131473000    -0.7698434000
   16      H       6.5831783000    -0.0142846000     1.6971454000
 ----------------------------------------------------------------
 Nuclear Repulsion Energy =         388.51678504 hartrees
 There are       32 alpha and       32 beta electrons
 Discretize the solute cavity surface with Lebedev spheres
	Using 110 Lebedev grid points for each H atom
	Using 194 Lebedev grid points for other atoms
	Atomic van der Waals radii will be scaled by 1.20
 Remove points where switching function is < 1.0e-08
 Keep 1262 surface tesserae and discard 1170 interior tesserae
 Molecular Surface Area = 143.271 Angst**2
 Requested basis set is 6-311++G(2df,2p)
 There are 112 shells and 352 basis functions
 A cutoff of  1.0D-12 yielded   5618 shell pairs
 There are     54904 function pairs (     67639 Cartesian)
 Smallest overlap matrix eigenvalue = 6.61E-06
 Guess MOs from SCF MO coefficient file

 -----------------------------------------------------------------------
  General SCF calculation program by
  Eric Jon Sundstrom, Paul Horn, Yuezhi Mao, Dmitri Zuev, Alec White,
  David Stuck, Shaama M.S., Shane Yost, Joonho Lee, David Small,
  Daniel Levine, Susi Lehtola, Hugh Burton, Evgeny Epifanovsky,
  Bang C. Huynh
 -----------------------------------------------------------------------
 Exchange:     0.1500 Hartree-Fock + 1.0000 wB97M-V + LR-HF
 Correlation:  1.0000 wB97M-V
 Using SG-2 standard quadrature grid
 Nonlocal Correlation:  VV10 with C = 0.0100 and b = 6.00 and scale = 1.00000
 Grid used for NLC:  SG-1 standard quadrature
 
 Citation of the SMD model:
 Marenich, A.V.; Cramer, C.J.; Truhlar, D.G.
 J. Phys. Chem. B 2009, 113, 6378-6396.
 iSolventCode=           1
 Solvent: water                                                           
 
 vradii
            1           2           3           4           5           6
    1   1.5200000   1.8500000   1.5200000   1.8500000   1.8500000   1.8500000
            7           8           9          10          11          12
    1   1.5200000   1.5200000   1.2000000   1.2000000   1.2000000   1.2000000
           13          14          15          16
    1   1.2000000   1.2000000   1.2000000   1.2000000
 -------------------------------------------------------
 OpenMP BLAS3 based DFT computing Module                
 Release: version 1.0, May 2013, Q-Chem Inc. Pittsburgh 
 -------------------------------------------------------
 A restricted SCF calculation will be
 performed using Roothaan-Hall, DIIS, GDM
 SCF converges when RMS gradient is below 1.0e-07
 ---------------------------------------
  Cycle       Energy         DIIS error
 ---------------------------------------
    1    -458.1033768397      4.61e-04  Roothaan Step
 ---------------------------------------
  Cycle       Energy         DIIS error
 ---------------------------------------
    1    -458.1422243894      4.78e-04  
    2    -458.1463422368      3.31e-04  Done DIIS. Switching to GDM
 ---------------------------------------
  Cycle       Energy        RMS Gradient
 ---------------------------------------
    1    -458.1463422368      4.42e-03   Normal BFGS step
    2    -458.1465429617      4.34e-03   Normal BFGS step
    3    -458.1475376117      5.23e-04   Normal BFGS step
    4    -458.1475494168      2.47e-04   Normal BFGS step
    5    -458.1475515933      3.10e-05   Normal BFGS step
    6    -458.1475516555      1.26e-05   Normal BFGS step
    7    -458.1475516605      6.01e-06   Normal BFGS step
    8    -458.1475516616      2.21e-06   Normal BFGS step
    9    -458.1475516618      6.50e-07   Normal BFGS step
   10    -458.1475516618      2.35e-07   Normal BFGS step
   11    -458.1475516618      3.55e-08  Convergence criterion met
 ---------------------------------------
 SCF time:   CPU 913.78s  wall 78.00s 
(3)  G-ENP(liq) elect-nuc-pol free energy of system     -458.147551662 a.u.
(4)  G-CDS(liq) cavity-dispersion-solvent structure 
     free energy                                                3.6973 kcal/mol
(6)  G-S(liq) free energy of system                     -458.141659593 a.u.
 SCF   energy in the final basis set =     -458.1416595931
 Total energy in the final basis set =     -458.1416595931
 
 --------------------------------------------------------------
 
                    Orbital Energies (a.u.)
 --------------------------------------------------------------
 
 Alpha MOs
 -- Occupied --
-19.3449 -19.3448 -19.3447 -19.3447 -10.4476 -10.4476 -10.3507 -10.3498
 -1.2009  -1.1997  -1.1327  -1.1326  -0.9271  -0.8234  -0.7739  -0.7052
 -0.6799  -0.6307  -0.6220  -0.5852  -0.5798  -0.5388  -0.5375  -0.5256
 -0.5177  -0.4542  -0.4392  -0.4297  -0.4227  -0.4172  -0.3991  -0.3682
 -- Virtual --
  0.0265   0.0377   0.0378   0.0522   0.0567   0.0668   0.0670   0.0896
  0.0991   0.1034   0.1165   0.1361   0.1364   0.1450   0.1496   0.1548
  0.1571   0.1717   0.1748   0.1777   0.1800   0.1811   0.2016   0.2200
  0.2236   0.2315   0.2337   0.2449   0.2584   0.2657   0.2787   0.2857
  0.2959   0.3034   0.3069   0.3084   0.3219   0.3228   0.3394   0.3472
  0.3544   0.3620   0.3666   0.3734   0.3846   0.3861   0.4065   0.4088
  0.4174   0.4345   0.4370   0.4505   0.4517   0.4702   0.4761   0.5228
  0.5253   0.5405   0.5691   0.5795   0.5961   0.6178   0.6279   0.6384
  0.6584   0.6651   0.6684   0.6873   0.6932   0.7017   0.7049   0.7176
  0.7346   0.7570   0.7628   0.7808   0.7834   0.7870   0.8103   0.8140
  0.8387   0.8405   0.8880   0.9319   0.9330   0.9470   0.9641   1.0212
  1.0225   1.0378   1.0513   1.0553   1.0788   1.0904   1.0992   1.1119
  1.1253   1.1440   1.1493   1.1610   1.1847   1.1957   1.2045   1.2129
  1.2401   1.2456   1.2549   1.2655   1.2743   1.3139   1.3287   1.3404
  1.3564   1.3660   1.3892   1.4127   1.4174   1.4352   1.4756   1.4822
  1.4923   1.5127   1.5173   1.5420   1.5510   1.5547   1.5562   1.5930
  1.6175   1.6210   1.6403   1.6460   1.7023   1.7398   1.7564   1.7665
  1.7804   1.8296   1.8590   1.8973   1.9159   1.9414   1.9709   1.9834
  2.0606   2.1225   2.1514   2.1619   2.1633   2.2292   2.2511   2.2653
  2.3382   2.3409   2.3691   2.4084   2.4111   2.4640   2.5022   2.5247
  2.5631   2.6495   2.7300   2.7530   2.8043   2.8057   2.8356   2.8373
  2.8533   2.8940   2.9179   2.9373   2.9578   2.9806   2.9856   3.0418
  3.0479   3.0969   3.1663   3.1710   3.2077   3.2104   3.2541   3.2918
  3.3013   3.3160   3.3364   3.3407   3.3630   3.4008   3.4423   3.4429
  3.4622   3.4723   3.4773   3.4998   3.5240   3.5741   3.6009   3.6572
  3.6631   3.6839   3.7004   3.7416   3.7478   3.7808   3.8076   3.8087
  3.8133   3.8487   3.8574   3.8683   3.8871   3.8924   3.9071   3.9462
  3.9471   3.9608   3.9918   4.0854   4.0941   4.1201   4.1523   4.1916
  4.2037   4.2149   4.2501   4.2578   4.2596   4.2920   4.3377   4.3459
  4.3608   4.4100   4.4185   4.4356   4.4368   4.4512   4.5143   4.5688
  4.6534   4.6568   4.7431   4.8941   4.9283   4.9654   5.1950   5.1979
  5.2365   5.2663   5.2701   5.2835   5.2858   5.2905   5.3090   5.3296
  5.3322   5.3526   5.3543   5.4175   5.4400   5.4747   5.4900   5.5021
  5.5164   5.5510   5.5540   5.5898   5.6235   5.6260   5.6626   5.6807
  5.7037   5.7093   5.7934   5.8517   5.8607   5.9911   5.9930   6.0605
  6.0742   6.0959   6.1115   6.1425   6.5018   6.5889   6.6738   6.7312
  7.0684   7.0768   7.0921   7.1194   7.2427   7.2577   7.2698   7.2794
  7.2984   7.3129   7.3217   7.3461   7.3643   7.3872   7.4832   7.5325
  7.6108   7.6431   7.6624   7.6804   7.7994   7.8426   7.8488   7.9190
 24.3619  24.7690  24.8727  25.2218  50.5528  50.6028  50.6117  50.6234
 --------------------------------------------------------------
 
          Ground-State Mulliken Net Atomic Charges

     Atom                 Charge (a.u.)
  ----------------------------------------
      1 O                    -0.404562
      2 C                    -0.377268
      3 O                    -0.409519
      4 C                    -0.030315
      5 C                    -0.039611
      6 C                    -0.367207
      7 O                    -0.410634
      8 O                    -0.405907
      9 H                     0.339365
     10 H                     0.269204
     11 H                     0.332693
     12 H                     0.281426
     13 H                     0.283115
     14 H                     0.266344
     15 H                     0.333035
     16 H                     0.339840
  ----------------------------------------
  Sum of atomic charges =     0.000000

 -----------------------------------------------------------------
                    Cartesian Multipole Moments
 -----------------------------------------------------------------
    Charge (ESU x 10^10)
                 0.0000
    Dipole Moment (Debye)
         X       0.0041      Y       0.0420      Z      -0.0652
       Tot       0.0777
    Quadrupole Moments (Debye-Ang)
        XX     -44.6182     XY       4.2406     YY     -60.5099
        XZ      -0.9769     YZ       0.8364     ZZ     -35.6388
    Octopole Moments (Debye-Ang^2)
       XXX    -507.7392    XXY      15.4506    XYY    -230.3349
       YYY     -55.2324    XXZ     -32.0770    XYZ       2.4149
       YYZ     -25.9365    XZZ    -136.7725    YZZ     -11.2304
       ZZZ     -58.9974
    Hexadecapole Moments (Debye-Ang^3)
      XXXX   -4836.5688   XXXY     -44.4521   XXYY   -1141.4578
      XYYY    -337.8910   YYYY    -384.5184   XXXZ    -348.0909
      XXYZ     -23.8622   XYYZ    -126.7910   YYYZ     -18.0214
      XXZZ    -647.6962   XYZZ     -58.3789   YYZZ     -85.2314
      XZZZ    -239.3164   YZZZ      -8.7469   ZZZZ    -208.5698
 -----------------------------------------------------------------
 Calculating analytic gradient of the SCF energy
 Gradient of CDS energy
            1           2           3           4           5           6
    1   0.0002671  -0.0009646   0.0008100  -0.0001295   0.0000244   0.0010274
    2   0.0008690  -0.0003390  -0.0006458   0.0001414   0.0001735   0.0001808
    3  -0.0003255  -0.0005675   0.0005648   0.0002170   0.0002283  -0.0004636
            7           8           9          10          11          12
    1  -0.0004721  -0.0005676  -0.0002986   0.0001278  -0.0003636  -0.0001412
    2  -0.0009494   0.0006346  -0.0003006  -0.0000495   0.0000872   0.0000691
    3   0.0004681  -0.0003452   0.0002944   0.0000243  -0.0003586   0.0001095
           13          14          15          16
    1   0.0000823  -0.0000912   0.0003193   0.0003701
    2   0.0001261  -0.0001139   0.0002600  -0.0001437
    3   0.0001232   0.0000148  -0.0003146   0.0003304
 Gradient of SCF Energy
            1           2           3           4           5           6
    1   0.0075225  -0.0042440   0.0020403   0.0015795   0.0002604   0.0022165
    2  -0.0065002   0.0009636   0.0098292  -0.0020562  -0.0022976   0.0022258
    3  -0.0088869   0.0083905   0.0088547  -0.0061038  -0.0060271   0.0087235
            7           8           9          10          11          12
    1  -0.0071795  -0.0023598  -0.0058938   0.0036219  -0.0027296  -0.0037525
    2   0.0074149  -0.0087249   0.0034849  -0.0000348  -0.0063734   0.0003721
    3   0.0085186  -0.0089338   0.0098986  -0.0069044  -0.0104345   0.0049387
           13          14          15          16
    1   0.0024563  -0.0024780   0.0064613   0.0024785
    2   0.0018742  -0.0014569  -0.0038313   0.0051105
    3   0.0052553  -0.0072873  -0.0099323   0.0099301
 Max gradient component =       1.043E-02
 RMS gradient           =       6.028E-03
 Computing fast CPCM-SWIG gradient
 Updating gradient with PCM contributions...
 -- total gradient after adding PCM contribution --
---------------------------------------------------
  Atom         X              Y              Z     
---------------------------------------------------
   1       0.000444       0.000094      -0.000556
   2      -0.000168      -0.000212       0.000078
   3       0.000023       0.000091      -0.000002
   4      -0.000033      -0.000017      -0.000014
   5       0.000010      -0.000032      -0.000003
   6       0.000016      -0.000010      -0.000006
   7      -0.000047       0.000047       0.000030
   8       0.000005       0.000029      -0.000017
   9      -0.000244       0.000081       0.000420
  10       0.000013      -0.000014       0.000008
  11       0.000021      -0.000002      -0.000004
  12      -0.000004      -0.000005      -0.000005
  13      -0.000005      -0.000030       0.000026
  14      -0.000022      -0.000004       0.000004
  15       0.000008      -0.000000       0.000025
  16      -0.000015      -0.000015       0.000016
---------------------------------------------------
 Number of fixed atoms: 0
 Gradient time:  CPU 167.79 s  wall 14.29 s
 ----------------------------------------------------------------
             Standard Nuclear Orientation (Angstroms)
    I     Atom           X                Y                Z
 ----------------------------------------------------------------
    1      O       1.9047449000    -1.4210530000     0.6103459000
    2      C       2.3468486000    -0.1675161000     0.1256726000
    3      O       1.2573949000     0.6084617000    -0.3303092000
    4      C       3.0146520000     0.6203525000     1.2109664000
    5      C       4.2983794000     0.9372125000     1.2859760000
    6      C       5.3681511000     0.5851725000     0.2978813000
    7      O       6.0242591000     1.7919313000    -0.0344996000
    8      O       6.2775886000    -0.3501095000     0.8444799000
    9      H       1.3904740000    -1.2715577000     1.4136285000
   10      H       3.0098622000    -0.4033013000    -0.7025854000
   11      H       0.8965581000     0.1807993000    -1.1159973000
   12      H       2.3442291000     0.9239906000     2.0095683000
   13      H       4.6590978000     1.4963010000     2.1443419000
   14      H       4.9809023000     0.1108593000    -0.5999973000
   15      H       6.6221498000     1.6131473000    -0.7698434000
   16      H       6.5831783000    -0.0142846000     1.6971454000
 ----------------------------------------------------------------
 Nuclear Repulsion Energy =         388.50001640 hartrees
 There are       32 alpha and       32 beta electrons
 Discretize the solute cavity surface with Lebedev spheres
	Using 110 Lebedev grid points for each H atom
	Using 194 Lebedev grid points for other atoms
	Atomic van der Waals radii will be scaled by 1.20
 Remove points where switching function is < 1.0e-08
 Keep 1262 surface tesserae and discard 1170 interior tesserae
 Molecular Surface Area = 143.271 Angst**2
 Requested basis set is 6-311++G(2df,2p)
 There are 112 shells and 352 basis functions
 A cutoff of  1.0D-12 yielded   5618 shell pairs
 There are     54904 function pairs (     67639 Cartesian)
 Smallest overlap matrix eigenvalue = 6.61E-06
 Guess MOs from SCF MO coefficient file

 -----------------------------------------------------------------------
  General SCF calculation program by
  Eric Jon Sundstrom, Paul Horn, Yuezhi Mao, Dmitri Zuev, Alec White,
  David Stuck, Shaama M.S., Shane Yost, Joonho Lee, David Small,
  Daniel Levine, Susi Lehtola, Hugh Burton, Evgeny Epifanovsky,
  Bang C. Huynh
 -----------------------------------------------------------------------
 Exchange:     0.1500 Hartree-Fock + 1.0000 wB97M-V + LR-HF
 Correlation:  1.0000 wB97M-V
 Using SG-2 standard quadrature grid
 Nonlocal Correlation:  VV10 with C = 0.0100 and b = 6.00 and scale = 1.00000
 Grid used for NLC:  SG-1 standard quadrature
 
 Citation of the SMD model:
 Marenich, A.V.; Cramer, C.J.; Truhlar, D.G.
 J. Phys. Chem. B 2009, 113, 6378-6396.
 iSolventCode=           1
 Solvent: water                                                           
 
 vradii
            1           2           3           4           5           6
    1   1.5200000   1.8500000   1.5200000   1.8500000   1.8500000   1.8500000
            7           8           9          10          11          12
    1   1.5200000   1.5200000   1.2000000   1.2000000   1.2000000   1.2000000
           13          14          15          16
    1   1.2000000   1.2000000   1.2000000   1.2000000
 -------------------------------------------------------
 OpenMP BLAS3 based DFT computing Module                
 Release: version 1.0, May 2013, Q-Chem Inc. Pittsburgh 
 -------------------------------------------------------
 A restricted SCF calculation will be
 performed using Roothaan-Hall, DIIS, GDM
 SCF converges when RMS gradient is below 1.0e-07
 ---------------------------------------
  Cycle       Energy         DIIS error
 ---------------------------------------
    1    -458.1033885401      4.60e-04  Roothaan Step
 ---------------------------------------
  Cycle       Energy         DIIS error
 ---------------------------------------
    1    -458.1422248051      4.78e-04  
    2    -458.1463462562      3.30e-04  Done DIIS. Switching to GDM
 ---------------------------------------
  Cycle       Energy        RMS Gradient
 ---------------------------------------
    1    -458.1463462562      4.40e-03   Normal BFGS step
    2    -458.1465480954      4.33e-03   Normal BFGS step
    3    -458.1475366012      5.23e-04   Normal BFGS step
    4    -458.1475484110      2.47e-04   Normal BFGS step
    5    -458.1475505842      3.13e-05   Normal BFGS step
    6    -458.1475506466      1.20e-05   Normal BFGS step
    7    -458.1475506515      4.67e-06   Normal BFGS step
    8    -458.1475506522      2.28e-06   Normal BFGS step
    9    -458.1475506524      5.95e-07   Normal BFGS step
   10    -458.1475506524      2.40e-07   Normal BFGS step
   11    -458.1475506524      3.45e-08  Convergence criterion met
 ---------------------------------------
 SCF time:   CPU 913.70s  wall 79.00s 
(3)  G-ENP(liq) elect-nuc-pol free energy of system     -458.147550652 a.u.
(4)  G-CDS(liq) cavity-dispersion-solvent structure 
     free energy                                                3.6967 kcal/mol
(6)  G-S(liq) free energy of system                     -458.141659519 a.u.
 SCF   energy in the final basis set =     -458.1416595193
 Total energy in the final basis set =     -458.1416595193
 
 --------------------------------------------------------------
 
                    Orbital Energies (a.u.)
 --------------------------------------------------------------
 
 Alpha MOs
 -- Occupied --
-19.3449 -19.3447 -19.3447 -19.3447 -10.4477 -10.4476 -10.3507 -10.3499
 -1.2009  -1.1997  -1.1327  -1.1326  -0.9272  -0.8234  -0.7740  -0.7052
 -0.6799  -0.6307  -0.6221  -0.5851  -0.5799  -0.5388  -0.5375  -0.5256
 -0.5177  -0.4542  -0.4392  -0.4297  -0.4227  -0.4172  -0.3991  -0.3683
 -- Virtual --
  0.0265   0.0377   0.0378   0.0522   0.0567   0.0668   0.0670   0.0895
  0.0990   0.1034   0.1165   0.1361   0.1364   0.1450   0.1496   0.1548
  0.1571   0.1717   0.1748   0.1777   0.1800   0.1811   0.2016   0.2200
  0.2236   0.2315   0.2337   0.2449   0.2584   0.2658   0.2787   0.2857
  0.2957   0.3034   0.3069   0.3083   0.3218   0.3229   0.3394   0.3472
  0.3543   0.3620   0.3666   0.3734   0.3846   0.3861   0.4065   0.4088
  0.4174   0.4346   0.4371   0.4505   0.4516   0.4702   0.4760   0.5228
  0.5254   0.5405   0.5691   0.5795   0.5961   0.6179   0.6279   0.6386
  0.6584   0.6651   0.6683   0.6873   0.6932   0.7017   0.7049   0.7176
  0.7347   0.7569   0.7629   0.7807   0.7834   0.7870   0.8103   0.8140
  0.8387   0.8405   0.8879   0.9319   0.9329   0.9470   0.9641   1.0212
  1.0224   1.0378   1.0512   1.0553   1.0788   1.0904   1.0991   1.1119
  1.1253   1.1440   1.1493   1.1610   1.1846   1.1957   1.2044   1.2129
  1.2401   1.2456   1.2549   1.2655   1.2743   1.3138   1.3287   1.3404
  1.3564   1.3659   1.3891   1.4125   1.4174   1.4352   1.4756   1.4822
  1.4923   1.5129   1.5176   1.5420   1.5510   1.5547   1.5565   1.5930
  1.6175   1.6210   1.6402   1.6459   1.7024   1.7398   1.7564   1.7665
  1.7803   1.8296   1.8590   1.8975   1.9157   1.9416   1.9707   1.9831
  2.0604   2.1227   2.1512   2.1622   2.1633   2.2292   2.2510   2.2651
  2.3380   2.3409   2.3690   2.4084   2.4109   2.4639   2.5021   2.5246
  2.5631   2.6494   2.7299   2.7528   2.8044   2.8057   2.8356   2.8373
  2.8533   2.8939   2.9179   2.9375   2.9578   2.9805   2.9856   3.0418
  3.0480   3.0968   3.1663   3.1710   3.2076   3.2104   3.2541   3.2919
  3.3012   3.3159   3.3363   3.3406   3.3629   3.4009   3.4422   3.4429
  3.4621   3.4722   3.4772   3.4996   3.5239   3.5740   3.6008   3.6572
  3.6631   3.6838   3.7004   3.7416   3.7478   3.7807   3.8076   3.8088
  3.8133   3.8488   3.8574   3.8682   3.8871   3.8923   3.9072   3.9462
  3.9470   3.9608   3.9917   4.0854   4.0940   4.1200   4.1523   4.1917
  4.2037   4.2149   4.2502   4.2580   4.2597   4.2926   4.3384   4.3460
  4.3612   4.4100   4.4185   4.4356   4.4368   4.4511   4.5143   4.5688
  4.6534   4.6567   4.7431   4.8941   4.9283   4.9653   5.1949   5.1979
  5.2364   5.2663   5.2701   5.2835   5.2858   5.2905   5.3090   5.3295
  5.3322   5.3525   5.3542   5.4176   5.4400   5.4746   5.4900   5.5021
  5.5165   5.5511   5.5540   5.5899   5.6240   5.6260   5.6630   5.6814
  5.7038   5.7095   5.7936   5.8518   5.8609   5.9914   5.9930   6.0603
  6.0741   6.0946   6.1104   6.1426   6.5014   6.5884   6.6733   6.7308
  7.0683   7.0769   7.0920   7.1195   7.2426   7.2586   7.2705   7.2797
  7.2990   7.3140   7.3224   7.3470   7.3645   7.3873   7.4831   7.5324
  7.6107   7.6431   7.6625   7.6804   7.7991   7.8425   7.8486   7.9190
 24.3618  24.7685  24.8722  25.2217  50.5530  50.6030  50.6118  50.6234
 --------------------------------------------------------------
 
          Ground-State Mulliken Net Atomic Charges

     Atom                 Charge (a.u.)
  ----------------------------------------
      1 O                    -0.404830
      2 C                    -0.377350
      3 O                    -0.409462
      4 C                    -0.029822
      5 C                    -0.039879
      6 C                    -0.367179
      7 O                    -0.410609
      8 O                    -0.405881
      9 H                     0.339095
     10 H                     0.269320
     11 H                     0.332743
     12 H                     0.281491
     13 H                     0.283136
     14 H                     0.266343
     15 H                     0.333044
     16 H                     0.339841
  ----------------------------------------
  Sum of atomic charges =     0.000000

 -----------------------------------------------------------------
                    Cartesian Multipole Moments
 -----------------------------------------------------------------
    Charge (ESU x 10^10)
                -0.0000
    Dipole Moment (Debye)
         X       0.0131      Y       0.0457      Z      -0.0647
       Tot       0.0802
    Quadrupole Moments (Debye-Ang)
        XX     -44.5739     XY       4.2427     YY     -60.5124
        XZ      -0.9698     YZ       0.8394     ZZ     -35.6339
    Octopole Moments (Debye-Ang^2)
       XXX    -507.5108    XXY      15.4555    XYY    -230.3100
       YYY     -55.2195    XXZ     -32.0425    XYZ       2.4188
       YYZ     -25.9353    XZZ    -136.7403    YZZ     -11.2280
       ZZZ     -58.9860
    Hexadecapole Moments (Debye-Ang^3)
      XXXX   -4835.3855   XXXY     -44.4459   XXYY   -1141.3339
      XYYY    -337.9185   YYYY    -384.5299   XXXZ    -347.9158
      XXYZ     -23.8525   XYYZ    -126.7699   YYYZ     -18.0098
      XXZZ    -647.5624   XYZZ     -58.3861   YYZZ     -85.2246
      XZZZ    -239.2565   YZZZ      -8.7425   ZZZZ    -208.5350
 -----------------------------------------------------------------
 Calculating analytic gradient of the SCF energy
 Gradient of CDS energy
            1           2           3           4           5           6
    1   0.0002284  -0.0009255   0.0008097  -0.0001296   0.0000244   0.0010274
    2   0.0007579  -0.0002287  -0.0006460   0.0001418   0.0001736   0.0001808
    3  -0.0002826  -0.0006108   0.0005649   0.0002172   0.0002283  -0.0004636
            7           8           9          10          11          12
    1  -0.0004721  -0.0005676  -0.0002987   0.0001277  -0.0003636  -0.0001412
    2  -0.0009494   0.0006346  -0.0003007  -0.0000488   0.0000873   0.0000691
    3   0.0004681  -0.0003452   0.0002949   0.0000242  -0.0003587   0.0001095
           13          14          15          16
    1   0.0000823  -0.0000912   0.0003193   0.0003701
    2   0.0001261  -0.0001139   0.0002600  -0.0001437
    3   0.0001232   0.0000148  -0.0003146   0.0003304
 Gradient of SCF Energy
            1           2           3           4           5           6
    1   0.0065534  -0.0038586   0.0019789   0.0015906   0.0002743   0.0022108
    2  -0.0066740   0.0012790   0.0097010  -0.0019836  -0.0022865   0.0022367
    3  -0.0078721   0.0082223   0.0088986  -0.0061318  -0.0060246   0.0087408
            7           8           9          10          11          12
    1  -0.0071783  -0.0023580  -0.0053173   0.0036589  -0.0027263  -0.0037553
    2   0.0074160  -0.0087287   0.0032788   0.0000613  -0.0063626   0.0003706
    3   0.0085192  -0.0089428   0.0090577  -0.0069517  -0.0104352   0.0049472
           13          14          15          16
    1   0.0024657  -0.0024840   0.0064660   0.0024793
    2   0.0018738  -0.0014632  -0.0038315   0.0051130
    3   0.0052706  -0.0072988  -0.0099372   0.0099379
 Max gradient component =       1.044E-02
 RMS gradient           =       5.929E-03
 Computing fast CPCM-SWIG gradient
 Updating gradient with PCM contributions...
 -- total gradient after adding PCM contribution --
---------------------------------------------------
  Atom         X              Y              Z     
---------------------------------------------------
   1      -0.000483      -0.000080       0.000452
   2       0.000220       0.000098      -0.000082
   3      -0.000030      -0.000024       0.000045
   4      -0.000008       0.000071      -0.000044
   5       0.000007      -0.000026       0.000005
   6       0.000005      -0.000004      -0.000003
   7      -0.000042       0.000049       0.000026
   8       0.000010       0.000027      -0.000018
   9       0.000302      -0.000128      -0.000417
  10       0.000042       0.000081      -0.000032
  11       0.000015       0.000001      -0.000009
  12      -0.000007      -0.000008       0.000000
  13      -0.000001      -0.000036       0.000031
  14      -0.000023      -0.000004       0.000005
  15       0.000009       0.000000       0.000025
  16      -0.000017      -0.000015       0.000015
---------------------------------------------------
 Number of fixed atoms: 0
 Gradient time:  CPU 169.51 s  wall 14.54 s
 ----------------------------------------------------------------
             Standard Nuclear Orientation (Angstroms)
    I     Atom           X                Y                Z
 ----------------------------------------------------------------
    1      O       1.9057449000    -1.4200530000     0.6103459000
    2      C       2.3468486000    -0.1675161000     0.1256726000
    3      O       1.2573949000     0.6084617000    -0.3303092000
    4      C       3.0146520000     0.6203525000     1.2109664000
    5      C       4.2983794000     0.9372125000     1.2859760000
    6      C       5.3681511000     0.5851725000     0.2978813000
    7      O       6.0242591000     1.7919313000    -0.0344996000
    8      O       6.2775886000    -0.3501095000     0.8444799000
    9      H       1.3904740000    -1.2715577000     1.4136285000
   10      H       3.0098622000    -0.4033013000    -0.7025854000
   11      H       0.8965581000     0.1807993000    -1.1159973000
   12      H       2.3442291000     0.9239906000     2.0095683000
   13      H       4.6590978000     1.4963010000     2.1443419000
   14      H       4.9809023000     0.1108593000    -0.5999973000
   15      H       6.6221498000     1.6131473000    -0.7698434000
   16      H       6.5831783000    -0.0142846000     1.6971454000
 ----------------------------------------------------------------
 Nuclear Repulsion Energy =         388.53479685 hartrees
 There are       32 alpha and       32 beta electrons
 Discretize the solute cavity surface with Lebedev spheres
	Using 110 Lebedev grid points for each H atom
	Using 194 Lebedev grid points for other atoms
	Atomic van der Waals radii will be scaled by 1.20
 Remove points where switching function is < 1.0e-08
 Keep 1262 surface tesserae and discard 1170 interior tesserae
 Molecular Surface Area = 143.264 Angst**2
 Requested basis set is 6-311++G(2df,2p)
 There are 112 shells and 352 basis functions
 A cutoff of  1.0D-12 yielded   5618 shell pairs
 There are     54904 function pairs (     67639 Cartesian)
 Smallest overlap matrix eigenvalue = 6.61E-06
 Guess MOs from SCF MO coefficient file

 -----------------------------------------------------------------------
  General SCF calculation program by
  Eric Jon Sundstrom, Paul Horn, Yuezhi Mao, Dmitri Zuev, Alec White,
  David Stuck, Shaama M.S., Shane Yost, Joonho Lee, David Small,
  Daniel Levine, Susi Lehtola, Hugh Burton, Evgeny Epifanovsky,
  Bang C. Huynh
 -----------------------------------------------------------------------
 Exchange:     0.1500 Hartree-Fock + 1.0000 wB97M-V + LR-HF
 Correlation:  1.0000 wB97M-V
 Using SG-2 standard quadrature grid
 Nonlocal Correlation:  VV10 with C = 0.0100 and b = 6.00 and scale = 1.00000
 Grid used for NLC:  SG-1 standard quadrature
 
 Citation of the SMD model:
 Marenich, A.V.; Cramer, C.J.; Truhlar, D.G.
 J. Phys. Chem. B 2009, 113, 6378-6396.
 iSolventCode=           1
 Solvent: water                                                           
 
 vradii
            1           2           3           4           5           6
    1   1.5200000   1.8500000   1.5200000   1.8500000   1.8500000   1.8500000
            7           8           9          10          11          12
    1   1.5200000   1.5200000   1.2000000   1.2000000   1.2000000   1.2000000
           13          14          15          16
    1   1.2000000   1.2000000   1.2000000   1.2000000
 -------------------------------------------------------
 OpenMP BLAS3 based DFT computing Module                
 Release: version 1.0, May 2013, Q-Chem Inc. Pittsburgh 
 -------------------------------------------------------
 A restricted SCF calculation will be
 performed using Roothaan-Hall, DIIS, GDM
 SCF converges when RMS gradient is below 1.0e-07
 ---------------------------------------
  Cycle       Energy         DIIS error
 ---------------------------------------
    1    -458.1033822660      4.60e-04  Roothaan Step
 ---------------------------------------
  Cycle       Energy         DIIS error
 ---------------------------------------
    1    -458.1422280638      4.78e-04  
    2    -458.1463451875      3.31e-04  Done DIIS. Switching to GDM
 ---------------------------------------
  Cycle       Energy        RMS Gradient
 ---------------------------------------
    1    -458.1463451875      4.41e-03   Normal BFGS step
    2    -458.1465463270      4.34e-03   Normal BFGS step
    3    -458.1475384956      5.22e-04   Normal BFGS step
    4    -458.1475502909      2.47e-04   Normal BFGS step
    5    -458.1475524630      3.13e-05   Normal BFGS step
    6    -458.1475525253      1.20e-05   Normal BFGS step
    7    -458.1475525302      4.90e-06   Normal BFGS step
    8    -458.1475525309      2.27e-06   Normal BFGS step
    9    -458.1475525312      6.03e-07   Normal BFGS step
   10    -458.1475525312      2.46e-07   Normal BFGS step
   11    -458.1475525312      3.69e-08  Convergence criterion met
 ---------------------------------------
 SCF time:   CPU 873.16s  wall 72.00s 
(3)  G-ENP(liq) elect-nuc-pol free energy of system     -458.147552531 a.u.
(4)  G-CDS(liq) cavity-dispersion-solvent structure 
     free energy                                                3.6981 kcal/mol
(6)  G-S(liq) free energy of system                     -458.141659259 a.u.
 SCF   energy in the final basis set =     -458.1416592587
 Total energy in the final basis set =     -458.1416592587
 
 --------------------------------------------------------------
 
                    Orbital Energies (a.u.)
 --------------------------------------------------------------
 
 Alpha MOs
 -- Occupied --
-19.3448 -19.3448 -19.3447 -19.3446 -10.4476 -10.4475 -10.3507 -10.3498
 -1.2010  -1.1998  -1.1328  -1.1326  -0.9271  -0.8234  -0.7740  -0.7053
 -0.6799  -0.6307  -0.6221  -0.5852  -0.5799  -0.5388  -0.5375  -0.5256
 -0.5177  -0.4541  -0.4392  -0.4297  -0.4227  -0.4172  -0.3991  -0.3682
 -- Virtual --
  0.0265   0.0377   0.0378   0.0522   0.0567   0.0668   0.0670   0.0896
  0.0990   0.1034   0.1165   0.1361   0.1364   0.1450   0.1496   0.1548
  0.1571   0.1717   0.1748   0.1777   0.1800   0.1811   0.2016   0.2200
  0.2236   0.2315   0.2337   0.2449   0.2585   0.2658   0.2787   0.2857
  0.2959   0.3034   0.3069   0.3084   0.3219   0.3229   0.3394   0.3472
  0.3544   0.3620   0.3666   0.3734   0.3846   0.3861   0.4065   0.4089
  0.4175   0.4346   0.4371   0.4505   0.4517   0.4702   0.4760   0.5228
  0.5254   0.5405   0.5691   0.5795   0.5961   0.6179   0.6279   0.6385
  0.6584   0.6652   0.6684   0.6874   0.6932   0.7017   0.7050   0.7177
  0.7347   0.7569   0.7629   0.7807   0.7834   0.7870   0.8103   0.8141
  0.8387   0.8405   0.8880   0.9319   0.9330   0.9470   0.9641   1.0212
  1.0225   1.0378   1.0512   1.0553   1.0788   1.0904   1.0992   1.1119
  1.1254   1.1440   1.1493   1.1610   1.1846   1.1957   1.2044   1.2130
  1.2401   1.2456   1.2549   1.2655   1.2743   1.3138   1.3287   1.3405
  1.3564   1.3660   1.3892   1.4127   1.4174   1.4352   1.4756   1.4822
  1.4923   1.5128   1.5175   1.5420   1.5510   1.5547   1.5564   1.5930
  1.6175   1.6210   1.6403   1.6460   1.7024   1.7398   1.7565   1.7666
  1.7803   1.8296   1.8591   1.8976   1.9159   1.9417   1.9707   1.9833
  2.0606   2.1228   2.1513   2.1623   2.1634   2.2293   2.2511   2.2654
  2.3381   2.3409   2.3690   2.4086   2.4112   2.4641   2.5021   2.5247
  2.5631   2.6495   2.7300   2.7529   2.8046   2.8057   2.8356   2.8374
  2.8534   2.8940   2.9180   2.9375   2.9579   2.9806   2.9856   3.0418
  3.0482   3.0971   3.1665   3.1711   3.2076   3.2104   3.2542   3.2920
  3.3014   3.3161   3.3365   3.3407   3.3630   3.4010   3.4423   3.4429
  3.4623   3.4723   3.4773   3.4998   3.5240   3.5741   3.6009   3.6572
  3.6631   3.6838   3.7004   3.7416   3.7479   3.7808   3.8077   3.8088
  3.8135   3.8489   3.8574   3.8683   3.8872   3.8924   3.9073   3.9462
  3.9471   3.9609   3.9918   4.0855   4.0940   4.1200   4.1523   4.1917
  4.2039   4.2149   4.2502   4.2580   4.2597   4.2926   4.3384   4.3460
  4.3612   4.4101   4.4186   4.4357   4.4369   4.4512   4.5143   4.5688
  4.6534   4.6568   4.7432   4.8941   4.9283   4.9654   5.1949   5.1979
  5.2364   5.2663   5.2700   5.2835   5.2858   5.2905   5.3090   5.3296
  5.3322   5.3527   5.3544   5.4177   5.4402   5.4747   5.4901   5.5022
  5.5165   5.5513   5.5541   5.5899   5.6239   5.6261   5.6629   5.6812
  5.7039   5.7095   5.7940   5.8518   5.8613   5.9919   5.9936   6.0610
  6.0742   6.0958   6.1115   6.1431   6.5020   6.5892   6.6744   6.7318
  7.0684   7.0770   7.0921   7.1196   7.2428   7.2583   7.2703   7.2797
  7.2989   7.3137   7.3222   7.3467   7.3645   7.3873   7.4834   7.5328
  7.6111   7.6435   7.6627   7.6806   7.7993   7.8426   7.8489   7.9191
 24.3619  24.7695  24.8732  25.2218  50.5531  50.6031  50.6118  50.6234
 --------------------------------------------------------------
 
          Ground-State Mulliken Net Atomic Charges

     Atom                 Charge (a.u.)
  ----------------------------------------
      1 O                    -0.404358
      2 C                    -0.377267
      3 O                    -0.409699
      4 C                    -0.030053
      5 C                    -0.039978
      6 C                    -0.367098
      7 O                    -0.410634
      8 O                    -0.405911
      9 H                     0.339273
     10 H                     0.269311
     11 H                     0.332669
     12 H                     0.281449
     13 H                     0.283107
     14 H                     0.266311
     15 H                     0.333040
     16 H                     0.339839
  ----------------------------------------
  Sum of atomic charges =     0.000000

 -----------------------------------------------------------------
                    Cartesian Multipole Moments
 -----------------------------------------------------------------
    Charge (ESU x 10^10)
                 0.0000
    Dipole Moment (Debye)
         X       0.0072      Y       0.0377      Z      -0.0635
       Tot       0.0742
    Quadrupole Moments (Debye-Ang)
        XX     -44.6063     XY       4.2296     YY     -60.5023
        XZ      -0.9731     YZ       0.8334     ZZ     -35.6361
    Octopole Moments (Debye-Ang^2)
       XXX    -507.6894    XXY      15.4147    XYY    -230.3095
       YYY     -55.2738    XXZ     -32.0677    XYZ       2.4062
       YYZ     -25.9273    XZZ    -136.7608    YZZ     -11.2439
       ZZZ     -58.9895
    Hexadecapole Moments (Debye-Ang^3)
      XXXX   -4836.3712   XXXY     -44.5930   XXYY   -1141.3696
      XYYY    -337.9993   YYYY    -384.3799   XXXZ    -348.0625
      XXYZ     -23.8924   XYYZ    -126.7682   YYYZ     -18.0486
      XXZZ    -647.6616   XYZZ     -58.4142   YYZZ     -85.2038
      XZZZ    -239.2944   YZZZ      -8.7687   ZZZZ    -208.5572
 -----------------------------------------------------------------
 Calculating analytic gradient of the SCF energy
 Gradient of CDS energy
            1           2           3           4           5           6
    1   0.0003060  -0.0010034   0.0008098  -0.0001296   0.0000244   0.0010274
    2   0.0009788  -0.0004494  -0.0006459   0.0001416   0.0001735   0.0001808
    3  -0.0003680  -0.0005250   0.0005648   0.0002171   0.0002283  -0.0004636
            7           8           9          10          11          12
    1  -0.0004721  -0.0005676  -0.0002985   0.0001278  -0.0003636  -0.0001412
    2  -0.0009494   0.0006346  -0.0003007  -0.0000489   0.0000873   0.0000691
    3   0.0004681  -0.0003452   0.0002945   0.0000243  -0.0003586   0.0001095
           13          14          15          16
    1   0.0000823  -0.0000912   0.0003193   0.0003701
    2   0.0001261  -0.0001139   0.0002600  -0.0001437
    3   0.0001232   0.0000148  -0.0003146   0.0003304
 Gradient of SCF Energy
            1           2           3           4           5           6
    1   0.0071359  -0.0041785   0.0020415   0.0015435   0.0002668   0.0022172
    2  -0.0058000   0.0006553   0.0096631  -0.0020965  -0.0022916   0.0022255
    3  -0.0084362   0.0083724   0.0089336  -0.0060946  -0.0060267   0.0087252
            7           8           9          10          11          12
    1  -0.0071804  -0.0023601  -0.0055597   0.0036315  -0.0027258  -0.0037482
    2   0.0074153  -0.0087235   0.0032536   0.0000019  -0.0063698   0.0003731
    3   0.0085192  -0.0089351   0.0093871  -0.0069164  -0.0104330   0.0049396
           13          14          15          16
    1   0.0024548  -0.0024791   0.0064617   0.0024789
    2   0.0018747  -0.0014590  -0.0038319   0.0051099
    3   0.0052547  -0.0072890  -0.0099326   0.0099318
 Max gradient component =       1.043E-02
 RMS gradient           =       5.958E-03
 Computing fast CPCM-SWIG gradient
 Updating gradient with PCM contributions...
 -- total gradient after adding PCM contribution --
---------------------------------------------------
  Atom         X              Y              Z     
---------------------------------------------------
   1       0.000071       0.000776      -0.000094
   2      -0.000103      -0.000531       0.000066
   3       0.000032      -0.000071       0.000084
   4      -0.000064      -0.000043      -0.000007
   5       0.000011      -0.000034      -0.000007
   6       0.000017      -0.000010      -0.000007
   7      -0.000048       0.000047       0.000030
   8       0.000005       0.000029      -0.000017
   9       0.000082      -0.000137      -0.000102
  10       0.000020       0.000025      -0.000003
  11       0.000018      -0.000000      -0.000011
  12      -0.000003      -0.000003      -0.000003
  13      -0.000007      -0.000029       0.000026
  14      -0.000023      -0.000004       0.000005
  15       0.000008      -0.000000       0.000025
  16      -0.000015      -0.000015       0.000016
---------------------------------------------------
 Number of fixed atoms: 0
 Gradient time:  CPU 183.73 s  wall 19.98 s
 ----------------------------------------------------------------
             Standard Nuclear Orientation (Angstroms)
    I     Atom           X                Y                Z
 ----------------------------------------------------------------
    1      O       1.9057449000    -1.4220530000     0.6103459000
    2      C       2.3468486000    -0.1675161000     0.1256726000
    3      O       1.2573949000     0.6084617000    -0.3303092000
    4      C       3.0146520000     0.6203525000     1.2109664000
    5      C       4.2983794000     0.9372125000     1.2859760000
    6      C       5.3681511000     0.5851725000     0.2978813000
    7      O       6.0242591000     1.7919313000    -0.0344996000
    8      O       6.2775886000    -0.3501095000     0.8444799000
    9      H       1.3904740000    -1.2715577000     1.4136285000
   10      H       3.0098622000    -0.4033013000    -0.7025854000
   11      H       0.8965581000     0.1807993000    -1.1159973000
   12      H       2.3442291000     0.9239906000     2.0095683000
   13      H       4.6590978000     1.4963010000     2.1443419000
   14      H       4.9809023000     0.1108593000    -0.5999973000
   15      H       6.6221498000     1.6131473000    -0.7698434000
   16      H       6.5831783000    -0.0142846000     1.6971454000
 ----------------------------------------------------------------
 Nuclear Repulsion Energy =         388.48202627 hartrees
 There are       32 alpha and       32 beta electrons
 Discretize the solute cavity surface with Lebedev spheres
	Using 110 Lebedev grid points for each H atom
	Using 194 Lebedev grid points for other atoms
	Atomic van der Waals radii will be scaled by 1.20
 Remove points where switching function is < 1.0e-08
 Keep 1262 surface tesserae and discard 1170 interior tesserae
 Molecular Surface Area = 143.279 Angst**2
 Requested basis set is 6-311++G(2df,2p)
 There are 112 shells and 352 basis functions
 A cutoff of  1.0D-12 yielded   5618 shell pairs
 There are     54904 function pairs (     67639 Cartesian)
 Smallest overlap matrix eigenvalue = 6.61E-06
 Guess MOs from SCF MO coefficient file

 -----------------------------------------------------------------------
  General SCF calculation program by
  Eric Jon Sundstrom, Paul Horn, Yuezhi Mao, Dmitri Zuev, Alec White,
  David Stuck, Shaama M.S., Shane Yost, Joonho Lee, David Small,
  Daniel Levine, Susi Lehtola, Hugh Burton, Evgeny Epifanovsky,
  Bang C. Huynh
 -----------------------------------------------------------------------
 Exchange:     0.1500 Hartree-Fock + 1.0000 wB97M-V + LR-HF
 Correlation:  1.0000 wB97M-V
 Using SG-2 standard quadrature grid
 Nonlocal Correlation:  VV10 with C = 0.0100 and b = 6.00 and scale = 1.00000
 Grid used for NLC:  SG-1 standard quadrature
 
 Citation of the SMD model:
 Marenich, A.V.; Cramer, C.J.; Truhlar, D.G.
 J. Phys. Chem. B 2009, 113, 6378-6396.
 iSolventCode=           1
 Solvent: water                                                           
 
 vradii
            1           2           3           4           5           6
    1   1.5200000   1.8500000   1.5200000   1.8500000   1.8500000   1.8500000
            7           8           9          10          11          12
    1   1.5200000   1.5200000   1.2000000   1.2000000   1.2000000   1.2000000
           13          14          15          16
    1   1.2000000   1.2000000   1.2000000   1.2000000
 -------------------------------------------------------
 OpenMP BLAS3 based DFT computing Module                
 Release: version 1.0, May 2013, Q-Chem Inc. Pittsburgh 
 -------------------------------------------------------
 A restricted SCF calculation will be
 performed using Roothaan-Hall, DIIS, GDM
 SCF converges when RMS gradient is below 1.0e-07
 ---------------------------------------
  Cycle       Energy         DIIS error
 ---------------------------------------
    1    -458.1033707562      4.61e-04  Roothaan Step
 ---------------------------------------
  Cycle       Energy         DIIS error
 ---------------------------------------
    1    -458.1422210885      4.78e-04  
    2    -458.1463396925      3.31e-04  Done DIIS. Switching to GDM
 ---------------------------------------
  Cycle       Energy        RMS Gradient
 ---------------------------------------
    1    -458.1463396925      4.44e-03   Normal BFGS step
    2    -458.1465401145      4.34e-03   Normal BFGS step
    3    -458.1475354262      5.23e-04   Normal BFGS step
    4    -458.1475472364      2.46e-04   Normal BFGS step
    5    -458.1475494143      3.07e-05   Normal BFGS step
    6    -458.1475494766      1.31e-05   Normal BFGS step
    7    -458.1475494817      6.69e-06   Normal BFGS step
    8    -458.1475494831      2.15e-06   Normal BFGS step
    9    -458.1475494833      6.82e-07   Normal BFGS step
   10    -458.1475494833      2.19e-07   Normal BFGS step
   11    -458.1475494833      4.23e-08  Convergence criterion met
 ---------------------------------------
 SCF time:   CPU 833.81s  wall 61.00s 
(3)  G-ENP(liq) elect-nuc-pol free energy of system     -458.147549483 a.u.
(4)  G-CDS(liq) cavity-dispersion-solvent structure 
     free energy                                                3.6962 kcal/mol
(6)  G-S(liq) free energy of system                     -458.141659292 a.u.
 SCF   energy in the final basis set =     -458.1416592924
 Total energy in the final basis set =     -458.1416592924
 
 --------------------------------------------------------------
 
                    Orbital Energies (a.u.)
 --------------------------------------------------------------
 
 Alpha MOs
 -- Occupied --
-19.3449 -19.3448 -19.3448 -19.3447 -10.4477 -10.4477 -10.3507 -10.3499
 -1.2008  -1.1996  -1.1327  -1.1325  -0.9272  -0.8234  -0.7739  -0.7051
 -0.6799  -0.6307  -0.6219  -0.5851  -0.5797  -0.5389  -0.5375  -0.5256
 -0.5177  -0.4542  -0.4392  -0.4297  -0.4228  -0.4172  -0.3992  -0.3683
 -- Virtual --
  0.0265   0.0377   0.0378   0.0522   0.0567   0.0668   0.0670   0.0895
  0.0990   0.1034   0.1165   0.1361   0.1364   0.1450   0.1496   0.1548
  0.1571   0.1717   0.1748   0.1777   0.1800   0.1811   0.2016   0.2200
  0.2236   0.2315   0.2337   0.2449   0.2584   0.2658   0.2787   0.2857
  0.2957   0.3034   0.3069   0.3083   0.3218   0.3228   0.3394   0.3471
  0.3543   0.3619   0.3666   0.3734   0.3846   0.3860   0.4065   0.4087
  0.4174   0.4345   0.4370   0.4505   0.4516   0.4702   0.4760   0.5228
  0.5253   0.5405   0.5691   0.5794   0.5961   0.6178   0.6279   0.6385
  0.6584   0.6651   0.6683   0.6872   0.6932   0.7016   0.7049   0.7176
  0.7347   0.7570   0.7628   0.7807   0.7834   0.7869   0.8103   0.8140
  0.8387   0.8405   0.8879   0.9319   0.9329   0.9470   0.9641   1.0211
  1.0224   1.0378   1.0512   1.0553   1.0788   1.0904   1.0991   1.1119
  1.1253   1.1440   1.1493   1.1610   1.1846   1.1957   1.2044   1.2128
  1.2402   1.2456   1.2549   1.2654   1.2743   1.3138   1.3287   1.3404
  1.3564   1.3660   1.3891   1.4126   1.4174   1.4352   1.4756   1.4822
  1.4923   1.5129   1.5174   1.5420   1.5510   1.5547   1.5563   1.5930
  1.6174   1.6210   1.6403   1.6459   1.7023   1.7398   1.7563   1.7664
  1.7803   1.8295   1.8589   1.8972   1.9157   1.9413   1.9708   1.9832
  2.0605   2.1224   2.1513   2.1617   2.1633   2.2291   2.2510   2.2650
  2.3381   2.3409   2.3690   2.4082   2.4108   2.4638   2.5021   2.5246
  2.5631   2.6494   2.7299   2.7528   2.8041   2.8057   2.8355   2.8373
  2.8533   2.8938   2.9179   2.9373   2.9576   2.9805   2.9856   3.0418
  3.0478   3.0965   3.1662   3.1709   3.2076   3.2104   3.2539   3.2918
  3.3011   3.3159   3.3362   3.3406   3.3629   3.4007   3.4422   3.4429
  3.4621   3.4722   3.4772   3.4996   3.5239   3.5740   3.6009   3.6572
  3.6631   3.6838   3.7003   3.7416   3.7476   3.7807   3.8075   3.8087
  3.8131   3.8486   3.8574   3.8682   3.8870   3.8923   3.9070   3.9462
  3.9470   3.9608   3.9916   4.0853   4.0940   4.1200   4.1523   4.1916
  4.2035   4.2149   4.2501   4.2578   4.2596   4.2920   4.3377   4.3459
  4.3608   4.4099   4.4185   4.4356   4.4367   4.4511   4.5143   4.5687
  4.6533   4.6567   4.7431   4.8941   4.9283   4.9653   5.1949   5.1979
  5.2365   5.2662   5.2702   5.2834   5.2858   5.2905   5.3090   5.3295
  5.3322   5.3524   5.3541   5.4173   5.4399   5.4746   5.4900   5.5020
  5.5163   5.5508   5.5539   5.5898   5.6235   5.6260   5.6628   5.6808
  5.7036   5.7093   5.7930   5.8517   5.8603   5.9903   5.9928   6.0597
  6.0740   6.0946   6.1104   6.1420   6.5011   6.5881   6.6727   6.7302
  7.0683   7.0768   7.0920   7.1193   7.2425   7.2581   7.2700   7.2794
  7.2985   7.3132   7.3218   7.3464   7.3644   7.3872   7.4829   7.5322
  7.6104   7.6427   7.6622   7.6803   7.7992   7.8424   7.8485   7.9189
 24.3618  24.7681  24.8718  25.2217  50.5527  50.6027  50.6116  50.6233
 --------------------------------------------------------------
 
          Ground-State Mulliken Net Atomic Charges

     Atom                 Charge (a.u.)
  ----------------------------------------
      1 O                    -0.405034
      2 C                    -0.377353
      3 O                    -0.409282
      4 C                    -0.030082
      5 C                    -0.039513
      6 C                    -0.367287
      7 O                    -0.410609
      8 O                    -0.405877
      9 H                     0.339188
     10 H                     0.269214
     11 H                     0.332767
     12 H                     0.281468
     13 H                     0.283144
     14 H                     0.266376
     15 H                     0.333038
     16 H                     0.339841
  ----------------------------------------
  Sum of atomic charges =     0.000000

 -----------------------------------------------------------------
                    Cartesian Multipole Moments
 -----------------------------------------------------------------
    Charge (ESU x 10^10)
                 0.0000
    Dipole Moment (Debye)
         X       0.0100      Y       0.0500      Z      -0.0664
       Tot       0.0837
    Quadrupole Moments (Debye-Ang)
        XX     -44.5857     XY       4.2537     YY     -60.5200
        XZ      -0.9736     YZ       0.8424     ZZ     -35.6366
    Octopole Moments (Debye-Ang^2)
       XXX    -507.5606    XXY      15.4914    XYY    -230.3353
       YYY     -55.1780    XXZ     -32.0517    XYZ       2.4276
       YYZ     -25.9445    XZZ    -136.7521    YZZ     -11.2145
       ZZZ     -58.9939
    Hexadecapole Moments (Debye-Ang^3)
      XXXX   -4835.5832   XXXY     -44.3051   XXYY   -1141.4222
      XYYY    -337.8101   YYYY    -384.6685   XXXZ    -347.9442
      XXYZ     -23.8224   XYYZ    -126.7927   YYYZ     -17.9826
      XXZZ    -647.5970   XYZZ     -58.3508   YYZZ     -85.2523
      XZZZ    -239.2786   YZZZ      -8.7207   ZZZZ    -208.5476
 -----------------------------------------------------------------
 Calculating analytic gradient of the SCF energy
 Gradient of CDS energy
            1           2           3           4           5           6
    1   0.0001952  -0.0008924   0.0008099  -0.0001296   0.0000244   0.0010274
    2   0.0006637  -0.0001339  -0.0006459   0.0001416   0.0001736   0.0001808
    3  -0.0002463  -0.0006471   0.0005648   0.0002171   0.0002283  -0.0004636
            7           8           9          10          11          12
    1  -0.0004721  -0.0005676  -0.0002987   0.0001278  -0.0003636  -0.0001412
    2  -0.0009494   0.0006346  -0.0003005  -0.0000493   0.0000872   0.0000691
    3   0.0004681  -0.0003452   0.0002948   0.0000243  -0.0003586   0.0001095
           13          14          15          16
    1   0.0000823  -0.0000912   0.0003193   0.0003701
    2   0.0001261  -0.0001139   0.0002600  -0.0001437
    3   0.0001232   0.0000148  -0.0003146   0.0003304
 Gradient of SCF Energy
            1           2           3           4           5           6
    1   0.0069468  -0.0039306   0.0019778   0.0016264   0.0002680   0.0022100
    2  -0.0073567   0.0015698   0.0098669  -0.0019434  -0.0022925   0.0022370
    3  -0.0083320   0.0082471   0.0088199  -0.0061410  -0.0060251   0.0087392
            7           8           9          10          11          12
    1  -0.0071774  -0.0023576  -0.0056517   0.0036493  -0.0027302  -0.0037596
    2   0.0074155  -0.0087301   0.0035106   0.0000247  -0.0063661   0.0003696
    3   0.0085185  -0.0089415   0.0095713  -0.0069396  -0.0104366   0.0049463
           13          14          15          16
    1   0.0024672  -0.0024829   0.0064656   0.0024789
    2   0.0018733  -0.0014612  -0.0038308   0.0051136
    3   0.0052712  -0.0072970  -0.0099368   0.0099362
 Max gradient component =       1.044E-02
 RMS gradient           =       6.000E-03
 Computing fast CPCM-SWIG gradient
 Updating gradient with PCM contributions...
 -- total gradient after adding PCM contribution --
---------------------------------------------------
  Atom         X              Y              Z     
---------------------------------------------------
   1      -0.000103      -0.000745      -0.000019
   2       0.000149       0.000399      -0.000063
   3      -0.000039       0.000138      -0.000041
   4       0.000022       0.000097      -0.000051
   5       0.000006      -0.000025       0.000009
   6       0.000004      -0.000004      -0.000002
   7      -0.000042       0.000049       0.000025
   8       0.000011       0.000027      -0.000018
   9      -0.000025       0.000090       0.000107
  10       0.000035       0.000041      -0.000020
  11       0.000019      -0.000001      -0.000002
  12      -0.000008      -0.000011      -0.000002
  13       0.000001      -0.000037       0.000032
  14      -0.000023      -0.000005       0.000004
  15       0.000009       0.000000       0.000025
  16      -0.000017      -0.000015       0.000015
---------------------------------------------------
 Number of fixed atoms: 0
 Gradient time:  CPU 183.56 s  wall 19.64 s
 ----------------------------------------------------------------
             Standard Nuclear Orientation (Angstroms)
    I     Atom           X                Y                Z
 ----------------------------------------------------------------
    1      O       1.9057449000    -1.4210530000     0.6113459000
    2      C       2.3468486000    -0.1675161000     0.1256726000
    3      O       1.2573949000     0.6084617000    -0.3303092000
    4      C       3.0146520000     0.6203525000     1.2109664000
    5      C       4.2983794000     0.9372125000     1.2859760000
    6      C       5.3681511000     0.5851725000     0.2978813000
    7      O       6.0242591000     1.7919313000    -0.0344996000
    8      O       6.2775886000    -0.3501095000     0.8444799000
    9      H       1.3904740000    -1.2715577000     1.4136285000
   10      H       3.0098622000    -0.4033013000    -0.7025854000
   11      H       0.8965581000     0.1807993000    -1.1159973000
   12      H       2.3442291000     0.9239906000     2.0095683000
   13      H       4.6590978000     1.4963010000     2.1443419000
   14      H       4.9809023000     0.1108593000    -0.5999973000
   15      H       6.6221498000     1.6131473000    -0.7698434000
   16      H       6.5831783000    -0.0142846000     1.6971454000
 ----------------------------------------------------------------
 Nuclear Repulsion Energy =         388.50577563 hartrees
 There are       32 alpha and       32 beta electrons
 Discretize the solute cavity surface with Lebedev spheres
	Using 110 Lebedev grid points for each H atom
[...]
 H          0.172  0.042 -0.106    0.030 -0.121  0.076   -0.283 -0.118 -0.089
 H          0.221 -0.053 -0.013    0.057  0.097  0.016   -0.113 -0.000 -0.066
 H         -0.081 -0.117 -0.060   -0.067  0.498 -0.244    0.364  0.029  0.040
 H          0.099  0.041 -0.102    0.165 -0.493  0.240    0.341  0.141  0.002
 H         -0.150 -0.065 -0.108   -0.042  0.116 -0.091   -0.314 -0.031  0.054
 H         -0.187 -0.131 -0.034    0.072 -0.078 -0.011   -0.109 -0.051  0.053
 H         -0.353  0.278  0.042   -0.126  0.200 -0.021   -0.242  0.207  0.017
 TransDip  -0.014  0.096 -0.085   -0.008  0.004 -0.007   -0.135 -0.030 -0.010

 Mode:                16                     17                     18
 Frequency:       812.97                 939.72                1039.06
 Force Cnst:      0.6195                 1.4352                 0.8338
 Red. Mass:       1.5909                 2.7585                 1.3108
 IR Active:          YES                    YES                    YES
 IR Intens:       50.052                107.975                  0.005
 Raman Active:       YES                    YES                    YES
               X      Y      Z        X      Y      Z        X      Y      Z
 O          0.024  0.036  0.004   -0.013 -0.054  0.025   -0.004 -0.006 -0.001
 C         -0.004  0.017 -0.003    0.030 -0.080 -0.170    0.004 -0.012 -0.012
 O         -0.031  0.009 -0.022   -0.030  0.010 -0.013    0.003 -0.002  0.001
 C          0.030 -0.129  0.058   -0.067  0.066  0.166   -0.024  0.107 -0.040
 C          0.028 -0.133  0.058    0.010  0.085  0.173    0.024 -0.105  0.040
 C         -0.004  0.016 -0.004    0.029 -0.078 -0.171   -0.002  0.012  0.010
 O          0.026  0.023 -0.018    0.024  0.023 -0.011    0.002  0.003 -0.001
 O         -0.039  0.023  0.001    0.033 -0.043  0.028   -0.006  0.004  0.000
 H         -0.002  0.070 -0.020    0.048  0.271  0.007    0.007  0.019  0.002
 H         -0.009  0.053 -0.017   -0.018 -0.104 -0.201    0.011 -0.009 -0.007
 H          0.002 -0.056 -0.003   -0.293  0.280 -0.039   -0.046  0.051 -0.004
 H         -0.114  0.580 -0.335   -0.354 -0.025 -0.026    0.157 -0.567  0.372
 H         -0.131  0.576 -0.339    0.328  0.135  0.019   -0.085  0.581 -0.363
 H         -0.014  0.053 -0.019    0.086 -0.075 -0.197    0.006  0.012  0.007
 H          0.025 -0.050 -0.002    0.137  0.390 -0.007   -0.017 -0.064 -0.001
 H         -0.033  0.065 -0.018   -0.163  0.221 -0.004    0.013 -0.014  0.000
 TransDip  -0.042  0.189 -0.118   -0.042  0.243 -0.224   -0.001 -0.000 -0.002

 Mode:                19                     20                     21
 Frequency:      1051.20                1168.64                1179.23
 Force Cnst:      1.2211                 2.1564                 1.4881
 Red. Mass:       1.8756                 2.6799                 1.8163
 IR Active:          YES                    YES                    YES
 IR Intens:        0.041                464.588                 12.023
 Raman Active:       YES                    YES                    YES
               X      Y      Z        X      Y      Z        X      Y      Z
 O         -0.009 -0.042  0.013    0.051  0.150 -0.045    0.037  0.102 -0.033
 C          0.029 -0.052 -0.114   -0.134 -0.093  0.006   -0.083 -0.086  0.013
 O         -0.014 -0.007 -0.011    0.070 -0.067  0.010    0.038 -0.053 -0.004
 C         -0.007  0.046  0.133    0.002 -0.001  0.017   -0.005  0.002  0.016
 C          0.030 -0.039 -0.132    0.005  0.003 -0.016    0.002  0.001  0.011
 C         -0.011  0.054  0.115   -0.159  0.015 -0.020    0.106 -0.034  0.026
 O         -0.016  0.001  0.009    0.034  0.097 -0.002   -0.008 -0.065 -0.008
 O         -0.025  0.033 -0.014    0.105 -0.109  0.051   -0.073  0.073 -0.037
 H          0.068  0.324 -0.003   -0.038 -0.349 -0.020    0.002 -0.128 -0.020
 H          0.114  0.003 -0.065   -0.215 -0.327  0.001    0.055 -0.168  0.142
 H         -0.303  0.288 -0.036   -0.226  0.246 -0.015   -0.379  0.384 -0.040
 H          0.176  0.284  0.193    0.139  0.103  0.093    0.236  0.150  0.164
 H          0.321 -0.162 -0.172    0.233 -0.024 -0.095   -0.287  0.010  0.128
 H          0.096  0.048  0.076   -0.320  0.189 -0.037   -0.008 -0.181  0.148
 H         -0.142 -0.407  0.003   -0.098 -0.351 -0.010    0.165  0.523  0.001
 H          0.204 -0.258  0.016   -0.180  0.280  0.010    0.063 -0.121 -0.016
 TransDip  -0.002 -0.006 -0.002   -0.665 -0.184 -0.031    0.014 -0.097  0.052

 Mode:                22                     23                     24
 Frequency:      1196.03                1219.19                1240.06
 Force Cnst:      0.9851                 1.5613                 4.0142
 Red. Mass:       1.1689                 1.7827                 4.4306
 IR Active:          YES                    YES                    YES
 IR Intens:      218.886                 23.473                482.455
 Raman Active:       YES                    YES                    YES
               X      Y      Z        X      Y      Z        X      Y      Z
 O          0.013  0.059 -0.007    0.007  0.035 -0.012   -0.016 -0.039  0.032
 C         -0.020 -0.022  0.016    0.072 -0.072  0.071   -0.207  0.187 -0.151
 O          0.002  0.001  0.005   -0.074  0.027 -0.029    0.181 -0.113  0.057
 C         -0.021 -0.003  0.005    0.016 -0.013 -0.034   -0.016  0.001  0.047
 C          0.018  0.008  0.012    0.003  0.019  0.041    0.008  0.002  0.036
 C          0.033 -0.009  0.017    0.054  0.120 -0.075    0.097  0.242 -0.112
 O         -0.005 -0.005  0.005   -0.067 -0.076  0.024   -0.098 -0.167  0.030
 O         -0.040  0.050 -0.012    0.022 -0.031  0.015    0.027 -0.024  0.033
 H         -0.067 -0.353  0.012   -0.005 -0.089  0.001   -0.046 -0.148  0.032
 H         -0.150 -0.202 -0.041    0.367 -0.096  0.315   -0.439  0.193 -0.350
 H          0.084 -0.073  0.006   -0.276  0.258 -0.060    0.136 -0.100  0.079
 H         -0.418 -0.226 -0.236   -0.068 -0.045 -0.094    0.071  0.152  0.070
 H          0.492  0.005 -0.178   -0.141  0.014  0.108   -0.107  0.093  0.032
 H          0.255 -0.113 -0.028    0.357  0.310 -0.309    0.237  0.323 -0.226
 H         -0.040 -0.095 -0.002   -0.143 -0.378  0.036   -0.051 -0.067  0.054
 H          0.222 -0.294  0.023   -0.045  0.081 -0.003    0.118 -0.136  0.042
 TransDip   0.122 -0.443  0.116    0.134  0.077 -0.014   -0.141  0.588 -0.360

 Mode:                25                     26                     27
 Frequency:      1268.61                1282.70                1292.97
 Force Cnst:      1.9984                 1.5584                 1.5621
 Red. Mass:       2.1075                 1.6076                 1.5859
 IR Active:          YES                    YES                    YES
 IR Intens:       46.260                218.396                  8.144
 Raman Active:       YES                    YES                    YES
               X      Y      Z        X      Y      Z        X      Y      Z
 O          0.031  0.040 -0.038   -0.035 -0.036  0.036    0.016 -0.007 -0.021
 C          0.042 -0.157  0.049    0.072  0.125 -0.018   -0.098 -0.038  0.054
 O         -0.059  0.073 -0.005   -0.010 -0.030 -0.011    0.031 -0.013  0.000
 C         -0.023  0.034  0.032    0.009 -0.026 -0.020    0.009 -0.035 -0.083
 C          0.000 -0.041 -0.036    0.008 -0.028 -0.027   -0.017  0.029  0.080
 C         -0.036  0.165 -0.045   -0.104  0.081 -0.022   -0.113  0.002 -0.068
 O         -0.018 -0.090 -0.001    0.019 -0.024 -0.009    0.024  0.023  0.002
 O          0.046 -0.026  0.043    0.043 -0.021  0.036    0.015  0.009  0.026
 H          0.065  0.286 -0.059   -0.080 -0.365  0.063    0.101  0.457 -0.043
 H         -0.245 -0.205 -0.167    0.305  0.003  0.208    0.168  0.382  0.157
 H          0.334 -0.325  0.020   -0.325  0.307 -0.043   -0.037  0.035  0.008
 H          0.009  0.066  0.049   -0.132 -0.061 -0.134    0.182  0.068  0.025
 H          0.075 -0.054 -0.061    0.136  0.011 -0.114    0.199  0.027 -0.012
 H         -0.354  0.068  0.145   -0.308 -0.103  0.170    0.314 -0.281 -0.111
 H          0.147  0.439  0.016    0.139  0.390 -0.004    0.002  0.002 -0.012
 H          0.178 -0.227  0.072    0.180 -0.231  0.067    0.312 -0.393  0.069
 TransDip   0.208  0.061  0.017   -0.103  0.445 -0.123   -0.090  0.010 -0.013

 Mode:                28                     29                     30
 Frequency:      1314.43                1380.22                1416.95
 Force Cnst:      1.3620                 1.4697                 1.4461
 Red. Mass:       1.3380                 1.3095                 1.2225
 IR Active:          YES                    YES                    YES
 IR Intens:       59.175                  0.268                 80.448
 Raman Active:       YES                    YES                    YES
               X      Y      Z        X      Y      Z        X      Y      Z
 O          0.010 -0.010 -0.015   -0.002  0.006  0.013   -0.007  0.004  0.004
 C         -0.082 -0.012  0.058    0.001  0.007 -0.074    0.027 -0.015  0.034
 O          0.031 -0.020 -0.003   -0.017  0.025  0.024    0.005 -0.010 -0.016
 C         -0.032 -0.020 -0.034   -0.036 -0.040 -0.051    0.021  0.011  0.009
 C          0.038  0.001 -0.025   -0.059  0.017  0.046   -0.001  0.001 -0.010
 C          0.073  0.021  0.068   -0.009 -0.014  0.075   -0.034 -0.103  0.018
 O         -0.018 -0.031 -0.007   -0.000 -0.029 -0.028    0.005 -0.001 -0.024
 O         -0.004 -0.012 -0.016    0.003 -0.004 -0.011    0.004  0.036  0.031
 H          0.078  0.358 -0.031   -0.026 -0.171  0.025   -0.021 -0.042  0.003
 H          0.148  0.360  0.149    0.272 -0.166  0.182   -0.175  0.224 -0.192
 H         -0.097  0.092 -0.002    0.204 -0.187  0.030   -0.108  0.094 -0.017
 H         -0.298 -0.186 -0.183    0.392  0.195  0.210   -0.042 -0.042 -0.027
 H          0.382 -0.015 -0.148    0.435  0.014 -0.154   -0.120 -0.003  0.035
 H         -0.295  0.263  0.110    0.198  0.319 -0.182   -0.102  0.712 -0.381
 H          0.042  0.121  0.008    0.103  0.273 -0.008    0.063  0.132 -0.005
 H         -0.225  0.286 -0.046   -0.082  0.124 -0.027    0.248 -0.269  0.057
 TransDip  -0.050  0.235 -0.056    0.011 -0.009  0.009    0.066 -0.240  0.144

 Mode:                31                     32                     33
 Frequency:      1420.77                1476.77                1490.21
 Force Cnst:      1.4709                 1.9093                 2.4253
 Red. Mass:       1.2368                 1.4859                 1.8536
 IR Active:          YES                    YES                    YES
 IR Intens:       20.516                138.197                104.286
 Raman Active:       YES                    YES                    YES
               X      Y      Z        X      Y      Z        X      Y      Z
 O         -0.023  0.033  0.032    0.005 -0.028 -0.025   -0.003 -0.025 -0.012
 C          0.070 -0.085  0.014    0.032  0.066  0.094    0.097  0.075  0.100
 O         -0.002  0.002 -0.020    0.007 -0.025 -0.024   -0.003 -0.018 -0.025
 C         -0.009 -0.002 -0.014    0.046  0.008  0.001   -0.058 -0.061 -0.078
 C         -0.024 -0.003  0.010   -0.034 -0.018 -0.013   -0.094  0.022  0.069
 C         -0.003  0.043  0.021   -0.082  0.041  0.097    0.121 -0.016 -0.076
 O         -0.000 -0.011 -0.001    0.009 -0.025 -0.026   -0.013  0.011  0.020
 O          0.002 -0.018 -0.016    0.012 -0.028 -0.025   -0.014  0.017  0.008
 H         -0.112 -0.379  0.044    0.058  0.261 -0.037    0.025  0.138 -0.020
 H         -0.134  0.712 -0.373   -0.425 -0.300 -0.162   -0.388 -0.208 -0.196
 H         -0.077  0.054 -0.011   -0.200  0.184 -0.034   -0.215  0.197 -0.036
 H          0.123  0.077  0.059   -0.054 -0.051 -0.070    0.344  0.168  0.161
 H          0.121 -0.020 -0.038    0.028 -0.020 -0.048    0.395  0.013 -0.122
 H          0.157 -0.188  0.076    0.560 -0.059 -0.122   -0.385 -0.001  0.126
 H          0.016  0.055 -0.002    0.105  0.278 -0.013   -0.089 -0.238  0.011
 H         -0.128  0.151 -0.032   -0.171  0.217 -0.049    0.065 -0.092  0.019
 TransDip  -0.011 -0.125  0.073   -0.108  0.359  0.035    0.312  0.094  0.021

 Mode:                34                     35                     36
 Frequency:      1779.15                3120.33                3141.34
 Force Cnst:     13.4461                 6.2458                 6.3197
 Red. Mass:       7.2098                 1.0888                 1.0870
 IR Active:          YES                    YES                    YES
 IR Intens:        1.198                 20.383                 33.064
 Raman Active:       YES                    YES                    YES
               X      Y      Z        X      Y      Z        X      Y      Z
 O         -0.000  0.002  0.001    0.000 -0.001 -0.001   -0.000  0.001  0.001
 C          0.083  0.042  0.047   -0.035  0.013  0.046    0.034 -0.013 -0.046
 O          0.002 -0.000  0.002   -0.000 -0.000 -0.001    0.000  0.000  0.001
 C         -0.489 -0.157 -0.091    0.007 -0.004 -0.009   -0.007  0.003  0.007
 C          0.511  0.091 -0.032    0.003  0.007  0.010    0.005  0.006  0.010
 C         -0.097 -0.003  0.036   -0.020 -0.025 -0.050   -0.019 -0.025 -0.049
 O         -0.002 -0.001  0.002   -0.000  0.000  0.001   -0.000  0.000  0.001
 O         -0.000  0.002  0.001    0.000  0.001  0.001   -0.000  0.001  0.001
 H          0.003  0.007  0.003   -0.006  0.006  0.010    0.006 -0.007 -0.010
 H         -0.203 -0.115 -0.133    0.420 -0.147 -0.530   -0.427  0.145  0.529
 H         -0.027  0.026  0.002   -0.000  0.004  0.001    0.001 -0.005 -0.001
 H          0.073  0.198  0.322   -0.084  0.038  0.099    0.070 -0.029 -0.079
 H         -0.184  0.131  0.304   -0.047 -0.072 -0.110   -0.049 -0.071 -0.108
 H          0.241 -0.004 -0.106    0.247  0.297  0.571    0.251  0.299  0.570
 H          0.011  0.034  0.005    0.002 -0.004 -0.001    0.002 -0.004 -0.001
 H         -0.005  0.006  0.001   -0.001 -0.008 -0.011   -0.001 -0.008 -0.011
 TransDip  -0.004  0.009  0.034   -0.141 -0.033 -0.008    0.032 -0.084 -0.161

 Mode:                37                     38                     39
 Frequency:      3148.85                3167.52                3792.93
 Force Cnst:      6.3340                 6.4793                 9.0376
 Red. Mass:       1.0842                 1.0961                 1.0662
 IR Active:          YES                    YES                    YES
 IR Intens:       16.425                 16.436                101.265
 Raman Active:       YES                    YES                    YES
               X      Y      Z        X      Y      Z        X      Y      Z
 O          0.000  0.000 -0.000   -0.000 -0.000  0.000    0.033 -0.008 -0.052
 C         -0.007  0.002  0.008    0.008 -0.001 -0.008    0.001 -0.001 -0.002
 O          0.000 -0.000 -0.000   -0.000  0.000 -0.000   -0.001 -0.001 -0.002
 C         -0.033  0.016  0.041    0.044 -0.016 -0.045   -0.000  0.000  0.001
 C         -0.019 -0.031 -0.048   -0.025 -0.031 -0.045   -0.000 -0.000 -0.000
 C         -0.006 -0.006 -0.011   -0.005 -0.004 -0.008    0.000  0.000  0.000
 O          0.000  0.000  0.000    0.000  0.000 -0.000   -0.000  0.000  0.000
 O          0.000  0.000  0.000    0.000 -0.000  0.000    0.002  0.002  0.005
 H          0.002  0.003 -0.000   -0.002 -0.003  0.001   -0.531  0.140  0.827
 H          0.071 -0.025 -0.091   -0.078  0.027  0.098   -0.009  0.003  0.013
 H          0.001  0.000  0.000   -0.002 -0.000 -0.001    0.014  0.016  0.029
 H          0.406 -0.191 -0.491   -0.442  0.205  0.531    0.003 -0.000 -0.002
 H          0.231  0.370  0.568    0.217  0.343  0.525   -0.000  0.001 -0.000
 H          0.055  0.067  0.129    0.043  0.053  0.100   -0.000 -0.000 -0.001
 H          0.001  0.000 -0.000    0.002  0.000 -0.001    0.000 -0.000 -0.000
 H          0.003 -0.003 -0.000    0.002 -0.002  0.001   -0.030 -0.032 -0.084
 TransDip  -0.124 -0.034 -0.015    0.026 -0.052 -0.116   -0.200 -0.037  0.250

 Mode:                40                     41                     42
 Frequency:      3793.75                3813.80                3815.97
 Force Cnst:      9.0412                 9.1393                 9.1501
 Red. Mass:       1.0662                 1.0665                 1.0665
 IR Active:          YES                    YES                    YES
 IR Intens:      121.154                130.076                132.689
 Raman Active:       YES                    YES                    YES
               X      Y      Z        X      Y      Z        X      Y      Z
 O          0.003 -0.001 -0.005   -0.001  0.000  0.002   -0.000 -0.000  0.000
 C          0.000 -0.000 -0.000    0.000 -0.001 -0.001    0.000 -0.000 -0.000
 O         -0.000 -0.000 -0.000   -0.025 -0.026 -0.051   -0.001 -0.001 -0.001
 C          0.000 -0.000 -0.000    0.000 -0.000  0.000   -0.000  0.000 -0.000
 C          0.000  0.000  0.001    0.000  0.000 -0.000   -0.000 -0.000  0.000
 C         -0.000 -0.001 -0.002   -0.000  0.000  0.000    0.000 -0.001 -0.001
 O          0.001 -0.001 -0.001   -0.001  0.000  0.001    0.039 -0.010 -0.048
 O         -0.020 -0.020 -0.055    0.000  0.000  0.000    0.001  0.000  0.002
 H         -0.051  0.013  0.079    0.019 -0.005 -0.031    0.002 -0.000 -0.003
 H         -0.001  0.000  0.002    0.001 -0.001  0.005    0.000  0.000  0.000
 H          0.003  0.003  0.005    0.380  0.432  0.814    0.011  0.012  0.023
 H          0.001  0.001 -0.001   -0.000  0.000  0.001   -0.000  0.000  0.000
 H         -0.003 -0.001 -0.002    0.000  0.000  0.000   -0.000  0.000  0.001
 H          0.006  0.006  0.014   -0.000  0.000  0.000   -0.001 -0.001  0.004
 H         -0.021  0.006  0.025    0.018 -0.005 -0.022   -0.619  0.173  0.762
 H          0.320  0.334  0.879   -0.001 -0.001 -0.002   -0.010 -0.011 -0.029
 TransDip   0.135  0.042  0.323    0.205  0.095  0.287   -0.242 -0.017  0.278

 STANDARD THERMODYNAMIC QUANTITIES AT   298.15 K  AND     1.00 ATM

   This Molecule has  0 Imaginary Frequencies
   Zero point vibrational energy:       81.614 kcal/mol

   Atom    1 Element O  Has Mass   15.99491
   Atom    2 Element C  Has Mass   12.00000
   Atom    3 Element O  Has Mass   15.99491
   Atom    4 Element C  Has Mass   12.00000
   Atom    5 Element C  Has Mass   12.00000
   Atom    6 Element C  Has Mass   12.00000
   Atom    7 Element O  Has Mass   15.99491
   Atom    8 Element O  Has Mass   15.99491
   Atom    9 Element H  Has Mass    1.00783
   Atom   10 Element H  Has Mass    1.00783
   Atom   11 Element H  Has Mass    1.00783
   Atom   12 Element H  Has Mass    1.00783
   Atom   13 Element H  Has Mass    1.00783
   Atom   14 Element H  Has Mass    1.00783
   Atom   15 Element H  Has Mass    1.00783
   Atom   16 Element H  Has Mass    1.00783
   Molecular Mass:   120.042280 amu
   Principal axes and moments of inertia in amu*Bohr^2:
                             1           2           3
    Eigenvalues --      469.89986  1787.72929  1981.60515
          X               0.96903    -0.20344    -0.14000
          Y               0.24060     0.90557     0.34937
          Z               0.05571    -0.37223     0.92647
   Rotational Symmetry Number is   1
   The Molecule is an Asymmetric Top
   Translational Enthalpy:        0.889 kcal/mol
   Rotational Enthalpy:           0.889 kcal/mol
   Vibrational Enthalpy:         85.641 kcal/mol
   gas constant (RT):             0.592 kcal/mol
   Translational Entropy:        40.262  cal/mol.K
   Rotational Entropy:           28.900  cal/mol.K
   Vibrational Entropy:          26.307  cal/mol.K

   Total Enthalpy:               88.011 kcal/mol
   Total Entropy:                95.469  cal/mol.K
 Total job time:  8602.18s(wall), 103607.97s(cpu) 
 Wed Aug  7 13:01:02 2024

        *************************************************************
        *                                                           *
        *  Thank you very much for using Q-Chem.  Have a nice day.  *
        *                                                           *
        *************************************************************


