
Running Job 1 of 2 Q_in.in
qchem Q_in.in_183740.0 /scratch/ari.fischer/qChem2189865.hpc-mn1/qchem183740/ 0
/usr/local/qchem-5.4.1/exe/qcprog.exe_s Q_in.in_183740.0 /scratch/ari.fischer/qChem2189865.hpc-mn1/qchem183740/
                  Welcome to Q-Chem
     A Quantum Leap Into The Future Of Chemistry


 Q-Chem 5.4, Q-Chem, Inc., Pleasanton, CA (2021)

 License issued to: Nanyang Technological University (site)

 E. Epifanovsky,  A. T. B. Gilbert,  Xintian Feng,  Joonho Lee,  Yuezhi Mao,  
 N. Mardirossian,  P. Pokhilko,  A. White,  M. Wormit,  M. P. Coons,  
 A. L. Dempwolff,  Zhengting Gan,  D. Hait,  P. R. Horn,  L. D. Jacobson,  
 I. Kaliman,  J. Kussmann,  A. W. Lange,  Ka Un Lao,  D. S. Levine,  Jie Liu,  
 S. C. McKenzie,  A. F. Morrison,  K. Nanda,  F. Plasser,  D. R. Rehn,  
 M. L. Vidal,  Zhi-Qiang You,  Ying Zhu,  B. Alam,  B. Albrecht,  
 A. Aldossary,  E. Alguire,  J. H. Andersen,  D. Barton,  K. Begam,  A. Behn,  
 Y. A. Bernard,  E. J. Berquist,  H. Burton,  A. Carreras,  K. Carter-Fenk,  
 R. Chakraborty,  A. D. Chien,  K. D. Closser,  V. Cofer-Shabica,  
 S. Dasgupta,  Jia Deng,  M. de Wergifosse,  M. Diedenhofen,  Hainam Do,  
 S. Ehlert,  Po-Tung Fang,  S. Fatehi,  Qingguo Feng,  T. Friedhoff,  
 J. Gayvert,  Qinghui Ge,  G. Gidofalvi,  M. Goldey,  J. Gomes,  
 C. Gonzalez-Espinoza,  S. Gulania,  A. Gunina,  M. W. D. Hanson-Heine,  
 P. H. P. Harbach,  A. W. Hauser,  M. F. Herbst,  M. Hernandez Vera,  
 M. Hodecker,  Z. C. Holden,  S. Houck,  Xunkun Huang,  Kerwin Hui,  
 B. C. Huynh,  M. Ivanov,  Hyunjun Ji,  Hanjie Jiang,  B. Kaduk,  S. Kaehler,  
 K. Khistyaev,  Jaehoon Kim,  P. Klunzinger,  Z. Koczor-Benda,  
 Joong Hoon Koh,  D. Kosenkov,  L. Koulias,  T. Kowalczyk,  C. M. Krauter,  
 K. Kue,  A. Kunitsa,  T. Kus,  A. Landau,  K. V. Lawler,  D. Lefrancois,  
 S. Lehtola,  Rain Li,  Yi-Pei Li,  Jiashu Liang,  M. Liebenthal,  
 Hung-Hsuan Lin,  You-Sheng Lin,  Fenglai Liu,  Kuan-Yu Liu,  
 M. Loipersberger,  A. Luenser,  A. Manjanath,  P. Manohar,  E. Mansoor,  
 S. F. Manzer,  Shan-Ping Mao,  A. V. Marenich,  T. Markovich,  S. Mason,  
 S. A. Maurer,  P. F. McLaughlin,  M. F. S. J. Menger,  J.-M. Mewes,  
 S. A. Mewes,  P. Morgante,  J. W. Mullinax,  K. J. Oosterbaan,  G. Paran,  
 Alexander C. Paul,  Suranjan K. Paul,  F. Pavosevic,  Zheng Pei,  S. Prager,  
 E. I. Proynov,  E. Ramos,  B. Rana,  A. E. Rask,  A. Rettig,  R. M. Richard,  
 F. Rob,  E. Rossomme,  T. Scheele,  M. Scheurer,  M. Schneider,  
 N. Sergueev,  S. M. Sharada,  W. Skomorowski,  D. W. Small,  C. J. Stein,  
 Yu-Chuan Su,  E. J. Sundstrom,  Zhen Tao,  J. Thirman,  T. Tsuchimochi,  
 N. M. Tubman,  S. P. Veccham,  O. Vydrov,  J. Wenzel,  J. Witte,  A. Yamada,  
 Kun Yao,  S. Yeganeh,  S. R. Yost,  A. Zech,  Igor Ying Zhang,  Xing Zhang,  
 Yu Zhang,  D. Zuev,  A. Aspuru-Guzik,  A. T. Bell,  N. A. Besley,  
 K. B. Bravaya,  B. R. Brooks,  D. Casanova,  Jeng-Da Chai,  S. Coriani,  
 C. J. Cramer,  A. E. DePrince, III,  R. A. DiStasio Jr.,  A. Dreuw,  
 B. D. Dunietz,  T. R. Furlani,  W. A. Goddard III,  S. Grimme,  
 S. Hammes-Schiffer,  T. Head-Gordon,  W. J. Hehre,  Chao-Ping Hsu,  
 T.-C. Jagau,  Yousung Jung,  A. Klamt,  Jing Kong,  D. S. Lambrecht,  
 WanZhen Liang,  N. J. Mayhall,  C. W. McCurdy,  J. B. Neaton,  
 C. Ochsenfeld,  J. A. Parkhill,  R. Peverati,  V. A. Rassolov,  Yihan Shao,  
 L. V. Slipchenko,  T. Stauch,  R. P. Steele,  J. E. Subotnik,  
 A. J. W. Thom,  A. Tkatchenko,  D. G. Truhlar,  T. Van Voorhis,  
 T. A. Wesolowski,  K. B. Whaley,  H. L. Woodcock III,  P. M. Zimmerman,  
 S. Faraji,  P. M. W. Gill,  M. Head-Gordon,  J. M. Herbert,  A. I. Krylov

 Additional authors for Version 5.4.1: 
 S. Kotaru,  Shaozhi Li,  Xiangyuan Li,  F. Matz,  A. Molle,  Haisheng Ren,  
 Yingli Su,  Hung-Yi Tsai,  C. Utku,  Fang Wang

 Contributors to earlier versions of Q-Chem not listed above: 
 R. D. Adamson,  B. Austin,  R. Baer,  J. Baker,  G. J. O. Beran,  
 K. Brandhorst,  S. T. Brown,  E. F. C. Byrd,  A. K. Chakraborty,  
 G. K. L. Chan,  Chun-Min Chang,  Yunqing Chen,  C.-L. Cheng,  
 Siu Hung Chien,  D. M. Chipman,  D. L. Crittenden,  H. Dachsel,  
 R. J. Doerksen,  A. D. Dutoi,  R. G. Edgar,  J. Fosso-Tande,  
 L. Fusti-Molnar,  D. Ghosh,  A. Ghysels,  A. Golubeva-Zadorozhnaya,  
 J. Gonthier,  M. S. Gordon,  S. R. Gwaltney,  G. Hawkins,  J. E. Herr,  
 A. Heyden,  S. Hirata,  E. G. Hohenstein,  G. Kedziora,  F. J. Keil,  
 C. Kelley,  Jihan Kim,  R. A. King,  R. Z. Khaliullin,  P. P. Korambath,  
 W. Kurlancheek,  A. Laurent,  A. M. Lee,  M. S. Lee,  S. V. Levchenko,  
 Ching Yeh Lin,  D. Liotard,  E. Livshits,  R. C. Lochan,  I. Lotan,  
 L. A. Martinez-Martinez,  P. E. Maslen,  N. Nair,  D. P. O'Neill,  
 D. Neuhauser,  E. Neuscamman,  C. M. Oana,  R. Olivares-Amaya,  R. Olson,  
 T. M. Perrine,  B. Peters,  P. A. Pieniazek,  A. Prociuk,  Y. M. Rhee,  
 J. Ritchie,  M. A. Rohrdanz,  E. Rosta,  N. J. Russ,  H. F. Schaefer III,  
 M. W. Schmidt,  N. E. Schultz,  S. Sharma,  N. Shenvi,  C. D. Sherrill,  
 A. C. Simmonett,  A. Sodt,  T. Stein,  D. Stuck,  K. S. Thanthiriwatte,  
 V. Vanovschi,  L. Vogt,  Tao Wang,  A. Warshel,  M. A. Watson,  
 C. F. Williams,  Q. Wu,  X. Xu,  Jun Yang,  W. Zhang,  Yan Zhao

 Please cite Q-Chem as follows:
 Y. Shao et al., Mol. Phys. 113, 184-215 (2015)
 DOI: 10.1080/00268976.2014.952696

 Q-Chem 5.4.1 for Intel X86 EM64T Linux

 Parts of Q-Chem use Armadillo 9.800.1 (Horizon Scraper).
 http://arma.sourceforge.net/

 Q-Chem begins on Wed Jun 26 21:20:58 2024  

 Host: 
0

     Scratch files written to /scratch/ari.fischer/qChem2189865.hpc-mn1/qchem183740//
 Aug1521 |scratch|qcdevops|jenkins|workspace|build_RNUM 8249   
 Processing $rem in /usr/local/qchem-5.4.1/config/preferences:
 Processing $rem in /home/ari.fischer/.qchemrc:
 Symmetry turned off for PCM/SM12/SMD calculation


!!********************************************.
!!******************Warning*******************.
!!Desired Analytical derivatives not available.
!!Finite difference job might take a long time.
!!********************************************.
!!********************************************.


 2-order derivative to be evaluated numerically with 1-order analytical derivatives

 Checking the input file for inconsistencies... 	...done.

--------------------------------------------------------------
User input:
--------------------------------------------------------------
$molecule
0 2
C         2.3972647610   -1.0240579267   -0.9595223924
O         1.1167199182   -0.7251601535   -0.4581781949
C         3.4079000615   -0.5131846219    0.0851089431
O         3.3232732433   -1.3665573599    1.1842192489
C         3.1874949534    0.9144226024    0.4248554521
O         5.2113717940    1.5080434126    1.3926105461
O         5.7009802897    0.7038899268    2.1518282090
H         2.5735033606   -0.5231584511   -1.9090725448
H         0.4804948899   -0.8563955287   -1.1705565924
H         2.6110297792    1.1416126511    1.3077712623
H         3.2775316300    1.6627721946   -0.3466160485
O         2.5579288192   -2.3977826025   -1.1994725731
H         2.5200178429   -2.8583505885   -0.3502684613
O         4.7432353197   -0.7549928100   -0.4268207904
O         4.9865178715    0.1085445944   -1.5330954904
H         3.7498750331   -0.9532661143    1.9450679563
H         5.4640716328    0.8446357755   -1.1214398296
$end

$rem
BASIS = 6-311++G(2df,2p)
GUI = 2
JOB_TYPE = Frequency
METHOD = wB97M-V
SOLVENT_METHOD = SMD
SCF_ALGORITHM = DIIS_GDM
MAX_SCF_CYCLES = 400
SCF_CONVERGENCE = 7
THRESH = 12
$end

--------------------------------------------------------------
 ----------------------------------------------------------------
             Standard Nuclear Orientation (Angstroms)
    I     Atom           X                Y                Z
 ----------------------------------------------------------------
    1      C       2.3972647610    -1.0240579267    -0.9595223924
    2      O       1.1167199182    -0.7251601535    -0.4581781949
    3      C       3.4079000615    -0.5131846219     0.0851089431
    4      O       3.3232732433    -1.3665573599     1.1842192489
    5      C       3.1874949534     0.9144226024     0.4248554521
    6      O       5.2113717940     1.5080434126     1.3926105461
    7      O       5.7009802897     0.7038899268     2.1518282090
    8      H       2.5735033606    -0.5231584511    -1.9090725448
    9      H       0.4804948899    -0.8563955287    -1.1705565924
   10      H       2.6110297792     1.1416126511     1.3077712623
   11      H       3.2775316300     1.6627721946    -0.3466160485
   12      O       2.5579288192    -2.3977826025    -1.1994725731
   13      H       2.5200178429    -2.8583505885    -0.3502684613
   14      O       4.7432353197    -0.7549928100    -0.4268207904
   15      O       4.9865178715     0.1085445944    -1.5330954904
   16      H       3.7498750331    -0.9532661143     1.9450679563
   17      H       5.4640716328     0.8446357755    -1.1214398296
 ----------------------------------------------------------------
 Nuclear Repulsion Energy =         611.73720756 hartrees
 There are       41 alpha and       40 beta electrons
 Requested basis set is 6-311++G(2df,2p)
 There are 122 shells and 410 basis functions

 Total QAlloc Memory Limit 288000 MB
 Mega-Array Size       188 MB
 MEM_STATIC part       192 MB
 
 Citation of the SMD model:
 Marenich, A.V.; Cramer, C.J.; Truhlar, D.G.
 J. Phys. Chem. B 2009, 113, 6378-6396.
 iSolventCode=           1
 Solvent: water                                                           
 
 vradii
            1           2           3           4           5           6
    1   1.8500000   1.5200000   1.8500000   1.5200000   1.8500000   1.5200000
            7           8           9          10          11          12
    1   1.5200000   1.2000000   1.2000000   1.2000000   1.2000000   1.5200000
           13          14          15          16          17
    1   1.2000000   1.5200000   1.5200000   1.2000000   1.2000000
 Changing PCM_VDW_RADII to SMD_RADIUS
 Discretize the solute cavity surface with Lebedev spheres
	Using 110 Lebedev grid points for each H atom
	Using 194 Lebedev grid points for other atoms
	Atomic van der Waals radii will be scaled by 1.20
 Remove points where switching function is < 1.0e-08
 Keep 1451 surface tesserae and discard 1259 interior tesserae
 Molecular Surface Area = 162.858 Angst**2
 A cutoff of  1.0D-12 yielded   6636 shell pairs
 There are     74480 function pairs (     93056 Cartesian)
 Smallest overlap matrix eigenvalue = 1.13E-05
 Guess from superposition of atomic densities
 Warning:  Energy on first SCF cycle will be non-variational
 SAD guess density has 81.000000 electrons

 -----------------------------------------------------------------------
  General SCF calculation program by
  Eric Jon Sundstrom, Paul Horn, Yuezhi Mao, Dmitri Zuev, Alec White,
  David Stuck, Shaama M.S., Shane Yost, Joonho Lee, David Small,
  Daniel Levine, Susi Lehtola, Hugh Burton, Evgeny Epifanovsky,
  Bang C. Huynh
 -----------------------------------------------------------------------
 Exchange:     0.1500 Hartree-Fock + 1.0000 wB97M-V + LR-HF
 Correlation:  1.0000 wB97M-V
 Using SG-2 standard quadrature grid
 Nonlocal Correlation:  VV10 with C = 0.0100 and b = 6.00 and scale = 1.00000
 Grid used for NLC:  SG-1 standard quadrature
 using 16 threads for integral computing
 -------------------------------------------------------
 OpenMP Integral computing Module                
 Release: version 1.0, May 2013, Q-Chem Inc. Pittsburgh 
 -------------------------------------------------------
 
 Citation of the SMD model:
 Marenich, A.V.; Cramer, C.J.; Truhlar, D.G.
 J. Phys. Chem. B 2009, 113, 6378-6396.
 iSolventCode=           1
 Solvent: water                                                           
 
 vradii
            1           2           3           4           5           6
    1   1.8500000   1.5200000   1.8500000   1.5200000   1.8500000   1.5200000
            7           8           9          10          11          12
    1   1.5200000   1.2000000   1.2000000   1.2000000   1.2000000   1.5200000
           13          14          15          16          17
    1   1.2000000   1.5200000   1.5200000   1.2000000   1.2000000
 -------------------------------------------------------
 OpenMP BLAS3 based DFT computing Module                
 Release: version 1.0, May 2013, Q-Chem Inc. Pittsburgh 
 -------------------------------------------------------
 A unrestricted SCF calculation will be
 performed using DIIS, GDM
 SCF converges when RMS gradient is below 1.0e-07
 ---------------------------------------
  Cycle       Energy         DIIS error
 ---------------------------------------
    1    -646.3424490587      1.18e-02  
    2    -644.6909844741      1.57e-03  Done DIIS. Switching to GDM
 ---------------------------------------
  Cycle       Energy        RMS Gradient
 ---------------------------------------
    1    -644.6909844741      6.72e-02   Descent step
    2    -644.8318259223      2.27e-02   Normal BFGS step
    3    -644.8521150102      3.38e-02   Normal BFGS step
    4    -644.8539856083      2.48e-02   Normal BFGS step
    5    -644.8559907370      2.22e-02   Normal BFGS step
    6    -644.8575470821      2.49e-02   Dog-leg BFGS step
    7    -644.8636241547      2.02e-02   Normal BFGS step
    8    -644.8684904528      4.78e-02   Normal BFGS step
    9    -644.8728683855      3.70e-02   Normal BFGS step
   10    -644.8754496687      1.37e-02   Normal BFGS step
   11    -644.8760083073      8.48e-03   Normal BFGS step
   12    -644.8762288260      2.85e-03   Normal BFGS step
   13    -644.8762569465      1.54e-03   Normal BFGS step
   14    -644.8762638487      6.28e-04   Normal BFGS step
   15    -644.8762669084      2.52e-04   Normal BFGS step
   16    -644.8762671964      9.67e-05   Normal BFGS step
   17    -644.8762672639      4.12e-05   Normal BFGS step
   18    -644.8762672735      2.02e-05   Normal BFGS step
   19    -644.8762672766      7.69e-06   Normal BFGS step
   20    -644.8762672773      4.79e-06   Normal BFGS step
   21    -644.8762672775      2.43e-06   Normal BFGS step
   22    -644.8762672775      1.45e-06   Normal BFGS step
   23    -644.8762672775      8.38e-07   Normal BFGS step
   24    -644.8762672775      3.14e-07   Normal BFGS step
   25    -644.8762672775      1.17e-07   Normal BFGS step
   26    -644.8762672775      5.16e-08  Convergence criterion met
 ---------------------------------------
 SCF time:   CPU 2735.60s  wall 187.00s 
<S^2> =          1.521975369
(3)  G-ENP(liq) elect-nuc-pol free energy of system     -644.876267277 a.u.
(4)  G-CDS(liq) cavity-dispersion-solvent structure 
     free energy                                                2.9199 kcal/mol
(6)  G-S(liq) free energy of system                     -644.871614044 a.u.
 SCF   energy in the final basis set =     -644.8716140443
 Total energy in the final basis set =     -644.8716140443
 
 --------------------------------------------------------------
 
                    Orbital Energies (a.u.)
 --------------------------------------------------------------
 
 Alpha MOs
 -- Occupied --
-19.4874 -19.4671 -19.4032 -19.3982 -19.3623 -19.3490 -19.3480 -10.4693
-10.4494 -10.3555  -1.4200  -1.2782  -1.2129  -1.1842  -1.1382  -1.0373
 -0.9532  -0.8798  -0.7959  -0.7352  -0.6902  -0.6668  -0.6612  -0.6539
 -0.6445  -0.6388  -0.6053  -0.5803  -0.5747  -0.5599  -0.5337  -0.5097
 -0.4856  -0.4605  -0.4507  -0.4336  -0.4135  -0.4095  -0.4028  -0.3973
 -0.3914
 -- Virtual --
  0.0114   0.0283   0.0389   0.0467   0.0513   0.0659   0.0700   0.0778
  0.0944   0.1086   0.1228   0.1311   0.1346   0.1412   0.1426   0.1501
  0.1579   0.1714   0.1774   0.1831   0.1929   0.2005   0.2147   0.2197
  0.2268   0.2359   0.2498   0.2567   0.2619   0.2741   0.2799   0.2812
  0.2915   0.2955   0.3030   0.3074   0.3114   0.3221   0.3239   0.3315
  0.3405   0.3515   0.3534   0.3569   0.3656   0.3711   0.3763   0.3809
  0.3873   0.3942   0.4015   0.4129   0.4149   0.4242   0.4399   0.4450
  0.4510   0.4675   0.4691   0.4817   0.4902   0.5021   0.5200   0.5673
  0.5756   0.5949   0.6130   0.6291   0.6425   0.6529   0.6672   0.6767
  0.6912   0.6940   0.7072   0.7284   0.7530   0.7641   0.7722   0.8000
  0.8095   0.8249   0.8507   0.8803   0.8995   0.9097   0.9278   0.9473
  0.9639   0.9923   1.0232   1.0411   1.0497   1.0589   1.0623   1.0733
  1.0950   1.0995   1.1147   1.1251   1.1372   1.1505   1.1647   1.1689
  1.1740   1.1854   1.1977   1.2090   1.2193   1.2212   1.2297   1.2406
  1.2457   1.2656   1.2727   1.2940   1.2966   1.3094   1.3142   1.3416
  1.3425   1.3616   1.3764   1.3997   1.4074   1.4326   1.4434   1.4741
  1.4758   1.4945   1.5041   1.5212   1.5421   1.5464   1.5665   1.5739
  1.5832   1.6135   1.6279   1.6363   1.6634   1.6787   1.6914   1.6997
  1.7169   1.7401   1.7595   1.7968   1.8086   1.8246   1.8432   1.8883
  1.8998   1.9188   1.9461   1.9878   2.0086   2.0188   2.0313   2.0630
  2.1225   2.1319   2.2021   2.2222   2.2636   2.2933   2.3173   2.3295
  2.3538   2.3669   2.3701   2.4009   2.4324   2.4563   2.4679   2.4857
  2.4945   2.5487   2.5630   2.6538   2.6787   2.6914   2.7575   2.8093
  2.8206   2.8420   2.8724   2.8931   2.9467   3.0285   3.0387   3.0644
  3.0947   3.1332   3.1687   3.1835   3.2225   3.2369   3.2705   3.3040
  3.3302   3.3506   3.3936   3.4331   3.4364   3.4745   3.4953   3.5472
  3.5598   3.6159   3.6392   3.6775   3.6795   3.7022   3.7465   3.7681
  3.7785   3.8195   3.8338   3.8388   3.8692   3.8774   3.8963   3.9009
  3.9253   3.9481   3.9699   4.0213   4.0482   4.0885   4.1043   4.1510
  4.2044   4.2223   4.2295   4.2568   4.2698   4.2949   4.3238   4.3526
  4.3686   4.3831   4.4026   4.4156   4.4771   4.5181   4.5457   4.5644
  4.5816   4.6020   4.6164   4.6346   4.6855   4.7295   4.7634   4.8574
  4.9254   4.9383   4.9502   4.9686   5.0061   5.0162   5.0457   5.0815
  5.0977   5.1335   5.1445   5.1638   5.1748   5.2101   5.2218   5.2358
  5.2441   5.2521   5.2768   5.2876   5.2973   5.3113   5.3268   5.3346
  5.3474   5.3760   5.3765   5.3968   5.4161   5.4510   5.4786   5.5078
  5.5186   5.5383   5.5584   5.5956   5.6158   5.6292   5.6408   5.6708
  5.6773   5.7075   5.7217   5.7380   5.7511   5.7567   5.7911   5.8086
  5.8804   5.9639   6.0314   6.0716   6.0943   6.1477   6.1637   6.2458
  6.4956   6.5706   6.7253   6.7562   6.7631   6.7961   6.7972   6.8307
  6.8468   6.8765   6.8969   6.9607   6.9853   7.0223   7.0522   7.0793
  7.0943   7.1051   7.1271   7.1487   7.2475   7.2656   7.2759   7.2975
  7.3075   7.3193   7.3568   7.3586   7.4114   7.4191   7.4201   7.4418
  7.4765   7.4934   7.5778   7.6036   7.6605   7.6931   7.7728   7.8215
  7.8551   7.8667   7.9056   8.0135   8.1159   8.1327   8.1914  24.5666
 24.8046  24.8568  50.4674  50.4967  50.5301  50.5808  50.6232  50.6420
 50.6795
 
 Beta MOs
 -- Occupied --
-19.4591 -19.4399 -19.4040 -19.3982 -19.3624 -19.3494 -19.3483 -10.4685
-10.4502 -10.3675  -1.3681  -1.2791  -1.2136  -1.1846  -1.1389  -1.0382
 -0.8964  -0.8716  -0.8085  -0.7380  -0.6916  -0.6522  -0.6459  -0.6190
 -0.6061  -0.5841  -0.5791  -0.5699  -0.5637  -0.5570  -0.5350  -0.5170
 -0.4879  -0.4622  -0.4515  -0.4349  -0.4159  -0.4111  -0.3981  -0.3118
 -- Virtual --
 -0.0122  -0.0109   0.0284   0.0388   0.0465   0.0496   0.0659   0.0702
  0.0776   0.0951   0.1074   0.1227   0.1321   0.1351   0.1410   0.1428
  0.1499   0.1581   0.1716   0.1782   0.1818   0.1941   0.2012   0.2152
  0.2184   0.2275   0.2378   0.2497   0.2577   0.2628   0.2746   0.2807
  0.2813   0.2920   0.2926   0.3051   0.3087   0.3122   0.3217   0.3237
  0.3310   0.3426   0.3504   0.3532   0.3557   0.3663   0.3713   0.3777
  0.3784   0.3861   0.3937   0.4053   0.4134   0.4238   0.4248   0.4386
  0.4480   0.4498   0.4648   0.4691   0.4810   0.4892   0.5043   0.5207
  0.5648   0.5744   0.5928   0.6110   0.6259   0.6401   0.6479   0.6642
  0.6712   0.6835   0.6911   0.7017   0.7230   0.7506   0.7580   0.7663
  0.7920   0.8066   0.8171   0.8484   0.8768   0.8986   0.9119   0.9258
  0.9420   0.9620   0.9923   1.0219   1.0429   1.0489   1.0601   1.0684
  1.0745   1.0991   1.1096   1.1175   1.1356   1.1433   1.1633   1.1661
  1.1759   1.1789   1.1882   1.2050   1.2127   1.2202   1.2291   1.2401
  1.2442   1.2483   1.2639   1.2719   1.2929   1.2970   1.3117   1.3231
  1.3434   1.3456   1.3635   1.3740   1.3991   1.4232   1.4278   1.4438
  1.4739   1.4817   1.5005   1.5108   1.5230   1.5424   1.5489   1.5709
  1.5775   1.5898   1.6243   1.6311   1.6391   1.6586   1.6802   1.6924
  1.7033   1.7217   1.7465   1.7767   1.8011   1.8115   1.8409   1.8466
  1.8919   1.9083   1.9213   1.9504   1.9876   2.0092   2.0212   2.0366
  2.0640   2.1222   2.1315   2.1997   2.2213   2.2648   2.2909   2.3194
  2.3515   2.3618   2.3777   2.3853   2.4122   2.4311   2.4544   2.4658
  2.4844   2.4951   2.5469   2.5610   2.6616   2.6757   2.6886   2.7436
  2.8007   2.8079   2.8364   2.8565   2.8831   2.9293   2.9967   3.0096
  3.0346   3.0743   3.0859   3.1279   3.1636   3.2062   3.2184   3.2562
  3.2790   3.3077   3.3422   3.3682   3.4145   3.4212   3.4477   3.4766
  3.5087   3.5510   3.5879   3.6258   3.6590   3.6651   3.6955   3.7207
  3.7576   3.7736   3.8092   3.8308   3.8326   3.8654   3.8703   3.8890
  3.8921   3.9217   3.9426   3.9624   4.0150   4.0322   4.0769   4.0911
  4.1416   4.1988   4.2106   4.2159   4.2520   4.2611   4.2883   4.3118
  4.3327   4.3495   4.3693   4.3934   4.4066   4.4695   4.5111   4.5297
  4.5634   4.6151   4.6273   4.6525   4.6610   4.7048   4.7318   4.7623
  4.8560   4.9300   4.9888   4.9947   5.0066   5.0148   5.0461   5.0810
  5.1080   5.1523   5.1790   5.2067   5.2186   5.2272   5.2407   5.2420
  5.2476   5.2553   5.2781   5.2867   5.2883   5.2993   5.3201   5.3266
  5.3448   5.3714   5.3735   5.3775   5.3963   5.4182   5.4500   5.4756
  5.5030   5.5103   5.5338   5.5550   5.5939   5.5982   5.6201   5.6297
  5.6579   5.6754   5.6767   5.7125   5.7368   5.7849   5.8002   5.8067
  5.8096   5.8795   5.9608   6.0299   6.0699   6.0939   6.1456   6.1629
  6.2448   6.4935   6.5723   6.7508   6.7934   6.8454   6.8679   6.8759
  6.8825   6.8963   6.9682   6.9893   7.0197   7.0233   7.0446   7.0814
  7.0828   7.0985   7.1180   7.1472   7.1852   7.2479   7.2649   7.2761
  7.2973   7.3088   7.3191   7.3573   7.4025   7.4121   7.4231   7.4436
  7.4592   7.4811   7.4930   7.5769   7.6034   7.6599   7.6925   7.7719
  7.8211   7.8542   7.8661   7.9047   8.0123   8.1493   8.1703   8.1945
 24.5583  24.8006  24.8554  50.4862  50.4995  50.5512  50.5809  50.6229
 50.6420  50.6794
 --------------------------------------------------------------
 
          Ground-State Mulliken Net Atomic Charges

     Atom                 Charge (a.u.)    Spin (a.u.)
  --------------------------------------------------------
      1 C                    -0.130778      -0.025587
      2 O                    -0.418284      -0.002049
      3 C                     0.379862       0.016855
      4 O                    -0.415878      -0.002231
      5 C                    -0.788225      -0.848431
      6 O                     0.038420       0.948964
      7 O                    -0.014112       0.908981
      8 H                     0.282665       0.000021
      9 H                     0.339270       0.000664
     10 H                     0.287530       0.014978
     11 H                     0.322043       0.013257
     12 O                    -0.449494      -0.006947
     13 H                     0.350061       0.000383
     14 O                    -0.172252      -0.021544
     15 O                    -0.294185       0.001786
     16 H                     0.352455       0.000099
     17 H                     0.330903       0.000801
  --------------------------------------------------------
  Sum of atomic charges =     0.000000
  Sum of spin   charges =     1.000000

 -----------------------------------------------------------------
                    Cartesian Multipole Moments
 -----------------------------------------------------------------
    Charge (ESU x 10^10)
                 0.0000
    Dipole Moment (Debye)
         X      -1.2850      Y       4.3346      Z       1.2099
       Tot       4.6802
    Quadrupole Moments (Debye-Ang)
        XX     -66.1166     XY      19.2127     YY     -60.5119
        XZ       8.8938     YZ      -5.4252     ZZ     -57.0470
    Octopole Moments (Debye-Ang^2)
       XXX    -678.5144    XXY     107.2591    XYY    -217.3697
       YYY      70.9358    XXZ      25.2805    XYZ     -27.3985
       YYZ       8.1634    XZZ    -217.7119    YZZ      29.0854
       ZZZ       7.9839
    Hexadecapole Moments (Debye-Ang^3)
      XXXX   -5526.5536   XXXY     493.5885   XXYY    -994.5991
      XYYY     110.0386   YYYY    -542.4992   XXXZ     -86.3015
      XXYZ    -161.6728   XYYZ     -23.3835   YYYZ    -150.0189
      XXZZ   -1027.3351   XYZZ      49.7852   YYZZ    -204.4001
      XZZZ     -75.2456   YZZZ    -131.7265   ZZZZ    -512.4639
 -----------------------------------------------------------------
 Calculating analytic gradient of the SCF energy
 Gradient of CDS energy
            1           2           3           4           5           6
    1  -0.0017082   0.0021771  -0.0001773   0.0001974  -0.0005246   0.0000768
    2  -0.0027706  -0.0006919  -0.0023608   0.0023873   0.0008240  -0.0000932
    3  -0.0001588  -0.0006375   0.0028682  -0.0031337   0.0000894   0.0001109
            7           8           9          10          11          12
    1   0.0000949   0.0002364  -0.0005080   0.0000311   0.0002795  -0.0003002
    2   0.0001064   0.0000570   0.0000652  -0.0001933  -0.0001088   0.0034224
    3  -0.0000457  -0.0000701  -0.0000793   0.0002020  -0.0001796   0.0006331
           13          14          15          16          17
    1  -0.0000426  -0.0000346  -0.0001930   0.0000212   0.0003740
    2  -0.0004802  -0.0000036  -0.0001893  -0.0002144   0.0002436
    3   0.0001121  -0.0000116   0.0001056   0.0004002  -0.0002053
 Gradient of SCF Energy
            1           2           3           4           5           6
    1  -0.0019648   0.0053419   0.0054515  -0.0056422  -0.0001201  -0.0038007
    2  -0.0017520   0.0011191   0.0113223  -0.0081524  -0.0185235   0.0049512
    3   0.0030677   0.0129034   0.0002697  -0.0105879  -0.0012267  -0.0035834
            7           8           9          10          11          12
    1   0.0034620  -0.0028120  -0.0072969  -0.0037748   0.0034654   0.0047706
    2  -0.0045014   0.0036951  -0.0001411   0.0026069   0.0088384  -0.0025019
    3   0.0038279  -0.0026672  -0.0106283   0.0102671  -0.0084924  -0.0045282
           13          14          15          16          17
    1  -0.0022168   0.0012005  -0.0055785   0.0042045   0.0053103
    2  -0.0008961  -0.0055058  -0.0121309   0.0076843   0.0138878
    3   0.0020230   0.0004345  -0.0083630   0.0110120   0.0062719
 Max gradient component =       1.852E-02
 RMS gradient           =       6.724E-03
 Computing fast CPCM-SWIG gradient
 Updating gradient with PCM contributions...
 -- total gradient after adding PCM contribution --
---------------------------------------------------
  Atom         X              Y              Z     
---------------------------------------------------
   1       0.000001      -0.000010       0.000006
   2       0.000001      -0.000028       0.000013
   3      -0.000002       0.000003      -0.000002
   4       0.000028       0.000001      -0.000005
   5       0.000000       0.000006      -0.000004
   6      -0.000025       0.000025      -0.000006
   7       0.000011       0.000041      -0.000040
   8      -0.000005      -0.000023       0.000003
   9       0.000001      -0.000023       0.000011
  10      -0.000006       0.000004      -0.000010
  11      -0.000018      -0.000002      -0.000016
  12       0.000017      -0.000014       0.000023
  13       0.000012      -0.000011       0.000026
  14       0.000004       0.000005       0.000004
  15      -0.000011      -0.000002      -0.000007
  16      -0.000001       0.000024       0.000019
  17      -0.000007       0.000004      -0.000018
---------------------------------------------------
 Number of fixed atoms: 0
 Gradient time:  CPU 267.35 s  wall 23.51 s
 ######################################################
 ######################################################
 # Starting finite difference calculation for IDERIV  #
 Finite diff step size:  1.88973e-03 a.u.
 ----------------------------------------------------------------
             Standard Nuclear Orientation (Angstroms)
    I     Atom           X                Y                Z
 ----------------------------------------------------------------
    1      C       2.3982647610    -1.0240579267    -0.9595223924
    2      O       1.1167199182    -0.7251601535    -0.4581781949
    3      C       3.4079000615    -0.5131846219     0.0851089431
    4      O       3.3232732433    -1.3665573599     1.1842192489
    5      C       3.1874949534     0.9144226024     0.4248554521
    6      O       5.2113717940     1.5080434126     1.3926105461
    7      O       5.7009802897     0.7038899268     2.1518282090
    8      H       2.5735033606    -0.5231584511    -1.9090725448
    9      H       0.4804948899    -0.8563955287    -1.1705565924
   10      H       2.6110297792     1.1416126511     1.3077712623
   11      H       3.2775316300     1.6627721946    -0.3466160485
   12      O       2.5579288192    -2.3977826025    -1.1994725731
   13      H       2.5200178429    -2.8583505885    -0.3502684613
   14      O       4.7432353197    -0.7549928100    -0.4268207904
   15      O       4.9865178715     0.1085445944    -1.5330954904
   16      H       3.7498750331    -0.9532661143     1.9450679563
   17      H       5.4640716328     0.8446357755    -1.1214398296
 ----------------------------------------------------------------
 Nuclear Repulsion Energy =         611.74363244 hartrees
 There are       41 alpha and       40 beta electrons
 Discretize the solute cavity surface with Lebedev spheres
	Using 110 Lebedev grid points for each H atom
	Using 194 Lebedev grid points for other atoms
	Atomic van der Waals radii will be scaled by 1.20
 Remove points where switching function is < 1.0e-08
 Keep 1450 surface tesserae and discard 1260 interior tesserae
 Molecular Surface Area = 162.857 Angst**2
 Requested basis set is 6-311++G(2df,2p)
 There are 122 shells and 410 basis functions
 A cutoff of  1.0D-12 yielded   6636 shell pairs
 There are     74480 function pairs (     93056 Cartesian)
 Smallest overlap matrix eigenvalue = 1.13E-05
 Guess MOs from SCF MO coefficient file

 -----------------------------------------------------------------------
  General SCF calculation program by
  Eric Jon Sundstrom, Paul Horn, Yuezhi Mao, Dmitri Zuev, Alec White,
  David Stuck, Shaama M.S., Shane Yost, Joonho Lee, David Small,
  Daniel Levine, Susi Lehtola, Hugh Burton, Evgeny Epifanovsky,
  Bang C. Huynh
 -----------------------------------------------------------------------
 Exchange:     0.1500 Hartree-Fock + 1.0000 wB97M-V + LR-HF
 Correlation:  1.0000 wB97M-V
 Using SG-2 standard quadrature grid
 Nonlocal Correlation:  VV10 with C = 0.0100 and b = 6.00 and scale = 1.00000
 Grid used for NLC:  SG-1 standard quadrature
 
 Citation of the SMD model:
 Marenich, A.V.; Cramer, C.J.; Truhlar, D.G.
 J. Phys. Chem. B 2009, 113, 6378-6396.
 iSolventCode=           1
 Solvent: water                                                           
 
 vradii
            1           2           3           4           5           6
    1   1.8500000   1.5200000   1.8500000   1.5200000   1.8500000   1.5200000
            7           8           9          10          11          12
    1   1.5200000   1.2000000   1.2000000   1.2000000   1.2000000   1.5200000
           13          14          15          16          17
    1   1.2000000   1.5200000   1.5200000   1.2000000   1.2000000
 -------------------------------------------------------
 OpenMP BLAS3 based DFT computing Module                
 Release: version 1.0, May 2013, Q-Chem Inc. Pittsburgh 
 -------------------------------------------------------
 A unrestricted SCF calculation will be
 performed using Roothaan-Hall, DIIS, GDM
 SCF converges when RMS gradient is below 1.0e-07
 ---------------------------------------
  Cycle       Energy         DIIS error
 ---------------------------------------
    1    -644.8320212797      2.32e-04  Roothaan Step
 ---------------------------------------
  Cycle       Energy         DIIS error
 ---------------------------------------
    1    -644.8682168648      2.59e-04  
    2    -644.8738669701      2.02e-04  Done DIIS. Switching to GDM
 ---------------------------------------
  Cycle       Energy        RMS Gradient
 ---------------------------------------
    1    -644.8738669701      1.88e-02   Normal BFGS step
    2    -644.8732346235      3.01e-02  Line search: overstep
    3    -644.8760441194      4.76e-03   Normal BFGS step
    4    -644.8761895856      3.46e-03   Normal BFGS step
    5    -644.8762565667      9.20e-04   Normal BFGS step
    6    -644.8762612852      1.53e-04   Normal BFGS step
    7    -644.8762629266      1.49e-04   Normal BFGS step
    8    -644.8762630901      1.30e-04   Normal BFGS step
    9    -644.8762631663      7.55e-05   Normal BFGS step
   10    -644.8762631941      4.12e-05   Normal BFGS step
   11    -644.8762632030      2.24e-05   Normal BFGS step
   12    -644.8762632050      8.88e-06   Normal BFGS step
   13    -644.8762632057      5.09e-06   Normal BFGS step
   14    -644.8762632058      2.59e-06   Normal BFGS step
   15    -644.8762632058      6.52e-07   Normal BFGS step
   16    -644.8762632059      3.23e-07   Normal BFGS step
   17    -644.8762632059      2.44e-07   Normal BFGS step
   18    -644.8762632058      9.15e-08  Convergence criterion met
 ---------------------------------------
 SCF time:   CPU 2007.32s  wall 137.00s 
<S^2> =          1.522035095
(3)  G-ENP(liq) elect-nuc-pol free energy of system     -644.876263206 a.u.
(4)  G-CDS(liq) cavity-dispersion-solvent structure 
     free energy                                                2.9180 kcal/mol
(6)  G-S(liq) free energy of system                     -644.871613022 a.u.
 SCF   energy in the final basis set =     -644.8716130225
 Total energy in the final basis set =     -644.8716130225
 
 --------------------------------------------------------------
 
                    Orbital Energies (a.u.)
 --------------------------------------------------------------
 
 Alpha MOs
 -- Occupied --
-19.4874 -19.4671 -19.4032 -19.3982 -19.3624 -19.3489 -19.3481 -10.4693
-10.4494 -10.3556  -1.4200  -1.2782  -1.2128  -1.1842  -1.1380  -1.0373
 -0.9532  -0.8799  -0.7959  -0.7353  -0.6902  -0.6668  -0.6612  -0.6539
 -0.6445  -0.6388  -0.6053  -0.5802  -0.5747  -0.5598  -0.5336  -0.5098
 -0.4857  -0.4606  -0.4508  -0.4336  -0.4134  -0.4095  -0.4028  -0.3973
 -0.3915
 -- Virtual --
  0.0114   0.0283   0.0389   0.0467   0.0513   0.0659   0.0700   0.0778
  0.0944   0.1086   0.1228   0.1311   0.1346   0.1412   0.1426   0.1501
  0.1580   0.1714   0.1774   0.1831   0.1929   0.2005   0.2147   0.2196
  0.2268   0.2359   0.2498   0.2567   0.2619   0.2741   0.2799   0.2812
  0.2915   0.2954   0.3030   0.3074   0.3114   0.3221   0.3240   0.3315
  0.3405   0.3515   0.3534   0.3569   0.3656   0.3711   0.3763   0.3809
  0.3873   0.3942   0.4015   0.4129   0.4149   0.4242   0.4398   0.4450
  0.4510   0.4675   0.4692   0.4816   0.4902   0.5021   0.5200   0.5674
  0.5756   0.5950   0.6130   0.6291   0.6424   0.6529   0.6672   0.6767
  0.6912   0.6940   0.7072   0.7284   0.7531   0.7641   0.7722   0.8000
  0.8096   0.8249   0.8507   0.8803   0.8995   0.9097   0.9278   0.9473
  0.9639   0.9923   1.0232   1.0411   1.0497   1.0589   1.0624   1.0733
  1.0950   1.0995   1.1147   1.1251   1.1372   1.1505   1.1647   1.1689
  1.1740   1.1853   1.1977   1.2090   1.2193   1.2211   1.2297   1.2406
  1.2457   1.2656   1.2727   1.2940   1.2966   1.3094   1.3142   1.3417
  1.3426   1.3616   1.3764   1.3998   1.4074   1.4326   1.4433   1.4740
  1.4758   1.4946   1.5041   1.5213   1.5422   1.5464   1.5665   1.5739
  1.5833   1.6135   1.6280   1.6363   1.6634   1.6787   1.6914   1.6997
  1.7170   1.7403   1.7594   1.7968   1.8087   1.8246   1.8433   1.8883
  1.8998   1.9189   1.9461   1.9878   2.0087   2.0187   2.0313   2.0630
  2.1225   2.1319   2.2021   2.2221   2.2635   2.2932   2.3172   2.3295
  2.3538   2.3669   2.3700   2.4007   2.4324   2.4563   2.4679   2.4856
  2.4945   2.5486   2.5631   2.6538   2.6787   2.6915   2.7575   2.8092
  2.8205   2.8420   2.8723   2.8933   2.9467   3.0288   3.0386   3.0645
  3.0947   3.1333   3.1686   3.1835   3.2225   3.2369   3.2706   3.3040
  3.3302   3.3503   3.3936   3.4334   3.4364   3.4743   3.4953   3.5472
  3.5595   3.6159   3.6392   3.6774   3.6795   3.7025   3.7463   3.7681
  3.7786   3.8194   3.8338   3.8389   3.8692   3.8775   3.8962   3.9011
  3.9253   3.9478   3.9700   4.0213   4.0484   4.0887   4.1045   4.1512
  4.2044   4.2223   4.2298   4.2570   4.2700   4.2949   4.3238   4.3528
  4.3687   4.3833   4.4026   4.4157   4.4770   4.5184   4.5458   4.5645
  4.5818   4.6021   4.6164   4.6347   4.6855   4.7296   4.7634   4.8574
  4.9254   4.9383   4.9502   4.9686   5.0062   5.0162   5.0457   5.0815
  5.0979   5.1335   5.1445   5.1638   5.1748   5.2100   5.2218   5.2358
  5.2440   5.2521   5.2768   5.2876   5.2973   5.3113   5.3268   5.3346
  5.3474   5.3762   5.3767   5.3968   5.4164   5.4511   5.4786   5.5078
  5.5185   5.5381   5.5583   5.5957   5.6158   5.6291   5.6410   5.6707
  5.6772   5.7073   5.7217   5.7380   5.7511   5.7567   5.7910   5.8085
  5.8802   5.9638   6.0312   6.0714   6.0943   6.1470   6.1625   6.2458
  6.4955   6.5701   6.7252   6.7556   6.7629   6.7960   6.7972   6.8308
  6.8468   6.8765   6.8969   6.9607   6.9853   7.0223   7.0523   7.0793
  7.0943   7.1051   7.1271   7.1487   7.2475   7.2656   7.2758   7.2975
  7.3073   7.3192   7.3567   7.3586   7.4113   7.4191   7.4201   7.4417
  7.4764   7.4934   7.5779   7.6035   7.6605   7.6931   7.7728   7.8215
  7.8550   7.8667   7.9054   8.0135   8.1159   8.1327   8.1915  24.5666
 24.8040  24.8574  50.4674  50.4967  50.5301  50.5808  50.6229  50.6420
 50.6794
 
 Beta MOs
 -- Occupied --
-19.4591 -19.4399 -19.4040 -19.3982 -19.3624 -19.3493 -19.3484 -10.4686
-10.4502 -10.3675  -1.3681  -1.2791  -1.2135  -1.1846  -1.1388  -1.0382
 -0.8965  -0.8716  -0.8085  -0.7380  -0.6915  -0.6522  -0.6460  -0.6190
 -0.6061  -0.5840  -0.5790  -0.5699  -0.5636  -0.5570  -0.5350  -0.5170
 -0.4879  -0.4623  -0.4515  -0.4349  -0.4158  -0.4111  -0.3981  -0.3118
 -- Virtual --
 -0.0122  -0.0109   0.0284   0.0388   0.0465   0.0496   0.0659   0.0702
  0.0776   0.0951   0.1074   0.1227   0.1321   0.1351   0.1410   0.1428
  0.1499   0.1581   0.1716   0.1782   0.1818   0.1941   0.2012   0.2152
  0.2183   0.2275   0.2378   0.2497   0.2577   0.2628   0.2746   0.2807
  0.2813   0.2919   0.2925   0.3051   0.3087   0.3122   0.3217   0.3237
  0.3310   0.3426   0.3505   0.3532   0.3557   0.3664   0.3713   0.3777
  0.3784   0.3861   0.3937   0.4053   0.4134   0.4238   0.4248   0.4385
  0.4480   0.4498   0.4648   0.4691   0.4810   0.4892   0.5043   0.5207
  0.5649   0.5744   0.5929   0.6110   0.6259   0.6400   0.6479   0.6642
  0.6712   0.6835   0.6911   0.7017   0.7230   0.7506   0.7580   0.7663
  0.7920   0.8066   0.8171   0.8484   0.8768   0.8986   0.9119   0.9258
  0.9419   0.9620   0.9923   1.0219   1.0429   1.0489   1.0602   1.0684
  1.0745   1.0991   1.1096   1.1175   1.1356   1.1433   1.1633   1.1661
  1.1759   1.1789   1.1882   1.2051   1.2127   1.2202   1.2291   1.2401
  1.2442   1.2483   1.2639   1.2719   1.2929   1.2969   1.3117   1.3231
  1.3435   1.3456   1.3635   1.3740   1.3992   1.4232   1.4279   1.4437
  1.4739   1.4817   1.5005   1.5108   1.5231   1.5425   1.5489   1.5709
  1.5775   1.5899   1.6244   1.6312   1.6391   1.6586   1.6803   1.6925
  1.7033   1.7217   1.7466   1.7767   1.8011   1.8116   1.8411   1.8465
  1.8919   1.9083   1.9214   1.9503   1.9876   2.0092   2.0211   2.0366
  2.0639   2.1222   2.1314   2.1997   2.2212   2.2647   2.2908   2.3193
  2.3515   2.3617   2.3775   2.3853   2.4121   2.4311   2.4545   2.4658
  2.4844   2.4951   2.5468   2.5611   2.6616   2.6757   2.6886   2.7436
  2.8005   2.8080   2.8366   2.8565   2.8831   2.9292   2.9969   3.0096
  3.0347   3.0743   3.0861   3.1278   3.1636   3.2061   3.2184   3.2563
  3.2790   3.3077   3.3420   3.3681   3.4146   3.4214   3.4475   3.4766
  3.5087   3.5507   3.5879   3.6258   3.6589   3.6651   3.6957   3.7206
  3.7576   3.7737   3.8091   3.8309   3.8326   3.8653   3.8704   3.8892
  3.8921   3.9217   3.9423   3.9625   4.0150   4.0324   4.0770   4.0914
  4.1417   4.1987   4.2110   4.2159   4.2523   4.2611   4.2883   4.3118
  4.3328   4.3497   4.3696   4.3935   4.4067   4.4693   4.5114   4.5299
  4.5638   4.6153   4.6274   4.6525   4.6610   4.7048   4.7318   4.7623
  4.8560   4.9300   4.9889   4.9947   5.0066   5.0148   5.0461   5.0813
  5.1080   5.1522   5.1789   5.2067   5.2186   5.2272   5.2407   5.2419
  5.2476   5.2552   5.2781   5.2867   5.2883   5.2993   5.3201   5.3266
  5.3447   5.3715   5.3736   5.3775   5.3963   5.4185   5.4500   5.4756
  5.5028   5.5104   5.5337   5.5550   5.5939   5.5983   5.6201   5.6296
  5.6579   5.6754   5.6766   5.7124   5.7369   5.7848   5.8002   5.8066
  5.8096   5.8793   5.9606   6.0297   6.0697   6.0939   6.1450   6.1617
  6.2448   6.4934   6.5718   6.7500   6.7933   6.8454   6.8679   6.8759
  6.8825   6.8963   6.9682   6.9893   7.0197   7.0233   7.0446   7.0814
  7.0828   7.0985   7.1180   7.1472   7.1852   7.2479   7.2648   7.2760
  7.2974   7.3086   7.3191   7.3572   7.4025   7.4120   7.4231   7.4436
  7.4592   7.4811   7.4930   7.5770   7.6034   7.6599   7.6924   7.7718
  7.8211   7.8541   7.8661   7.9046   8.0123   8.1493   8.1703   8.1945
 24.5583  24.8000  24.8560  50.4862  50.4995  50.5512  50.5809  50.6227
 50.6420  50.6794
 --------------------------------------------------------------
 
          Ground-State Mulliken Net Atomic Charges

     Atom                 Charge (a.u.)    Spin (a.u.)
  --------------------------------------------------------
      1 C                    -0.130994      -0.025513
      2 O                    -0.418806      -0.002057
      3 C                     0.379954       0.016806
      4 O                    -0.415873      -0.002231
      5 C                    -0.788114      -0.848486
      6 O                     0.038449       0.948975
      7 O                    -0.014083       0.909016
      8 H                     0.282885       0.000020
      9 H                     0.339229       0.000660
     10 H                     0.287542       0.014983
     11 H                     0.322065       0.013260
     12 O                    -0.449371      -0.006940
     13 H                     0.350100       0.000382
     14 O                    -0.172231      -0.021562
     15 O                    -0.294133       0.001787
     16 H                     0.352472       0.000100
     17 H                     0.330908       0.000801
  --------------------------------------------------------
  Sum of atomic charges =     0.000000
  Sum of spin   charges =     1.000000

 -----------------------------------------------------------------
                    Cartesian Multipole Moments
 -----------------------------------------------------------------
    Charge (ESU x 10^10)
                 0.0000
    Dipole Moment (Debye)
         X      -1.2777      Y       4.3337      Z       1.2095
       Tot       4.6772
    Quadrupole Moments (Debye-Ang)
        XX     -66.0842     XY      19.2066     YY     -60.5053
        XZ       8.8912     YZ      -5.4223     ZZ     -57.0409
    Octopole Moments (Debye-Ang^2)
       XXX    -678.3925    XXY     107.2420    XYY    -217.3494
       YYY      70.9182    XXZ      25.2793    XYZ     -27.3878
       YYZ       8.1576    XZZ    -217.6910    YZZ      29.0803
       ZZZ       7.9784
    Hexadecapole Moments (Debye-Ang^3)
      XXXX   -5526.0814   XXXY     493.5716   XXYY    -994.5372
      XYYY     110.0103   YYYY    -542.4240   XXXZ     -86.2475
      XXYZ    -161.6349   XYYZ     -23.3918   YYYZ    -149.9946
      XXZZ   -1027.2567   XYZZ      49.7759   YYZZ    -204.3809
      XZZZ     -75.2402   YZZZ    -131.7138   ZZZZ    -512.4206
 -----------------------------------------------------------------
 Calculating analytic gradient of the SCF energy
 Gradient of CDS energy
            1           2           3           4           5           6
    1  -0.0015194   0.0019945  -0.0001774   0.0001972  -0.0005249   0.0000768
    2  -0.0028431  -0.0006472  -0.0023608   0.0023874   0.0008241  -0.0000932
    3  -0.0002328  -0.0005677   0.0028681  -0.0031336   0.0000893   0.0001109
            7           8           9          10          11          12
    1   0.0000949   0.0002326  -0.0005084   0.0000310   0.0002795  -0.0003013
    2   0.0001064   0.0000592   0.0000654  -0.0001933  -0.0001088   0.0034476
    3  -0.0000457  -0.0000705  -0.0000792   0.0002019  -0.0001796   0.0006375
           13          14          15          16          17
    1  -0.0000428  -0.0000345  -0.0001930   0.0000212   0.0003740
    2  -0.0004800  -0.0000035  -0.0001892  -0.0002144   0.0002436
    3   0.0001122  -0.0000116   0.0001056   0.0004002  -0.0002053
 Gradient of SCF Energy
            1           2           3           4           5           6
    1  -0.0008859   0.0047738   0.0052673  -0.0056449  -0.0001020  -0.0038103
    2  -0.0017360   0.0011695   0.0112882  -0.0081519  -0.0185349   0.0049637
    3   0.0029943   0.0129988   0.0001679  -0.0105876  -0.0012214  -0.0035953
            7           8           9          10          11          12
    1   0.0034679  -0.0029228  -0.0073444  -0.0037747   0.0034674   0.0046508
    2  -0.0045135   0.0036561  -0.0001241   0.0026098   0.0088402  -0.0024860
    3   0.0038383  -0.0026213  -0.0105852   0.0102662  -0.0084937  -0.0045214
           13          14          15          16          17
    1  -0.0022132   0.0011293  -0.0055810   0.0042109   0.0053117
    2  -0.0009041  -0.0055153  -0.0121354   0.0076824   0.0138913
    3   0.0020204   0.0004145  -0.0083668   0.0110177   0.0062745
 Max gradient component =       1.853E-02
 RMS gradient           =       6.710E-03
 Computing fast CPCM-SWIG gradient
 Updating gradient with PCM contributions...
 -- total gradient after adding PCM contribution --
---------------------------------------------------
  Atom         X              Y              Z     
---------------------------------------------------
   1       0.001080       0.000005      -0.000072
   2      -0.000543       0.000025       0.000121
   3      -0.000184      -0.000025      -0.000106
   4       0.000034       0.000001       0.000000
   5       0.000017      -0.000005       0.000001
   6      -0.000031       0.000033      -0.000014
   7       0.000015       0.000033      -0.000034
   8      -0.000115      -0.000061       0.000055
   9      -0.000066      -0.000007       0.000043
  10      -0.000009       0.000007      -0.000010
  11      -0.000019      -0.000001      -0.000016
  12      -0.000094      -0.000007       0.000028
  13       0.000009      -0.000015       0.000025
  14      -0.000071      -0.000006      -0.000014
  15      -0.000013      -0.000003      -0.000009
  16       0.000000       0.000021       0.000020
  17      -0.000008       0.000004      -0.000018
---------------------------------------------------
 Number of fixed atoms: 0
 Gradient time:  CPU 268.56 s  wall 22.56 s
 ----------------------------------------------------------------
             Standard Nuclear Orientation (Angstroms)
    I     Atom           X                Y                Z
 ----------------------------------------------------------------
    1      C       2.3962647610    -1.0240579267    -0.9595223924
    2      O       1.1167199182    -0.7251601535    -0.4581781949
    3      C       3.4079000615    -0.5131846219     0.0851089431
    4      O       3.3232732433    -1.3665573599     1.1842192489
    5      C       3.1874949534     0.9144226024     0.4248554521
    6      O       5.2113717940     1.5080434126     1.3926105461
    7      O       5.7009802897     0.7038899268     2.1518282090
    8      H       2.5735033606    -0.5231584511    -1.9090725448
    9      H       0.4804948899    -0.8563955287    -1.1705565924
   10      H       2.6110297792     1.1416126511     1.3077712623
   11      H       3.2775316300     1.6627721946    -0.3466160485
   12      O       2.5579288192    -2.3977826025    -1.1994725731
   13      H       2.5200178429    -2.8583505885    -0.3502684613
   14      O       4.7432353197    -0.7549928100    -0.4268207904
   15      O       4.9865178715     0.1085445944    -1.5330954904
   16      H       3.7498750331    -0.9532661143     1.9450679563
   17      H       5.4640716328     0.8446357755    -1.1214398296
 ----------------------------------------------------------------
 Nuclear Repulsion Energy =         611.73078990 hartrees
 There are       41 alpha and       40 beta electrons
 Discretize the solute cavity surface with Lebedev spheres
	Using 110 Lebedev grid points for each H atom
	Using 194 Lebedev grid points for other atoms
	Atomic van der Waals radii will be scaled by 1.20
 Remove points where switching function is < 1.0e-08
 Keep 1451 surface tesserae and discard 1259 interior tesserae
 Molecular Surface Area = 162.859 Angst**2
 Requested basis set is 6-311++G(2df,2p)
 There are 122 shells and 410 basis functions
 A cutoff of  1.0D-12 yielded   6636 shell pairs
 There are     74480 function pairs (     93056 Cartesian)
 Smallest overlap matrix eigenvalue = 1.13E-05
 Guess MOs from SCF MO coefficient file

 -----------------------------------------------------------------------
  General SCF calculation program by
  Eric Jon Sundstrom, Paul Horn, Yuezhi Mao, Dmitri Zuev, Alec White,
  David Stuck, Shaama M.S., Shane Yost, Joonho Lee, David Small,
  Daniel Levine, Susi Lehtola, Hugh Burton, Evgeny Epifanovsky,
  Bang C. Huynh
 -----------------------------------------------------------------------
 Exchange:     0.1500 Hartree-Fock + 1.0000 wB97M-V + LR-HF
 Correlation:  1.0000 wB97M-V
 Using SG-2 standard quadrature grid
 Nonlocal Correlation:  VV10 with C = 0.0100 and b = 6.00 and scale = 1.00000
 Grid used for NLC:  SG-1 standard quadrature
 
 Citation of the SMD model:
 Marenich, A.V.; Cramer, C.J.; Truhlar, D.G.
 J. Phys. Chem. B 2009, 113, 6378-6396.
 iSolventCode=           1
 Solvent: water                                                           
 
 vradii
            1           2           3           4           5           6
    1   1.8500000   1.5200000   1.8500000   1.5200000   1.8500000   1.5200000
            7           8           9          10          11          12
    1   1.5200000   1.2000000   1.2000000   1.2000000   1.2000000   1.5200000
           13          14          15          16          17
    1   1.2000000   1.5200000   1.5200000   1.2000000   1.2000000
 -------------------------------------------------------
 OpenMP BLAS3 based DFT computing Module                
 Release: version 1.0, May 2013, Q-Chem Inc. Pittsburgh 
 -------------------------------------------------------
 A unrestricted SCF calculation will be
 performed using Roothaan-Hall, DIIS, GDM
 SCF converges when RMS gradient is below 1.0e-07
 ---------------------------------------
  Cycle       Energy         DIIS error
 ---------------------------------------
    1    -644.8320232550      2.32e-04  Roothaan Step
 ---------------------------------------
  Cycle       Energy         DIIS error
 ---------------------------------------
    1    -644.8682325756      2.58e-04  
    2    -644.8738836856      2.02e-04  Done DIIS. Switching to GDM
 ---------------------------------------
  Cycle       Energy        RMS Gradient
 ---------------------------------------
    1    -644.8738836856      1.88e-02   Normal BFGS step
    2    -644.8732502595      3.02e-02  Line search: overstep
    3    -644.8760506682      4.76e-03   Normal BFGS step
    4    -644.8761963769      3.44e-03   Normal BFGS step
    5    -644.8762630491      9.19e-04   Normal BFGS step
    6    -644.8762677535      1.53e-04   Normal BFGS step
    7    -644.8762693920      1.49e-04   Normal BFGS step
    8    -644.8762695532      1.24e-04   Normal BFGS step
    9    -644.8762696275      7.21e-05   Normal BFGS step
   10    -644.8762696540      4.02e-05   Normal BFGS step
   11    -644.8762696627      2.24e-05   Normal BFGS step
   12    -644.8762696645      8.66e-06   Normal BFGS step
   13    -644.8762696652      5.07e-06   Normal BFGS step
   14    -644.8762696654      2.64e-06   Normal BFGS step
   15    -644.8762696654      6.63e-07   Normal BFGS step
   16    -644.8762696654      3.18e-07   Normal BFGS step
   17    -644.8762696654      2.50e-07   Normal BFGS step
   18    -644.8762696654      9.01e-08  Convergence criterion met
 ---------------------------------------
 SCF time:   CPU 2000.35s  wall 137.00s 
<S^2> =          1.521915474
(3)  G-ENP(liq) elect-nuc-pol free energy of system     -644.876269665 a.u.
(4)  G-CDS(liq) cavity-dispersion-solvent structure 
     free energy                                                2.9221 kcal/mol
(6)  G-S(liq) free energy of system                     -644.871613024 a.u.
 SCF   energy in the final basis set =     -644.8716130244
 Total energy in the final basis set =     -644.8716130244
 
 --------------------------------------------------------------
 
                    Orbital Energies (a.u.)
 --------------------------------------------------------------
 
 Alpha MOs
 -- Occupied --
-19.4874 -19.4670 -19.4032 -19.3982 -19.3623 -19.3491 -19.3480 -10.4692
-10.4494 -10.3555  -1.4200  -1.2782  -1.2130  -1.1843  -1.1383  -1.0372
 -0.9532  -0.8797  -0.7958  -0.7352  -0.6903  -0.6668  -0.6612  -0.6539
 -0.6446  -0.6387  -0.6053  -0.5803  -0.5747  -0.5599  -0.5337  -0.5097
 -0.4856  -0.4605  -0.4507  -0.4336  -0.4136  -0.4094  -0.4028  -0.3973
 -0.3913
 -- Virtual --
  0.0114   0.0283   0.0389   0.0467   0.0513   0.0659   0.0700   0.0778
  0.0944   0.1086   0.1228   0.1311   0.1346   0.1412   0.1425   0.1501
  0.1579   0.1714   0.1774   0.1831   0.1929   0.2005   0.2147   0.2198
  0.2269   0.2358   0.2498   0.2567   0.2619   0.2740   0.2800   0.2813
  0.2915   0.2955   0.3030   0.3073   0.3114   0.3221   0.3239   0.3315
  0.3404   0.3516   0.3533   0.3569   0.3656   0.3712   0.3763   0.3809
  0.3873   0.3943   0.4015   0.4129   0.4149   0.4242   0.4399   0.4450
  0.4510   0.4675   0.4691   0.4817   0.4902   0.5021   0.5200   0.5672
  0.5756   0.5949   0.6130   0.6291   0.6426   0.6529   0.6672   0.6767
  0.6912   0.6940   0.7072   0.7284   0.7530   0.7640   0.7722   0.8000
  0.8095   0.8249   0.8506   0.8803   0.8995   0.9097   0.9278   0.9474
  0.9640   0.9923   1.0232   1.0411   1.0497   1.0588   1.0623   1.0733
  1.0950   1.0995   1.1147   1.1252   1.1372   1.1505   1.1647   1.1689
  1.1740   1.1854   1.1976   1.2090   1.2193   1.2212   1.2297   1.2406
  1.2458   1.2655   1.2728   1.2940   1.2966   1.3094   1.3142   1.3416
  1.3425   1.3615   1.3765   1.3997   1.4074   1.4325   1.4435   1.4741
  1.4758   1.4945   1.5042   1.5212   1.5420   1.5464   1.5664   1.5739
  1.5830   1.6135   1.6278   1.6362   1.6634   1.6788   1.6913   1.6996
  1.7169   1.7400   1.7595   1.7968   1.8085   1.8247   1.8430   1.8882
  1.8997   1.9187   1.9461   1.9878   2.0086   2.0189   2.0313   2.0631
  2.1226   2.1320   2.2021   2.2223   2.2637   2.2933   2.3173   2.3296
  2.3539   2.3669   2.3702   2.4011   2.4324   2.4563   2.4680   2.4857
  2.4944   2.5488   2.5629   2.6538   2.6786   2.6914   2.7575   2.8095
  2.8207   2.8419   2.8724   2.8930   2.9468   3.0282   3.0387   3.0643
  3.0947   3.1331   3.1687   3.1835   3.2225   3.2369   3.2704   3.3040
  3.3303   3.3509   3.3937   3.4328   3.4364   3.4746   3.4953   3.5473
  3.5600   3.6159   3.6391   3.6775   3.6795   3.7019   3.7466   3.7681
  3.7785   3.8196   3.8337   3.8388   3.8692   3.8773   3.8964   3.9007
  3.9253   3.9485   3.9698   4.0213   4.0480   4.0883   4.1041   4.1509
  4.2044   4.2222   4.2293   4.2566   4.2696   4.2949   4.3238   4.3523
  4.3685   4.3829   4.4026   4.4155   4.4772   4.5178   4.5455   4.5643
  4.5813   4.6019   4.6163   4.6346   4.6854   4.7294   4.7634   4.8573
  4.9254   4.9383   4.9502   4.9686   5.0061   5.0163   5.0457   5.0815
  5.0974   5.1335   5.1445   5.1638   5.1748   5.2101   5.2218   5.2358
  5.2442   5.2520   5.2768   5.2875   5.2973   5.3113   5.3268   5.3346
  5.3475   5.3759   5.3764   5.3968   5.4158   5.4510   5.4786   5.5077
  5.5187   5.5384   5.5585   5.5955   5.6158   5.6293   5.6407   5.6709
  5.6773   5.7076   5.7216   5.7380   5.7511   5.7567   5.7913   5.8088
  5.8805   5.9641   6.0316   6.0718   6.0944   6.1483   6.1650   6.2459
  6.4957   6.5711   6.7253   6.7567   6.7633   6.7961   6.7972   6.8307
  6.8468   6.8765   6.8969   6.9607   6.9853   7.0223   7.0522   7.0793
  7.0944   7.1051   7.1272   7.1486   7.2476   7.2657   7.2759   7.2975
  7.3076   7.3193   7.3568   7.3587   7.4115   7.4191   7.4201   7.4418
  7.4766   7.4934   7.5778   7.6036   7.6606   7.6932   7.7729   7.8215
  7.8551   7.8667   7.9057   8.0135   8.1159   8.1327   8.1914  24.5667
 24.8052  24.8563  50.4674  50.4967  50.5301  50.5808  50.6234  50.6419
 50.6795
 
 Beta MOs
 -- Occupied --
-19.4591 -19.4398 -19.4040 -19.3982 -19.3623 -19.3495 -19.3483 -10.4685
-10.4502 -10.3675  -1.3681  -1.2791  -1.2136  -1.1846  -1.1390  -1.0382
 -0.8964  -0.8716  -0.8084  -0.7380  -0.6916  -0.6523  -0.6459  -0.6190
 -0.6061  -0.5841  -0.5791  -0.5699  -0.5637  -0.5570  -0.5350  -0.5169
 -0.4879  -0.4622  -0.4515  -0.4349  -0.4159  -0.4111  -0.3980  -0.3117
 -- Virtual --
 -0.0122  -0.0109   0.0284   0.0388   0.0465   0.0496   0.0659   0.0702
  0.0776   0.0951   0.1074   0.1227   0.1321   0.1351   0.1410   0.1428
  0.1499   0.1581   0.1716   0.1782   0.1818   0.1941   0.2012   0.2152
  0.2185   0.2275   0.2378   0.2498   0.2577   0.2628   0.2746   0.2808
  0.2814   0.2920   0.2926   0.3051   0.3087   0.3122   0.3217   0.3237
  0.3310   0.3426   0.3504   0.3533   0.3556   0.3663   0.3714   0.3777
  0.3785   0.3861   0.3937   0.4053   0.4134   0.4238   0.4248   0.4387
  0.4480   0.4498   0.4648   0.4691   0.4810   0.4892   0.5043   0.5207
  0.5646   0.5744   0.5928   0.6110   0.6259   0.6402   0.6479   0.6642
  0.6712   0.6835   0.6912   0.7017   0.7230   0.7506   0.7579   0.7663
  0.7920   0.8065   0.8171   0.8483   0.8767   0.8986   0.9119   0.9258
  0.9420   0.9621   0.9923   1.0220   1.0429   1.0489   1.0601   1.0684
  1.0746   1.0991   1.1096   1.1175   1.1356   1.1433   1.1633   1.1661
  1.1759   1.1789   1.1882   1.2050   1.2127   1.2202   1.2291   1.2401
  1.2442   1.2483   1.2638   1.2720   1.2929   1.2970   1.3117   1.3231
  1.3433   1.3456   1.3634   1.3741   1.3991   1.4232   1.4277   1.4439
  1.4739   1.4816   1.5006   1.5107   1.5229   1.5424   1.5489   1.5709
  1.5775   1.5896   1.6243   1.6311   1.6391   1.6586   1.6802   1.6924
  1.7032   1.7216   1.7465   1.7767   1.8011   1.8115   1.8407   1.8466
  1.8919   1.9083   1.9212   1.9504   1.9876   2.0091   2.0213   2.0367
  2.0640   2.1222   2.1315   2.1997   2.2215   2.2650   2.2909   2.3195
  2.3516   2.3618   2.3778   2.3853   2.4123   2.4311   2.4544   2.4659
  2.4844   2.4951   2.5470   2.5610   2.6616   2.6756   2.6886   2.7436
  2.8009   2.8079   2.8363   2.8566   2.8831   2.9294   2.9965   3.0097
  3.0345   3.0743   3.0857   3.1280   3.1635   3.2062   3.2184   3.2560
  3.2790   3.3078   3.3424   3.3683   3.4144   3.4210   3.4479   3.4766
  3.5087   3.5513   3.5878   3.6258   3.6590   3.6650   3.6952   3.7208
  3.7576   3.7736   3.8093   3.8307   3.8326   3.8654   3.8701   3.8888
  3.8922   3.9217   3.9429   3.9624   4.0150   4.0321   4.0768   4.0909
  4.1415   4.1988   4.2103   4.2159   4.2517   4.2610   4.2883   4.3118
  4.3327   4.3493   4.3690   4.3933   4.4065   4.4696   4.5108   4.5296
  4.5631   4.6149   4.6273   4.6525   4.6611   4.7047   4.7317   4.7622
  4.8559   4.9300   4.9888   4.9947   5.0066   5.0148   5.0461   5.0807
  5.1080   5.1523   5.1790   5.2068   5.2186   5.2272   5.2407   5.2421
  5.2475   5.2553   5.2781   5.2867   5.2884   5.2993   5.3201   5.3266
  5.3448   5.3712   5.3734   5.3774   5.3963   5.4179   5.4500   5.4756
  5.5031   5.5102   5.5338   5.5551   5.5939   5.5981   5.6200   5.6298
  5.6580   5.6755   5.6767   5.7126   5.7368   5.7850   5.8003   5.8068
  5.8097   5.8796   5.9609   6.0301   6.0700   6.0939   6.1463   6.1642
  6.2449   6.4936   6.5727   6.7516   6.7935   6.8454   6.8679   6.8759
  6.8825   6.8963   6.9682   6.9893   7.0197   7.0233   7.0446   7.0814
  7.0828   7.0985   7.1180   7.1471   7.1852   7.2479   7.2649   7.2761
  7.2973   7.3089   7.3191   7.3573   7.4026   7.4122   7.4231   7.4436
  7.4593   7.4812   7.4930   7.5769   7.6034   7.6599   7.6926   7.7720
  7.8211   7.8542   7.8661   7.9049   8.0123   8.1493   8.1703   8.1945
 24.5584  24.8012  24.8549  50.4862  50.4995  50.5512  50.5810  50.6231
 50.6419  50.6795
 --------------------------------------------------------------
 
          Ground-State Mulliken Net Atomic Charges

     Atom                 Charge (a.u.)    Spin (a.u.)
  --------------------------------------------------------
      1 C                    -0.130565      -0.025662
      2 O                    -0.417762      -0.002041
      3 C                     0.379772       0.016904
      4 O                    -0.415883      -0.002230
      5 C                    -0.788337      -0.848376
      6 O                     0.038390       0.948952
      7 O                    -0.014141       0.908945
      8 H                     0.282446       0.000022
      9 H                     0.339311       0.000668
     10 H                     0.287517       0.014972
     11 H                     0.322021       0.013255
     12 O                    -0.449617      -0.006953
     13 H                     0.350023       0.000384
     14 O                    -0.172273      -0.021526
     15 O                    -0.294238       0.001786
     16 H                     0.352438       0.000099
     17 H                     0.330898       0.000802
  --------------------------------------------------------
  Sum of atomic charges =     0.000000
  Sum of spin   charges =     1.000000

 -----------------------------------------------------------------
                    Cartesian Multipole Moments
 -----------------------------------------------------------------
    Charge (ESU x 10^10)
                 0.0000
    Dipole Moment (Debye)
         X      -1.2922      Y       4.3355      Z       1.2103
       Tot       4.6831
    Quadrupole Moments (Debye-Ang)
        XX     -66.1489     XY      19.2187     YY     -60.5185
        XZ       8.8963     YZ      -5.4281     ZZ     -57.0530
    Octopole Moments (Debye-Ang^2)
       XXX    -678.6363    XXY     107.2762    XYY    -217.3900
       YYY      70.9534    XXZ      25.2817    XYZ     -27.4092
       YYZ       8.1692    XZZ    -217.7329    YZZ      29.0905
       ZZZ       7.9895
    Hexadecapole Moments (Debye-Ang^3)
      XXXX   -5527.0259   XXXY     493.6053   XXYY    -994.6612
      XYYY     110.0669   YYYY    -542.5746   XXXZ     -86.3556
      XXYZ    -161.7108   XYYZ     -23.3751   YYYZ    -150.0433
      XXZZ   -1027.4136   XYZZ      49.7944   YYZZ    -204.4193
      XZZZ     -75.2508   YZZZ    -131.7391   ZZZZ    -512.5073
 -----------------------------------------------------------------
 Calculating analytic gradient of the SCF energy
 Gradient of CDS energy
            1           2           3           4           5           6
    1  -0.0019028   0.0023560  -0.0001772   0.0001977  -0.0005243   0.0000768
    2  -0.0026891  -0.0007400  -0.0023607   0.0023873   0.0008240  -0.0000932
    3  -0.0000945  -0.0006990   0.0028683  -0.0031337   0.0000895   0.0001109
            7           8           9          10          11          12
    1   0.0000949   0.0002496  -0.0005075   0.0000312   0.0002795  -0.0002990
    2   0.0001064   0.0000495   0.0000649  -0.0001932  -0.0001088   0.0033970
    3  -0.0000457  -0.0000683  -0.0000793   0.0002020  -0.0001796   0.0006285
           13          14          15          16          17
    1  -0.0000425  -0.0000346  -0.0001930   0.0000212   0.0003740
    2  -0.0004804  -0.0000037  -0.0001894  -0.0002144   0.0002436
    3   0.0001120  -0.0000117   0.0001055   0.0004002  -0.0002053
 Gradient of SCF Energy
            1           2           3           4           5           6
    1  -0.0030517   0.0059087   0.0056353  -0.0056395  -0.0001382  -0.0037911
    2  -0.0017580   0.0010647   0.0113559  -0.0081529  -0.0185120   0.0049387
    3   0.0031334   0.0128154   0.0003707  -0.0105883  -0.0012320  -0.0035715
            7           8           9          10          11          12
    1   0.0034562  -0.0026916  -0.0072491  -0.0037749   0.0034633   0.0048905
    2  -0.0044893   0.0037290  -0.0001582   0.0026039   0.0088366  -0.0025182
    3   0.0038174  -0.0027119  -0.0106713   0.0102680  -0.0084911  -0.0045352
           13          14          15          16          17
    1  -0.0022204   0.0012715  -0.0055760   0.0041981   0.0053090
    2  -0.0008881  -0.0054962  -0.0121264   0.0076863   0.0138843
    3   0.0020255   0.0004545  -0.0083592   0.0110063   0.0062694
 Max gradient component =       1.851E-02
 RMS gradient           =       6.743E-03
 Computing fast CPCM-SWIG gradient
 Updating gradient with PCM contributions...
 -- total gradient after adding PCM contribution --
---------------------------------------------------
  Atom         X              Y              Z     
---------------------------------------------------
   1      -0.001085      -0.000015       0.000077
   2       0.000543      -0.000085      -0.000087
   3       0.000180       0.000031       0.000101
   4       0.000023       0.000001      -0.000009
   5      -0.000017       0.000016      -0.000008
   6      -0.000018       0.000017       0.000002
   7       0.000008       0.000049      -0.000046
   8       0.000114       0.000010      -0.000047
   9       0.000068      -0.000040      -0.000021
  10      -0.000003       0.000002      -0.000009
  11      -0.000017      -0.000003      -0.000016
  12       0.000129      -0.000021       0.000019
  13       0.000016      -0.000007       0.000027
  14       0.000079       0.000016       0.000022
  15      -0.000010      -0.000002      -0.000004
  16      -0.000003       0.000027       0.000019
  17      -0.000006       0.000004      -0.000018
---------------------------------------------------
 Number of fixed atoms: 0
 Gradient time:  CPU 263.51 s  wall 22.44 s
 ----------------------------------------------------------------
             Standard Nuclear Orientation (Angstroms)
    I     Atom           X                Y                Z
 ----------------------------------------------------------------
    1      C       2.3972647610    -1.0230579267    -0.9595223924
    2      O       1.1167199182    -0.7251601535    -0.4581781949
    3      C       3.4079000615    -0.5131846219     0.0851089431
    4      O       3.3232732433    -1.3665573599     1.1842192489
    5      C       3.1874949534     0.9144226024     0.4248554521
    6      O       5.2113717940     1.5080434126     1.3926105461
    7      O       5.7009802897     0.7038899268     2.1518282090
    8      H       2.5735033606    -0.5231584511    -1.9090725448
    9      H       0.4804948899    -0.8563955287    -1.1705565924
   10      H       2.6110297792     1.1416126511     1.3077712623
   11      H       3.2775316300     1.6627721946    -0.3466160485
   12      O       2.5579288192    -2.3977826025    -1.1994725731
   13      H       2.5200178429    -2.8583505885    -0.3502684613
   14      O       4.7432353197    -0.7549928100    -0.4268207904
   15      O       4.9865178715     0.1085445944    -1.5330954904
   16      H       3.7498750331    -0.9532661143     1.9450679563
   17      H       5.4640716328     0.8446357755    -1.1214398296
 ----------------------------------------------------------------
 Nuclear Repulsion Energy =         611.73566010 hartrees
 There are       41 alpha and       40 beta electrons
 Discretize the solute cavity surface with Lebedev spheres
	Using 110 Lebedev grid points for each H atom
	Using 194 Lebedev grid points for other atoms
	Atomic van der Waals radii will be scaled by 1.20
 Remove points where switching function is < 1.0e-08
 Keep 1450 surface tesserae and discard 1260 interior tesserae
 Molecular Surface Area = 162.857 Angst**2
 Requested basis set is 6-311++G(2df,2p)
 There are 122 shells and 410 basis functions
 A cutoff of  1.0D-12 yielded   6636 shell pairs
 There are     74480 function pairs (     93056 Cartesian)
 Smallest overlap matrix eigenvalue = 1.13E-05
 Guess MOs from SCF MO coefficient file

 -----------------------------------------------------------------------
  General SCF calculation program by
  Eric Jon Sundstrom, Paul Horn, Yuezhi Mao, Dmitri Zuev, Alec White,
  David Stuck, Shaama M.S., Shane Yost, Joonho Lee, David Small,
  Daniel Levine, Susi Lehtola, Hugh Burton, Evgeny Epifanovsky,
  Bang C. Huynh
 -----------------------------------------------------------------------
 Exchange:     0.1500 Hartree-Fock + 1.0000 wB97M-V + LR-HF
 Correlation:  1.0000 wB97M-V
 Using SG-2 standard quadrature grid
 Nonlocal Correlation:  VV10 with C = 0.0100 and b = 6.00 and scale = 1.00000
 Grid used for NLC:  SG-1 standard quadrature
 
 Citation of the SMD model:
 Marenich, A.V.; Cramer, C.J.; Truhlar, D.G.
 J. Phys. Chem. B 2009, 113, 6378-6396.
 iSolventCode=           1
 Solvent: water                                                           
 
 vradii
            1           2           3           4           5           6
    1   1.8500000   1.5200000   1.8500000   1.5200000   1.8500000   1.5200000
            7           8           9          10          11          12
    1   1.5200000   1.2000000   1.2000000   1.2000000   1.2000000   1.5200000
           13          14          15          16          17
    1   1.2000000   1.5200000   1.5200000   1.2000000   1.2000000
 -------------------------------------------------------
 OpenMP BLAS3 based DFT computing Module                
 Release: version 1.0, May 2013, Q-Chem Inc. Pittsburgh 
 -------------------------------------------------------
 A unrestricted SCF calculation will be
 performed using Roothaan-Hall, DIIS, GDM
 SCF converges when RMS gradient is below 1.0e-07
 ---------------------------------------
  Cycle       Energy         DIIS error
 ---------------------------------------
    1    -644.8320092215      2.32e-04  Roothaan Step
 ---------------------------------------
  Cycle       Energy         DIIS error
 ---------------------------------------
    1    -644.8682030817      2.59e-04  
    2    -644.8738575938      2.03e-04  Done DIIS. Switching to GDM
 ---------------------------------------
  Cycle       Energy        RMS Gradient
 ---------------------------------------
    1    -644.8738575938      1.88e-02   Normal BFGS step
    2    -644.8732234313      3.01e-02  Line search: overstep
    3    -644.8760417775      4.77e-03   Normal BFGS step
    4    -644.8761874602      3.47e-03   Normal BFGS step
    5    -644.8762545096      9.24e-04   Normal BFGS step
    6    -644.8762592532      1.53e-04   Normal BFGS step
    7    -644.8762608984      1.49e-04   Normal BFGS step
    8    -644.8762610622      1.29e-04   Normal BFGS step
    9    -644.8762611383      7.55e-05   Normal BFGS step
   10    -644.8762611661      4.13e-05   Normal BFGS step
   11    -644.8762611751      2.24e-05   Normal BFGS step
   12    -644.8762611770      8.90e-06   Normal BFGS step
   13    -644.8762611777      5.10e-06   Normal BFGS step
   14    -644.8762611778      2.60e-06   Normal BFGS step
   15    -644.8762611779      6.56e-07   Normal BFGS step
   16    -644.8762611779      3.23e-07   Normal BFGS step
   17    -644.8762611779      2.44e-07   Normal BFGS step
   18    -644.8762611779      9.18e-08  Convergence criterion met
 ---------------------------------------
 SCF time:   CPU 1968.11s  wall 134.00s 
<S^2> =          1.521985836
(3)  G-ENP(liq) elect-nuc-pol free energy of system     -644.876261178 a.u.
(4)  G-CDS(liq) cavity-dispersion-solvent structure 
     free energy                                                2.9168 kcal/mol
(6)  G-S(liq) free energy of system                     -644.871612955 a.u.
 SCF   energy in the final basis set =     -644.8716129551
 Total energy in the final basis set =     -644.8716129551
 
 --------------------------------------------------------------
 
                    Orbital Energies (a.u.)
 --------------------------------------------------------------
 
 Alpha MOs
 -- Occupied --
-19.4874 -19.4671 -19.4033 -19.3982 -19.3624 -19.3491 -19.3479 -10.4693
-10.4494 -10.3555  -1.4200  -1.2782  -1.2128  -1.1842  -1.1380  -1.0373
 -0.9532  -0.8799  -0.7959  -0.7352  -0.6902  -0.6668  -0.6612  -0.6539
 -0.6446  -0.6387  -0.6053  -0.5803  -0.5747  -0.5599  -0.5336  -0.5098
 -0.4856  -0.4606  -0.4508  -0.4337  -0.4135  -0.4095  -0.4028  -0.3973
 -0.3915
 -- Virtual --
  0.0114   0.0283   0.0389   0.0467   0.0513   0.0659   0.0700   0.0778
  0.0944   0.1086   0.1228   0.1311   0.1346   0.1412   0.1425   0.1501
  0.1580   0.1714   0.1774   0.1831   0.1929   0.2005   0.2147   0.2197
  0.2269   0.2358   0.2498   0.2567   0.2618   0.2740   0.2799   0.2812
  0.2915   0.2954   0.3030   0.3074   0.3114   0.3221   0.3239   0.3315
  0.3405   0.3515   0.3534   0.3569   0.3656   0.3711   0.3763   0.3809
  0.3873   0.3942   0.4015   0.4129   0.4149   0.4242   0.4399   0.4450
  0.4510   0.4676   0.4691   0.4817   0.4902   0.5021   0.5199   0.5673
  0.5756   0.5950   0.6130   0.6291   0.6425   0.6529   0.6671   0.6767
  0.6912   0.6940   0.7073   0.7284   0.7530   0.7641   0.7722   0.8000
  0.8096   0.8249   0.8507   0.8803   0.8996   0.9097   0.9278   0.9473
  0.9639   0.9923   1.0232   1.0411   1.0497   1.0589   1.0624   1.0733
  1.0950   1.0995   1.1147   1.1251   1.1372   1.1506   1.1647   1.1689
  1.1740   1.1854   1.1977   1.2090   1.2193   1.2213   1.2297   1.2406
  1.2458   1.2655   1.2727   1.2940   1.2966   1.3094   1.3142   1.3417
  1.3426   1.3616   1.3764   1.3998   1.4074   1.4326   1.4434   1.4741
  1.4757   1.4945   1.5042   1.5213   1.5421   1.5464   1.5665   1.5739
  1.5832   1.6135   1.6279   1.6363   1.6634   1.6788   1.6913   1.6996
  1.7170   1.7402   1.7595   1.7968   1.8086   1.8246   1.8432   1.8882
  1.8998   1.9187   1.9462   1.9878   2.0086   2.0187   2.0313   2.0630
  2.1225   2.1320   2.2020   2.2219   2.2635   2.2934   2.3173   2.3295
  2.3538   2.3669   2.3701   2.4009   2.4324   2.4560   2.4677   2.4855
  2.4946   2.5486   2.5630   2.6538   2.6786   2.6914   2.7575   2.8093
  2.8204   2.8419   2.8723   2.8931   2.9467   3.0286   3.0387   3.0644
  3.0946   3.1333   3.1687   3.1834   3.2225   3.2368   3.2705   3.3041
  3.3300   3.3504   3.3936   3.4331   3.4364   3.4746   3.4951   3.5472
  3.5599   3.6157   3.6389   3.6774   3.6795   3.7023   3.7466   3.7682
  3.7784   3.8195   3.8339   3.8387   3.8693   3.8773   3.8964   3.9008
  3.9254   3.9481   3.9700   4.0213   4.0484   4.0887   4.1044   4.1509
  4.2045   4.2226   4.2297   4.2569   4.2698   4.2949   4.3238   4.3524
  4.3686   4.3831   4.4027   4.4157   4.4778   4.5182   4.5456   4.5646
  4.5819   4.6021   4.6164   4.6348   4.6855   4.7296   4.7634   4.8574
  4.9254   4.9383   4.9502   4.9686   5.0061   5.0162   5.0457   5.0815
  5.0977   5.1335   5.1445   5.1638   5.1748   5.2100   5.2218   5.2358
  5.2441   5.2521   5.2768   5.2876   5.2973   5.3113   5.3268   5.3346
  5.3474   5.3760   5.3763   5.3968   5.4164   5.4512   5.4785   5.5078
  5.5185   5.5382   5.5586   5.5956   5.6157   5.6292   5.6408   5.6707
  5.6772   5.7076   5.7217   5.7381   5.7511   5.7567   5.7912   5.8084
  5.8804   5.9638   6.0315   6.0708   6.0940   6.1475   6.1621   6.2458
  6.4958   6.5706   6.7251   6.7549   6.7631   6.7961   6.7972   6.8307
  6.8468   6.8765   6.8969   6.9607   6.9853   7.0223   7.0522   7.0793
  7.0943   7.1051   7.1272   7.1487   7.2474   7.2656   7.2758   7.2974
  7.3075   7.3192   7.3567   7.3586   7.4113   7.4190   7.4201   7.4418
  7.4765   7.4934   7.5776   7.6036   7.6603   7.6931   7.7728   7.8216
  7.8551   7.8668   7.9055   8.0135   8.1159   8.1327   8.1914  24.5665
 24.8043  24.8570  50.4674  50.4967  50.5301  50.5807  50.6232  50.6419
 50.6794
 
 Beta MOs
 -- Occupied --
-19.4591 -19.4399 -19.4040 -19.3982 -19.3624 -19.3495 -19.3482 -10.4686
-10.4502 -10.3675  -1.3681  -1.2791  -1.2135  -1.1846  -1.1387  -1.0382
 -0.8965  -0.8716  -0.8085  -0.7380  -0.6916  -0.6523  -0.6459  -0.6190
 -0.6061  -0.5841  -0.5790  -0.5699  -0.5637  -0.5570  -0.5349  -0.5170
 -0.4879  -0.4623  -0.4515  -0.4350  -0.4158  -0.4111  -0.3981  -0.3118
 -- Virtual --
 -0.0122  -0.0109   0.0284   0.0388   0.0465   0.0496   0.0659   0.0702
  0.0776   0.0951   0.1074   0.1227   0.1321   0.1351   0.1410   0.1428
  0.1499   0.1581   0.1716   0.1782   0.1818   0.1941   0.2012   0.2152
  0.2184   0.2275   0.2378   0.2497   0.2577   0.2627   0.2745   0.2807
  0.2814   0.2919   0.2926   0.3051   0.3087   0.3122   0.3217   0.3237
  0.3310   0.3426   0.3505   0.3532   0.3556   0.3663   0.3713   0.3777
  0.3784   0.3861   0.3937   0.4053   0.4134   0.4237   0.4248   0.4386
  0.4480   0.4497   0.4648   0.4690   0.4810   0.4892   0.5043   0.5206
  0.5648   0.5745   0.5929   0.6110   0.6259   0.6401   0.6479   0.6642
  0.6712   0.6835   0.6911   0.7018   0.7230   0.7506   0.7580   0.7663
  0.7920   0.8066   0.8171   0.8483   0.8768   0.8986   0.9119   0.9258
  0.9420   0.9620   0.9922   1.0219   1.0430   1.0489   1.0602   1.0684
  1.0745   1.0991   1.1096   1.1175   1.1356   1.1433   1.1633   1.1660
  1.1759   1.1789   1.1882   1.2050   1.2128   1.2203   1.2291   1.2401
  1.2442   1.2483   1.2638   1.2719   1.2928   1.2970   1.3117   1.3231
  1.3435   1.3456   1.3635   1.3740   1.3991   1.4232   1.4278   1.4438
  1.4739   1.4816   1.5005   1.5108   1.5230   1.5424   1.5489   1.5710
  1.5775   1.5898   1.6244   1.6312   1.6391   1.6586   1.6803   1.6924
  1.7033   1.7217   1.7466   1.7767   1.8011   1.8116   1.8410   1.8465
  1.8919   1.9083   1.9213   1.9505   1.9876   2.0092   2.0211   2.0367
  2.0640   2.1222   2.1315   2.1996   2.2210   2.2648   2.2910   2.3195
  2.3515   2.3617   2.3776   2.3853   2.4122   2.4311   2.4542   2.4656
  2.4843   2.4952   2.5468   2.5611   2.6616   2.6757   2.6886   2.7436
  2.8005   2.8078   2.8364   2.8565   2.8830   2.9293   2.9967   3.0096
  3.0346   3.0742   3.0860   3.1279   3.1636   3.2062   3.2184   3.2561
  3.2791   3.3076   3.3420   3.3681   3.4145   3.4212   3.4478   3.4764
  3.5086   3.5512   3.5878   3.6255   3.6588   3.6651   3.6955   3.7208
  3.7577   3.7736   3.8091   3.8308   3.8327   3.8655   3.8703   3.8889
  3.8922   3.9219   3.9426   3.9626   4.0150   4.0324   4.0771   4.0912
  4.1415   4.1989   4.2109   4.2160   4.2522   4.2611   4.2883   4.3119
  4.3327   4.3495   4.3693   4.3934   4.4067   4.4701   4.5112   4.5297
  4.5639   4.6153   4.6274   4.6525   4.6611   4.7048   4.7318   4.7623
  4.8560   4.9300   4.9889   4.9947   5.0066   5.0148   5.0461   5.0810
  5.1080   5.1523   5.1789   5.2067   5.2186   5.2272   5.2407   5.2420
  5.2476   5.2552   5.2781   5.2867   5.2883   5.2992   5.3201   5.3266
  5.3448   5.3712   5.3734   5.3775   5.3963   5.4185   5.4501   5.4754
  5.5029   5.5103   5.5337   5.5552   5.5939   5.5983   5.6201   5.6297
[...]
     (0,0,2)       -3.00000E-11
 Nucleus-field energy     =     0.0000000012 hartrees
 Requested basis set is 6-311++G(2df,2p)
 There are 122 shells and 410 basis functions
 A cutoff of  1.0D-12 yielded   6750 shell pairs
 There are     75996 function pairs (     95149 Cartesian)
 Smallest overlap matrix eigenvalue = 1.06E-05
 Guess MOs from SCF MO coefficient file

 -----------------------------------------------------------------------
  General SCF calculation program by
  Eric Jon Sundstrom, Paul Horn, Yuezhi Mao, Dmitri Zuev, Alec White,
  David Stuck, Shaama M.S., Shane Yost, Joonho Lee, David Small,
  Daniel Levine, Susi Lehtola, Hugh Burton, Evgeny Epifanovsky,
  Bang C. Huynh
 -----------------------------------------------------------------------
 Exchange:     0.1500 Hartree-Fock + 1.0000 wB97M-V + LR-HF
 Correlation:  1.0000 wB97M-V
 Using SG-2 standard quadrature grid
 Nonlocal Correlation:  VV10 with C = 0.0100 and b = 6.00 and scale = 1.00000
 Grid used for NLC:  SG-1 standard quadrature
 
 Citation of the SMD model:
 Marenich, A.V.; Cramer, C.J.; Truhlar, D.G.
 J. Phys. Chem. B 2009, 113, 6378-6396.
 iSolventCode=           1
 Solvent: water                                                           
 
 vradii
            1           2           3           4           5           6
    1   1.8500000   1.5200000   1.8500000   1.5200000   1.8500000   1.5200000
            7           8           9          10          11          12
    1   1.5200000   1.2000000   1.2000000   1.2000000   1.2000000   1.5200000
           13          14          15          16          17
    1   1.2000000   1.5200000   1.5200000   1.2000000   1.2000000
 -------------------------------------------------------
 OpenMP BLAS3 based DFT computing Module                
 Release: version 1.0, May 2013, Q-Chem Inc. Pittsburgh 
 -------------------------------------------------------
 A unrestricted SCF calculation will be
 performed using Roothaan-Hall, DIIS, GDM
 SCF converges when RMS gradient is below 1.0e-07
 ---------------------------------------
  Cycle       Energy         DIIS error
 ---------------------------------------
    1    -644.8951879074      2.25e-04  Roothaan Step
 ---------------------------------------
  Cycle       Energy         DIIS error
 ---------------------------------------
    1    -644.9310765703      2.53e-04  
    2    -644.9359852528      2.16e-04  Done DIIS. Switching to GDM
 ---------------------------------------
  Cycle       Energy        RMS Gradient
 ---------------------------------------
    1    -644.9359852528      1.49e-02   Normal BFGS step
    2    -644.9351384357      2.46e-02  Line search: overstep
    3    -644.9385197445      3.22e-03   Normal BFGS step
    4    -644.9386663232      1.27e-03   Normal BFGS step
    5    -644.9387162415      7.54e-04   Normal BFGS step
    6    -644.9387209375      2.05e-04   Normal BFGS step
    7    -644.9387221827      2.37e-04   Normal BFGS step
    8    -644.9387224856      1.11e-04   Normal BFGS step
    9    -644.9387226254      7.06e-05   Normal BFGS step
   10    -644.9387226803      5.77e-05   Normal BFGS step
   11    -644.9387226919      5.29e-05   Normal BFGS step
   12    -644.9387227032      3.99e-05   Normal BFGS step
   13    -644.9387227120      2.23e-05   Normal BFGS step
   14    -644.9387227161      9.04e-06   Normal BFGS step
   15    -644.9387227169      3.65e-06   Normal BFGS step
   16    -644.9387227171      1.03e-06   Normal BFGS step
   17    -644.9387227171      4.48e-07   Normal BFGS step
   18    -644.9387227171      1.63e-07   Normal BFGS step
   19    -644.9387227171      8.20e-08  Convergence criterion met
 ---------------------------------------
 SCF time:   CPU 2486.59s  wall 171.00s 
<S^2> =          0.753892619
(3)  G-ENP(liq) elect-nuc-pol free energy of system     -644.938722717 a.u.
(4)  G-CDS(liq) cavity-dispersion-solvent structure 
     free energy                                                2.7316 kcal/mol
(6)  G-S(liq) free energy of system                     -644.934369565 a.u.
 SCF   energy in the final basis set =     -644.9343695654
 Total energy in the final basis set =     -644.9343695654
 
 --------------------------------------------------------------
 
                    Orbital Energies (a.u.)
 --------------------------------------------------------------
 
 Alpha MOs
 -- Occupied --
-19.4743 -19.4266 -19.4110 -19.4028 -19.3634 -19.3517 -19.3495 -10.4759
-10.4535 -10.4120  -1.3542  -1.2857  -1.2167  -1.1878  -1.1403  -1.0473
 -1.0280  -0.8821  -0.8132  -0.7461  -0.7011  -0.6717  -0.6612  -0.6525
 -0.6324  -0.6266  -0.5860  -0.5805  -0.5733  -0.5599  -0.5360  -0.5136
 -0.4901  -0.4660  -0.4547  -0.4362  -0.4228  -0.4182  -0.4155  -0.4042
 -0.3868
 -- Virtual --
  0.0276   0.0376   0.0443   0.0482   0.0652   0.0703   0.0779   0.0936
  0.0961   0.1183   0.1264   0.1288   0.1366   0.1402   0.1462   0.1546
  0.1588   0.1697   0.1767   0.1870   0.1956   0.2047   0.2152   0.2253
  0.2362   0.2463   0.2472   0.2566   0.2639   0.2704   0.2725   0.2849
  0.2870   0.2966   0.3016   0.3120   0.3182   0.3241   0.3302   0.3317
  0.3412   0.3527   0.3576   0.3628   0.3716   0.3737   0.3791   0.3798
  0.3896   0.3975   0.3988   0.4108   0.4186   0.4256   0.4377   0.4432
  0.4511   0.4577   0.4635   0.4772   0.4878   0.5023   0.5303   0.5697
  0.5805   0.5912   0.6151   0.6322   0.6370   0.6391   0.6554   0.6721
  0.6817   0.6889   0.7134   0.7385   0.7485   0.7596   0.7713   0.7886
  0.8026   0.8329   0.8446   0.8700   0.8956   0.9166   0.9347   0.9534
  0.9751   1.0080   1.0220   1.0526   1.0605   1.0787   1.0887   1.1036
  1.1100   1.1206   1.1321   1.1484   1.1529   1.1630   1.1791   1.1853
  1.1857   1.1957   1.2001   1.2064   1.2129   1.2338   1.2444   1.2486
  1.2573   1.2767   1.2865   1.2896   1.3051   1.3241   1.3496   1.3565
  1.3707   1.3931   1.3952   1.4192   1.4374   1.4444   1.4689   1.4777
  1.4882   1.5034   1.5053   1.5237   1.5502   1.5652   1.5724   1.5982
  1.6173   1.6330   1.6569   1.6716   1.6785   1.6941   1.7182   1.7364
  1.7442   1.7575   1.7843   1.8419   1.8611   1.9111   1.9273   1.9475
  1.9544   1.9611   2.0041   2.0116   2.0610   2.0687   2.0901   2.1231
  2.1485   2.1716   2.2169   2.2295   2.2434   2.2954   2.3167   2.3363
  2.3543   2.3653   2.3862   2.4112   2.4458   2.4541   2.4852   2.5013
  2.5483   2.5732   2.5916   2.6704   2.6963   2.7122   2.7943   2.8052
  2.8183   2.8525   2.8708   2.8971   2.9456   3.0083   3.0616   3.1137
  3.1435   3.1850   3.2067   3.2364   3.2608   3.2923   3.3149   3.3614
  3.3831   3.4028   3.4357   3.4543   3.4996   3.5341   3.5535   3.5997
  3.6244   3.6315   3.6555   3.6806   3.7049   3.7300   3.7525   3.7657
  3.7986   3.8275   3.8354   3.8477   3.8685   3.8785   3.8939   3.9267
  3.9361   3.9567   3.9841   4.0163   4.0263   4.0432   4.1085   4.1522
  4.1672   4.1873   4.1995   4.2466   4.2564   4.3051   4.3188   4.3526
  4.3601   4.3761   4.4070   4.4317   4.4546   4.4783   4.5486   4.5718
  4.5888   4.6253   4.6560   4.7130   4.7342   4.7732   4.8501   4.8693
  4.8899   4.9657   5.0231   5.0457   5.0534   5.0834   5.1008   5.1101
  5.1971   5.2009   5.2074   5.2228   5.2273   5.2400   5.2455   5.2805
  5.2866   5.2949   5.3083   5.3172   5.3359   5.3418   5.3614   5.3756
  5.3976   5.4054   5.4198   5.4365   5.4605   5.4874   5.5139   5.5241
  5.5408   5.5647   5.5910   5.5992   5.6166   5.6345   5.6555   5.6735
  5.6973   5.7143   5.7200   5.7690   5.7990   5.8223   5.8614   5.9217
  5.9772   6.0246   6.0638   6.0851   6.1404   6.1611   6.2377   6.4486
  6.4619   6.5090   6.5844   6.5904   6.7538   6.8172   6.8505   6.8805
  6.9138   6.9658   7.0206   7.0402   7.0795   7.0942   7.1134   7.1226
  7.1439   7.2023   7.2243   7.2659   7.2803   7.2958   7.2989   7.3142
  7.3329   7.3663   7.4054   7.4133   7.4183   7.4368   7.4473   7.4885
  7.5174   7.5924   7.6051   7.6590   7.6919   7.7730   7.7844   7.8289
  7.8565   7.8638   7.9079   8.0104   8.0286   8.0757   8.2101  24.6290
 24.7781  24.8523  50.4237  50.4951  50.5417  50.5948  50.6202  50.6427
 50.7018
 
 Beta MOs
 -- Occupied --
-19.4639 -19.4110 -19.4079 -19.4027 -19.3634 -19.3517 -19.3495 -10.4756
-10.4535 -10.4124  -1.3288  -1.2848  -1.2166  -1.1876  -1.1402  -1.0461
 -0.9981  -0.8766  -0.8059  -0.7446  -0.6981  -0.6609  -0.6574  -0.6442
 -0.6214  -0.6084  -0.5799  -0.5744  -0.5585  -0.5484  -0.5353  -0.4909
 -0.4874  -0.4616  -0.4540  -0.4343  -0.4184  -0.4100  -0.4066  -0.3876
 -- Virtual --
 -0.0408   0.0278   0.0377   0.0445   0.0484   0.0655   0.0705   0.0783
  0.0941   0.0970   0.1189   0.1280   0.1294   0.1371   0.1406   0.1471
  0.1565   0.1595   0.1705   0.1770   0.1881   0.1969   0.2074   0.2182
  0.2264   0.2367   0.2482   0.2495   0.2578   0.2645   0.2728   0.2739
  0.2869   0.2893   0.2970   0.3022   0.3150   0.3194   0.3243   0.3317
  0.3323   0.3431   0.3537   0.3580   0.3653   0.3720   0.3748   0.3797
  0.3814   0.3903   0.3981   0.4002   0.4113   0.4196   0.4265   0.4380
  0.4433   0.4517   0.4586   0.4638   0.4783   0.4881   0.5031   0.5318
  0.5701   0.5811   0.5920   0.6153   0.6329   0.6373   0.6393   0.6557
  0.6724   0.6818   0.6896   0.7136   0.7393   0.7487   0.7601   0.7714
  0.7901   0.8032   0.8337   0.8451   0.8704   0.8969   0.9177   0.9353
  0.9540   0.9753   1.0086   1.0250   1.0537   1.0619   1.0796   1.0899
  1.1047   1.1120   1.1231   1.1337   1.1508   1.1587   1.1705   1.1818
  1.1880   1.1913   1.2045   1.2061   1.2106   1.2149   1.2382   1.2476
  1.2582   1.2593   1.2810   1.2879   1.2925   1.3060   1.3251   1.3514
  1.3578   1.3730   1.3958   1.3969   1.4227   1.4402   1.4469   1.4714
  1.4797   1.4907   1.5062   1.5088   1.5307   1.5534   1.5688   1.5759
  1.6001   1.6230   1.6365   1.6592   1.6738   1.6819   1.7040   1.7232
  1.7391   1.7538   1.7666   1.7871   1.8443   1.8628   1.9210   1.9317
  1.9505   1.9553   1.9636   2.0047   2.0139   2.0622   2.0752   2.0920
  2.1237   2.1564   2.1766   2.2228   2.2326   2.2484   2.3046   2.3227
  2.3430   2.3571   2.3692   2.3871   2.4124   2.4462   2.4555   2.4857
  2.5029   2.5514   2.5736   2.5923   2.6759   2.6974   2.7156   2.7956
  2.8069   2.8187   2.8529   2.8711   2.8982   2.9465   3.0088   3.0622
  3.1140   3.1438   3.1860   3.2074   3.2371   3.2611   3.2925   3.3159
  3.3616   3.3831   3.4034   3.4361   3.4548   3.5003   3.5344   3.5540
  3.5998   3.6243   3.6316   3.6558   3.6805   3.7049   3.7303   3.7533
  3.7663   3.7994   3.8274   3.8358   3.8480   3.8690   3.8788   3.8943
  3.9268   3.9364   3.9569   3.9844   4.0166   4.0265   4.0436   4.1088
  4.1526   4.1680   4.1875   4.2001   4.2469   4.2572   4.3053   4.3196
  4.3539   4.3621   4.3768   4.4092   4.4332   4.4556   4.4793   4.5504
  4.5741   4.6063   4.6330   4.6674   4.7142   4.7443   4.7806   4.8543
  4.8834   4.9024   4.9734   5.0306   5.0497   5.0598   5.1362   5.1437
  5.1797   5.2033   5.2209   5.2320   5.2367   5.2418   5.2562   5.2667
  5.2815   5.2924   5.3037   5.3118   5.3261   5.3433   5.3511   5.3666
  5.3809   5.4044   5.4096   5.4224   5.4471   5.4628   5.4887   5.5211
  5.5292   5.5455   5.5652   5.5938   5.5997   5.6178   5.6357   5.6589
  5.6738   5.7058   5.7160   5.7257   5.7739   5.8021   5.8231   5.8757
  5.9244   5.9778   6.0250   6.0643   6.0853   6.1407   6.1613   6.2379
  6.4688   6.4998   6.5118   6.5887   6.5997   6.7540   6.8204   6.8570
  6.9529   6.9771   7.0149   7.0357   7.0519   7.0806   7.0968   7.1247
  7.1433   7.1524   7.2175   7.2460   7.2667   7.2823   7.2993   7.3077
  7.3219   7.3411   7.3819   7.4109   7.4188   7.4334   7.4500   7.4639
  7.4902   7.5294   7.5928   7.6059   7.6592   7.6924   7.7736   7.7938
  7.8308   7.8576   7.8641   7.9081   8.0111   8.0402   8.0966   8.2110
 24.6288  24.7781  24.8524  50.4355  50.4973  50.5489  50.5957  50.6202
 50.6427  50.7021
 --------------------------------------------------------------
 
          Ground-State Mulliken Net Atomic Charges

     Atom                 Charge (a.u.)    Spin (a.u.)
  --------------------------------------------------------
      1 C                    -0.123271       0.004075
      2 O                    -0.415921       0.000218
      3 C                     0.189011      -0.006615
      4 O                    -0.398334       0.002986
      5 C                    -0.482824       0.008035
      6 O                     0.087204       0.308200
      7 O                    -0.217001       0.671816
      8 H                     0.296952       0.000269
      9 H                     0.340414       0.000025
     10 H                     0.276940       0.010133
     11 H                     0.311658       0.000291
     12 O                    -0.450469       0.000520
     13 H                     0.352173       0.000119
     14 O                    -0.159489      -0.002487
     15 O                    -0.275273       0.004215
     16 H                     0.335524      -0.002253
     17 H                     0.332705       0.000454
  --------------------------------------------------------
  Sum of atomic charges =     0.000000
  Sum of spin   charges =     1.000000

 -----------------------------------------------------------------
                    Cartesian Multipole Moments
 -----------------------------------------------------------------
    Charge (ESU x 10^10)
                 0.0000
    Dipole Moment (Debye)
         X      -2.7149      Y       4.0147      Z      -0.0912
       Tot       4.8474
    Quadrupole Moments (Debye-Ang)
        XX     -76.8738     XY      16.5748     YY     -60.1919
        XZ       1.5322     YZ      -6.4581     ZZ     -59.8293
    Octopole Moments (Debye-Ang^2)
       XXX    -740.0258    XXY      89.2358    XYY    -218.9788
       YYY      68.4245    XXZ     -12.9261    XYZ     -33.4070
       YYZ       7.1946    XZZ    -228.1681    YZZ      27.1600
       ZZZ       4.2918
    Hexadecapole Moments (Debye-Ang^3)
      XXXX   -5722.2359   XXXY     415.3970   XXYY    -987.0696
      XYYY     131.8268   YYYY    -508.3223   XXXZ    -245.7079
      XXYZ    -193.9460   XYYZ     -14.8845   YYYZ    -127.9859
      XXZZ   -1048.7196   XYZZ      47.1646   YYZZ    -191.1911
      XZZZ     -56.5828   YZZZ    -120.7920   ZZZZ    -482.1246
 -----------------------------------------------------------------
 Calculating analytic gradient of the SCF energy
 Gradient of CDS energy
            1           2           3           4           5           6
    1  -0.0021800   0.0024758  -0.0002875   0.0002800  -0.0003406   0.0000739
    2  -0.0024745  -0.0007705  -0.0025377   0.0026120   0.0008327  -0.0002143
    3  -0.0000314  -0.0007911   0.0030249  -0.0032662   0.0001548   0.0000616
            7           8           9          10          11          12
    1   0.0000582   0.0002530  -0.0005110  -0.0000421   0.0002156  -0.0001335
    2   0.0001252   0.0000663   0.0000569  -0.0002857  -0.0000953   0.0033150
    3  -0.0000776  -0.0000610  -0.0000625   0.0002095  -0.0002650   0.0006929
           13          14          15          16          17
    1  -0.0000651  -0.0000458  -0.0001903   0.0000509   0.0003886
    2  -0.0004807  -0.0000099  -0.0001897  -0.0002067   0.0002569
    3   0.0000959  -0.0000188   0.0001169   0.0004038  -0.0001866
 Gradient of SCF Energy
            1           2           3           4           5           6
    1  -0.0013752   0.0064088   0.0012347  -0.0033919   0.0134115  -0.0010559
    2  -0.0022784   0.0002255   0.0068095  -0.0044063  -0.0158692   0.0011120
    3   0.0075808   0.0124928  -0.0025337  -0.0065147   0.0044358   0.0015571
            7           8           9          10          11          12
    1   0.0037120  -0.0025307  -0.0090744  -0.0073031  -0.0015325   0.0057327
    2  -0.0013012   0.0054783  -0.0017429   0.0032125   0.0100323  -0.0022721
    3  -0.0017758  -0.0048932  -0.0122635   0.0092300  -0.0109235  -0.0051620
           13          14          15          16          17
    1  -0.0026529  -0.0001478  -0.0058896   0.0002701   0.0041842
    2  -0.0014163  -0.0043022  -0.0114965   0.0046655   0.0135497
    3   0.0028366   0.0008635  -0.0067794   0.0076319   0.0042173
 Max gradient component =       1.587E-02
 RMS gradient           =       6.484E-03
 Computing fast CPCM-SWIG gradient
 Updating gradient with PCM contributions...
 -- total gradient after adding PCM contribution --
---------------------------------------------------
  Atom         X              Y              Z     
---------------------------------------------------
   1       0.000118      -0.000035      -0.000009
   2      -0.000743      -0.000686      -0.000611
   3      -0.000272       0.000711       0.000506
   4      -0.000568       0.000356       0.000177
   5      -0.000481       0.000083      -0.000077
   6       0.001236       0.000097       0.000240
   7       0.001637      -0.001277      -0.000957
   8      -0.000133      -0.000262      -0.000250
   9      -0.000024      -0.001264      -0.000978
  10       0.000709       0.000769       0.000204
  11       0.001015       0.000494       0.000696
  12       0.000601      -0.000424       0.000191
  13       0.000035      -0.000021       0.000142
  14      -0.000282       0.000049       0.000016
  15      -0.000484       0.000344       0.000112
  16      -0.001289       0.000380       0.000299
  17      -0.001076       0.000686       0.000300
---------------------------------------------------
 Number of fixed atoms: 0
 Gradient time:  CPU 339.66 s  wall 28.82 s
rPathMan2.  file_steps = 952
 IRC --- Status = 4.  Checking bisector search.
 IRC --- Bisector search finished successfully.
 ------------------------------------------------------------------------
 Reaction path following.  The coordinates are cartesian              
 Step  24 E=    -644.934370 |G|=  0.004478 S_lin= 1.8316 S_tot= 2.2617
 ------------------------------------------------------------------------
  IRC -- convergence criterion reached.
 ----------------------------------------------------------------
             Standard Nuclear Orientation (Angstroms)
    I     Atom           X                Y                Z
 ----------------------------------------------------------------
    1      C       2.3972647610    -1.0240579267    -0.9595223924
    2      O       1.1167199182    -0.7251601535    -0.4581781949
    3      C       3.4079000615    -0.5131846219     0.0851089431
    4      O       3.3232732433    -1.3665573599     1.1842192489
    5      C       3.1874949534     0.9144226024     0.4248554521
    6      O       5.2113717940     1.5080434126     1.3926105461
    7      O       5.7009802897     0.7038899268     2.1518282090
    8      H       2.5735033606    -0.5231584511    -1.9090725448
    9      H       0.4804948899    -0.8563955287    -1.1705565924
   10      H       2.6110297792     1.1416126511     1.3077712623
   11      H       3.2775316300     1.6627721946    -0.3466160485
   12      O       2.5579288192    -2.3977826025    -1.1994725731
   13      H       2.5200178429    -2.8583505885    -0.3502684613
   14      O       4.7432353197    -0.7549928100    -0.4268207904
   15      O       4.9865178715     0.1085445944    -1.5330954904
   16      H       3.7498750331    -0.9532661143     1.9450679563
   17      H       5.4640716328     0.8446357755    -1.1214398296
 ----------------------------------------------------------------
 Nuclear Repulsion Energy =         611.73720756 hartrees
 There are       41 alpha and       40 beta electrons
 Here is where we should summarize the reaction path
 Total job time:  17531.31s(wall), 248158.11s(cpu) 
 Thu Jun 27 06:45:02 2024

        *************************************************************
        *                                                           *
        *  Thank you very much for using Q-Chem.  Have a nice day.  *
        *                                                           *
        *************************************************************


