
Running Job 1 of 2 Q_in.in
qchem Q_in.in_227925.0 /scratch/ari.fischer/qChem2188627.hpc-mn1/qchem227925/ 0
/usr/local/qchem-5.4.1/exe/qcprog.exe_s Q_in.in_227925.0 /scratch/ari.fischer/qChem2188627.hpc-mn1/qchem227925/
                  Welcome to Q-Chem
     A Quantum Leap Into The Future Of Chemistry


 Q-Chem 5.4, Q-Chem, Inc., Pleasanton, CA (2021)

 License issued to: Nanyang Technological University (site)

 E. Epifanovsky,  A. T. B. Gilbert,  Xintian Feng,  Joonho Lee,  Yuezhi Mao,  
 N. Mardirossian,  P. Pokhilko,  A. White,  M. Wormit,  M. P. Coons,  
 A. L. Dempwolff,  Zhengting Gan,  D. Hait,  P. R. Horn,  L. D. Jacobson,  
 I. Kaliman,  J. Kussmann,  A. W. Lange,  Ka Un Lao,  D. S. Levine,  Jie Liu,  
 S. C. McKenzie,  A. F. Morrison,  K. Nanda,  F. Plasser,  D. R. Rehn,  
 M. L. Vidal,  Zhi-Qiang You,  Ying Zhu,  B. Alam,  B. Albrecht,  
 A. Aldossary,  E. Alguire,  J. H. Andersen,  D. Barton,  K. Begam,  A. Behn,  
 Y. A. Bernard,  E. J. Berquist,  H. Burton,  A. Carreras,  K. Carter-Fenk,  
 R. Chakraborty,  A. D. Chien,  K. D. Closser,  V. Cofer-Shabica,  
 S. Dasgupta,  Jia Deng,  M. de Wergifosse,  M. Diedenhofen,  Hainam Do,  
 S. Ehlert,  Po-Tung Fang,  S. Fatehi,  Qingguo Feng,  T. Friedhoff,  
 J. Gayvert,  Qinghui Ge,  G. Gidofalvi,  M. Goldey,  J. Gomes,  
 C. Gonzalez-Espinoza,  S. Gulania,  A. Gunina,  M. W. D. Hanson-Heine,  
 P. H. P. Harbach,  A. W. Hauser,  M. F. Herbst,  M. Hernandez Vera,  
 M. Hodecker,  Z. C. Holden,  S. Houck,  Xunkun Huang,  Kerwin Hui,  
 B. C. Huynh,  M. Ivanov,  Hyunjun Ji,  Hanjie Jiang,  B. Kaduk,  S. Kaehler,  
 K. Khistyaev,  Jaehoon Kim,  P. Klunzinger,  Z. Koczor-Benda,  
 Joong Hoon Koh,  D. Kosenkov,  L. Koulias,  T. Kowalczyk,  C. M. Krauter,  
 K. Kue,  A. Kunitsa,  T. Kus,  A. Landau,  K. V. Lawler,  D. Lefrancois,  
 S. Lehtola,  Rain Li,  Yi-Pei Li,  Jiashu Liang,  M. Liebenthal,  
 Hung-Hsuan Lin,  You-Sheng Lin,  Fenglai Liu,  Kuan-Yu Liu,  
 M. Loipersberger,  A. Luenser,  A. Manjanath,  P. Manohar,  E. Mansoor,  
 S. F. Manzer,  Shan-Ping Mao,  A. V. Marenich,  T. Markovich,  S. Mason,  
 S. A. Maurer,  P. F. McLaughlin,  M. F. S. J. Menger,  J.-M. Mewes,  
 S. A. Mewes,  P. Morgante,  J. W. Mullinax,  K. J. Oosterbaan,  G. Paran,  
 Alexander C. Paul,  Suranjan K. Paul,  F. Pavosevic,  Zheng Pei,  S. Prager,  
 E. I. Proynov,  E. Ramos,  B. Rana,  A. E. Rask,  A. Rettig,  R. M. Richard,  
 F. Rob,  E. Rossomme,  T. Scheele,  M. Scheurer,  M. Schneider,  
 N. Sergueev,  S. M. Sharada,  W. Skomorowski,  D. W. Small,  C. J. Stein,  
 Yu-Chuan Su,  E. J. Sundstrom,  Zhen Tao,  J. Thirman,  T. Tsuchimochi,  
 N. M. Tubman,  S. P. Veccham,  O. Vydrov,  J. Wenzel,  J. Witte,  A. Yamada,  
 Kun Yao,  S. Yeganeh,  S. R. Yost,  A. Zech,  Igor Ying Zhang,  Xing Zhang,  
 Yu Zhang,  D. Zuev,  A. Aspuru-Guzik,  A. T. Bell,  N. A. Besley,  
 K. B. Bravaya,  B. R. Brooks,  D. Casanova,  Jeng-Da Chai,  S. Coriani,  
 C. J. Cramer,  A. E. DePrince, III,  R. A. DiStasio Jr.,  A. Dreuw,  
 B. D. Dunietz,  T. R. Furlani,  W. A. Goddard III,  S. Grimme,  
 S. Hammes-Schiffer,  T. Head-Gordon,  W. J. Hehre,  Chao-Ping Hsu,  
 T.-C. Jagau,  Yousung Jung,  A. Klamt,  Jing Kong,  D. S. Lambrecht,  
 WanZhen Liang,  N. J. Mayhall,  C. W. McCurdy,  J. B. Neaton,  
 C. Ochsenfeld,  J. A. Parkhill,  R. Peverati,  V. A. Rassolov,  Yihan Shao,  
 L. V. Slipchenko,  T. Stauch,  R. P. Steele,  J. E. Subotnik,  
 A. J. W. Thom,  A. Tkatchenko,  D. G. Truhlar,  T. Van Voorhis,  
 T. A. Wesolowski,  K. B. Whaley,  H. L. Woodcock III,  P. M. Zimmerman,  
 S. Faraji,  P. M. W. Gill,  M. Head-Gordon,  J. M. Herbert,  A. I. Krylov

 Additional authors for Version 5.4.1: 
 S. Kotaru,  Shaozhi Li,  Xiangyuan Li,  F. Matz,  A. Molle,  Haisheng Ren,  
 Yingli Su,  Hung-Yi Tsai,  C. Utku,  Fang Wang

 Contributors to earlier versions of Q-Chem not listed above: 
 R. D. Adamson,  B. Austin,  R. Baer,  J. Baker,  G. J. O. Beran,  
 K. Brandhorst,  S. T. Brown,  E. F. C. Byrd,  A. K. Chakraborty,  
 G. K. L. Chan,  Chun-Min Chang,  Yunqing Chen,  C.-L. Cheng,  
 Siu Hung Chien,  D. M. Chipman,  D. L. Crittenden,  H. Dachsel,  
 R. J. Doerksen,  A. D. Dutoi,  R. G. Edgar,  J. Fosso-Tande,  
 L. Fusti-Molnar,  D. Ghosh,  A. Ghysels,  A. Golubeva-Zadorozhnaya,  
 J. Gonthier,  M. S. Gordon,  S. R. Gwaltney,  G. Hawkins,  J. E. Herr,  
 A. Heyden,  S. Hirata,  E. G. Hohenstein,  G. Kedziora,  F. J. Keil,  
 C. Kelley,  Jihan Kim,  R. A. King,  R. Z. Khaliullin,  P. P. Korambath,  
 W. Kurlancheek,  A. Laurent,  A. M. Lee,  M. S. Lee,  S. V. Levchenko,  
 Ching Yeh Lin,  D. Liotard,  E. Livshits,  R. C. Lochan,  I. Lotan,  
 L. A. Martinez-Martinez,  P. E. Maslen,  N. Nair,  D. P. O'Neill,  
 D. Neuhauser,  E. Neuscamman,  C. M. Oana,  R. Olivares-Amaya,  R. Olson,  
 T. M. Perrine,  B. Peters,  P. A. Pieniazek,  A. Prociuk,  Y. M. Rhee,  
 J. Ritchie,  M. A. Rohrdanz,  E. Rosta,  N. J. Russ,  H. F. Schaefer III,  
 M. W. Schmidt,  N. E. Schultz,  S. Sharma,  N. Shenvi,  C. D. Sherrill,  
 A. C. Simmonett,  A. Sodt,  T. Stein,  D. Stuck,  K. S. Thanthiriwatte,  
 V. Vanovschi,  L. Vogt,  Tao Wang,  A. Warshel,  M. A. Watson,  
 C. F. Williams,  Q. Wu,  X. Xu,  Jun Yang,  W. Zhang,  Yan Zhao

 Please cite Q-Chem as follows:
 Y. Shao et al., Mol. Phys. 113, 184-215 (2015)
 DOI: 10.1080/00268976.2014.952696

 Q-Chem 5.4.1 for Intel X86 EM64T Linux

 Parts of Q-Chem use Armadillo 9.800.1 (Horizon Scraper).
 http://arma.sourceforge.net/

 Q-Chem begins on Wed Jun 26 09:31:20 2024  

 Host: 
0

     Scratch files written to /scratch/ari.fischer/qChem2188627.hpc-mn1/qchem227925//
 Aug1521 |scratch|qcdevops|jenkins|workspace|build_RNUM 8249   
 Processing $rem in /usr/local/qchem-5.4.1/config/preferences:
 Processing $rem in /home/ari.fischer/.qchemrc:
 Symmetry turned off for PCM/SM12/SMD calculation


!!********************************************.
!!******************Warning*******************.
!!Desired Analytical derivatives not available.
!!Finite difference job might take a long time.
!!********************************************.
!!********************************************.


 2-order derivative to be evaluated numerically with 1-order analytical derivatives

 Checking the input file for inconsistencies... 	...done.

--------------------------------------------------------------
User input:
--------------------------------------------------------------
$molecule
0 2
C         2.3825137151   -1.0251152011   -0.9687068454
O         1.0980715746   -0.7272897893   -0.4725354701
C         3.3800881547   -0.4838528504    0.0740321542
O         3.2685245952   -1.3234840588    1.1874058471
C         3.1568714463    0.9521352604    0.3917290330
O         5.2690833387    1.4665558202    1.4567325913
O         5.7505942304    0.5581370234    2.1040776006
H         2.5619758789   -0.5446842788   -1.9344432296
H         0.4655854211   -0.9661241561   -1.1704792301
H         2.5574282084    1.1970461270    1.2603068362
H         3.2929122775    1.7016516577   -0.3782104827
O         2.5682200392   -2.4026981681   -1.1724703857
H         2.5651391503   -2.8122186180   -0.2879644384
O         4.7225839377   -0.7387201778   -0.4109620903
O         4.9891134880    0.1459140162   -1.5066886937
H         3.8227037455   -0.9602606423    1.9000513461
H         5.4578019985    0.8740230359   -1.0554558425
$end

$rem
BASIS = 6-311++G(2df,2p)
GUI = 2
JOB_TYPE = Frequency
METHOD = wB97M-V
SCF_ALGORITHM = DIIS_GDM
MAX_SCF_CYCLES = 400
SCF_CONVERGENCE = 6
THRESH = 11
solvent_method = SMD
$end

--------------------------------------------------------------
 ----------------------------------------------------------------
             Standard Nuclear Orientation (Angstroms)
    I     Atom           X                Y                Z
 ----------------------------------------------------------------
    1      C       2.3825137151    -1.0251152011    -0.9687068454
    2      O       1.0980715746    -0.7272897893    -0.4725354701
    3      C       3.3800881547    -0.4838528504     0.0740321542
    4      O       3.2685245952    -1.3234840588     1.1874058471
    5      C       3.1568714463     0.9521352604     0.3917290330
    6      O       5.2690833387     1.4665558202     1.4567325913
    7      O       5.7505942304     0.5581370234     2.1040776006
    8      H       2.5619758789    -0.5446842788    -1.9344432296
    9      H       0.4655854211    -0.9661241561    -1.1704792301
   10      H       2.5574282084     1.1970461270     1.2603068362
   11      H       3.2929122775     1.7016516577    -0.3782104827
   12      O       2.5682200392    -2.4026981681    -1.1724703857
   13      H       2.5651391503    -2.8122186180    -0.2879644384
   14      O       4.7225839377    -0.7387201778    -0.4109620903
   15      O       4.9891134880     0.1459140162    -1.5066886937
   16      H       3.8227037455    -0.9602606423     1.9000513461
   17      H       5.4578019985     0.8740230359    -1.0554558425
 ----------------------------------------------------------------
 Nuclear Repulsion Energy =         611.25403232 hartrees
 There are       41 alpha and       40 beta electrons
 Requested basis set is 6-311++G(2df,2p)
 There are 122 shells and 410 basis functions

 Total QAlloc Memory Limit 288000 MB
 Mega-Array Size       188 MB
 MEM_STATIC part       192 MB
 
 Citation of the SMD model:
 Marenich, A.V.; Cramer, C.J.; Truhlar, D.G.
 J. Phys. Chem. B 2009, 113, 6378-6396.
 iSolventCode=           1
 Solvent: water                                                           
 
 vradii
            1           2           3           4           5           6
    1   1.8500000   1.5200000   1.8500000   1.5200000   1.8500000   1.5200000
            7           8           9          10          11          12
    1   1.5200000   1.2000000   1.2000000   1.2000000   1.2000000   1.5200000
           13          14          15          16          17
    1   1.2000000   1.5200000   1.5200000   1.2000000   1.2000000
 Changing PCM_VDW_RADII to SMD_RADIUS
 Discretize the solute cavity surface with Lebedev spheres
	Using 110 Lebedev grid points for each H atom
	Using 194 Lebedev grid points for other atoms
	Atomic van der Waals radii will be scaled by 1.20
 Remove points where switching function is < 1.0e-08
 Keep 1451 surface tesserae and discard 1259 interior tesserae
 Molecular Surface Area = 162.573 Angst**2
 A cutoff of  1.0D-11 yielded   6533 shell pairs
 There are     73316 function pairs (     91551 Cartesian)
 Smallest overlap matrix eigenvalue = 1.14E-05
 Guess from superposition of atomic densities
 Warning:  Energy on first SCF cycle will be non-variational
 SAD guess density has 81.000000 electrons

 -----------------------------------------------------------------------
  General SCF calculation program by
  Eric Jon Sundstrom, Paul Horn, Yuezhi Mao, Dmitri Zuev, Alec White,
  David Stuck, Shaama M.S., Shane Yost, Joonho Lee, David Small,
  Daniel Levine, Susi Lehtola, Hugh Burton, Evgeny Epifanovsky,
  Bang C. Huynh
 -----------------------------------------------------------------------
 Exchange:     0.1500 Hartree-Fock + 1.0000 wB97M-V + LR-HF
 Correlation:  1.0000 wB97M-V
 Using SG-2 standard quadrature grid
 Nonlocal Correlation:  VV10 with C = 0.0100 and b = 6.00 and scale = 1.00000
 Grid used for NLC:  SG-1 standard quadrature
 using 16 threads for integral computing
 -------------------------------------------------------
 OpenMP Integral computing Module                
 Release: version 1.0, May 2013, Q-Chem Inc. Pittsburgh 
 -------------------------------------------------------
 
 Citation of the SMD model:
 Marenich, A.V.; Cramer, C.J.; Truhlar, D.G.
 J. Phys. Chem. B 2009, 113, 6378-6396.
 iSolventCode=           1
 Solvent: water                                                           
 
 vradii
            1           2           3           4           5           6
    1   1.8500000   1.5200000   1.8500000   1.5200000   1.8500000   1.5200000
            7           8           9          10          11          12
    1   1.5200000   1.2000000   1.2000000   1.2000000   1.2000000   1.5200000
           13          14          15          16          17
    1   1.2000000   1.5200000   1.5200000   1.2000000   1.2000000
 -------------------------------------------------------
 OpenMP BLAS3 based DFT computing Module                
 Release: version 1.0, May 2013, Q-Chem Inc. Pittsburgh 
 -------------------------------------------------------
 A unrestricted SCF calculation will be
 performed using DIIS, GDM
 SCF converges when RMS gradient is below 1.0e-06
 ---------------------------------------
  Cycle       Energy         DIIS error
 ---------------------------------------
    1    -646.2673288848      1.17e-02  
    2    -644.6850684663      1.56e-03  Done DIIS. Switching to GDM
 ---------------------------------------
  Cycle       Energy        RMS Gradient
 ---------------------------------------
    1    -644.6850684663      6.49e-02   Descent step
    2    -644.8245996565      2.29e-02   Normal BFGS step
    3    -644.8447110023      3.53e-02   Normal BFGS step
    4    -644.8466668581      2.83e-02   Normal BFGS step
    5    -644.8488660732      2.62e-02   Normal BFGS step
    6    -644.8516393168      3.28e-02  Line search: understep
    7    -644.7725853180      2.31e-01  Line search: overstep
    8    -644.8538362894      3.91e-02   Dog-leg BFGS step
    9    -644.8618781346      3.60e-02   Normal BFGS step
   10    -644.8108994572      1.45e-01  Line search: overstep
   11    -644.8651105470      4.18e-02   Normal BFGS step
   12    -644.8705437317      5.84e-02   Normal BFGS step
   13    -644.8743696625      1.73e-02   Normal BFGS step
   14    -644.8750416351      8.63e-03   Normal BFGS step
   15    -644.8753153836      4.25e-03   Normal BFGS step
   16    -644.8754196414      1.84e-03   Normal BFGS step
   17    -644.8754372058      1.69e-03   Normal BFGS step
   18    -644.8754432357      5.08e-04   Normal BFGS step
   19    -644.8754440381      1.31e-04   Normal BFGS step
   20    -644.8754442134      7.22e-05   Normal BFGS step
   21    -644.8754442583      3.54e-05   Normal BFGS step
   22    -644.8754442665      2.62e-05   Normal BFGS step
   23    -644.8754442689      3.87e-06   Normal BFGS step
   24    -644.8754442693      3.68e-06   Normal BFGS step
   25    -644.8754442697      6.91e-07  Convergence criterion met
 ---------------------------------------
 SCF time:   CPU 2752.04s  wall 190.00s 
<S^2> =          1.591938982
(3)  G-ENP(liq) elect-nuc-pol free energy of system     -644.875444270 a.u.
(4)  G-CDS(liq) cavity-dispersion-solvent structure 
     free energy                                                2.8902 kcal/mol
(6)  G-S(liq) free energy of system                     -644.870838493 a.u.
 SCF   energy in the final basis set =     -644.8708384928
 Total energy in the final basis set =     -644.8708384928
 
 --------------------------------------------------------------
 
                    Orbital Energies (a.u.)
 --------------------------------------------------------------
 
 Alpha MOs
 -- Occupied --
-19.4904 -19.4750 -19.4039 -19.3993 -19.3627 -19.3500 -19.3490 -10.4693
-10.4495 -10.3524  -1.4198  -1.2752  -1.2121  -1.1817  -1.1371  -1.0366
 -0.9582  -0.8772  -0.7918  -0.7307  -0.6883  -0.6680  -0.6632  -0.6558
 -0.6415  -0.6372  -0.6043  -0.5777  -0.5740  -0.5577  -0.5347  -0.5066
 -0.4892  -0.4615  -0.4480  -0.4320  -0.4147  -0.4121  -0.4078  -0.4024
 -0.3922
 -- Virtual --
  0.0094   0.0284   0.0388   0.0466   0.0510   0.0660   0.0695   0.0777
  0.0944   0.1082   0.1200   0.1318   0.1348   0.1410   0.1419   0.1494
  0.1582   0.1725   0.1781   0.1838   0.1908   0.1993   0.2133   0.2213
  0.2243   0.2326   0.2488   0.2557   0.2624   0.2730   0.2803   0.2819
  0.2915   0.2938   0.2985   0.3069   0.3112   0.3189   0.3217   0.3307
  0.3382   0.3490   0.3501   0.3560   0.3647   0.3695   0.3741   0.3792
  0.3922   0.3928   0.4024   0.4139   0.4144   0.4239   0.4369   0.4422
  0.4487   0.4661   0.4753   0.4833   0.4902   0.5063   0.5205   0.5659
  0.5810   0.5944   0.6068   0.6286   0.6404   0.6612   0.6685   0.6763
  0.6864   0.6933   0.7044   0.7240   0.7524   0.7603   0.7653   0.7885
  0.8071   0.8279   0.8557   0.8806   0.8980   0.9148   0.9300   0.9403
  0.9584   0.9842   1.0262   1.0339   1.0483   1.0607   1.0633   1.0740
  1.0902   1.0957   1.1077   1.1272   1.1332   1.1440   1.1599   1.1665
  1.1766   1.1825   1.1931   1.1999   1.2169   1.2232   1.2315   1.2363
  1.2541   1.2661   1.2743   1.2956   1.2982   1.3174   1.3225   1.3440
  1.3464   1.3678   1.3806   1.3986   1.4022   1.4302   1.4452   1.4656
  1.4694   1.4765   1.5086   1.5214   1.5380   1.5567   1.5579   1.5712
  1.5790   1.6073   1.6132   1.6368   1.6500   1.6753   1.6933   1.7000
  1.7178   1.7383   1.7519   1.7961   1.8201   1.8304   1.8415   1.8848
  1.8969   1.9283   1.9406   1.9699   1.9969   2.0052   2.0259   2.0629
  2.1140   2.1345   2.2038   2.2169   2.2632   2.2867   2.3125   2.3184
  2.3583   2.3602   2.3714   2.3970   2.4357   2.4580   2.4710   2.4913
  2.4960   2.5578   2.5761   2.6561   2.6735   2.6936   2.7562   2.8070
  2.8213   2.8430   2.8702   2.8967   2.9469   3.0270   3.0386   3.0551
  3.0891   3.1349   3.1660   3.1803   3.2151   3.2313   3.2677   3.2928
  3.3390   3.3456   3.3930   3.4224   3.4385   3.4703   3.4872   3.5270
  3.5504   3.6086   3.6404   3.6728   3.6782   3.7043   3.7480   3.7649
  3.7759   3.8171   3.8394   3.8486   3.8625   3.8767   3.8854   3.8947
  3.9298   3.9415   3.9622   4.0211   4.0334   4.0818   4.1009   4.1468
  4.2014   4.2129   4.2231   4.2478   4.2659   4.2809   4.3232   4.3547
  4.3592   4.3629   4.3981   4.4080   4.4703   4.5126   4.5365   4.5542
  4.5779   4.5997   4.6086   4.6224   4.6610   4.7188   4.7590   4.8531
  4.9199   4.9351   4.9449   4.9562   5.0069   5.0125   5.0466   5.0819
  5.1015   5.1192   5.1404   5.1569   5.1678   5.2060   5.2205   5.2228
  5.2421   5.2465   5.2765   5.2829   5.2969   5.3170   5.3205   5.3319
  5.3440   5.3702   5.3767   5.3955   5.4155   5.4511   5.4770   5.5079
  5.5209   5.5420   5.5536   5.5918   5.6076   5.6189   5.6274   5.6525
  5.6687   5.6965   5.7112   5.7270   5.7319   5.7448   5.7853   5.8046
  5.8705   5.9561   6.0116   6.0408   6.0617   6.1208   6.1602   6.2189
  6.4887   6.5675   6.7149   6.7504   6.7610   6.7735   6.7809   6.8113
  6.8344   6.8504   6.8861   6.9693   6.9719   7.0192   7.0446   7.0721
  7.0766   7.0929   7.1214   7.1545   7.2229   7.2399   7.2553   7.2787
  7.2907   7.3045   7.3433   7.3541   7.4003   7.4124   7.4175   7.4375
  7.4723   7.4902   7.5754   7.5867   7.6446   7.6855   7.7625   7.8223
  7.8559   7.8725   7.9018   8.0082   8.0921   8.1100   8.1997  24.5524
 24.7895  24.8433  50.4580  50.4954  50.5061  50.5803  50.6212  50.6390
 50.6781
 
 Beta MOs
 -- Occupied --
-19.4615 -19.4469 -19.4047 -19.3992 -19.3628 -19.3503 -19.3493 -10.4685
-10.4503 -10.3648  -1.3664  -1.2761  -1.2128  -1.1820  -1.1378  -1.0376
 -0.8936  -0.8741  -0.8060  -0.7338  -0.6898  -0.6491  -0.6425  -0.6177
 -0.6076  -0.5822  -0.5777  -0.5684  -0.5609  -0.5572  -0.5361  -0.5147
 -0.4913  -0.4632  -0.4490  -0.4335  -0.4160  -0.4131  -0.3985  -0.3140
 -- Virtual --
 -0.0159  -0.0150   0.0285   0.0388   0.0463   0.0495   0.0662   0.0697
  0.0775   0.0951   0.1068   0.1199   0.1328   0.1354   0.1405   0.1427
  0.1495   0.1585   0.1729   0.1793   0.1826   0.1927   0.2001   0.2135
  0.2200   0.2254   0.2343   0.2492   0.2566   0.2640   0.2735   0.2799
  0.2829   0.2904   0.2935   0.3025   0.3068   0.3111   0.3205   0.3218
  0.3314   0.3402   0.3464   0.3507   0.3540   0.3645   0.3686   0.3774
  0.3780   0.3911   0.3927   0.4055   0.4138   0.4221   0.4246   0.4360
  0.4433   0.4496   0.4618   0.4754   0.4834   0.4894   0.5076   0.5218
  0.5630   0.5801   0.5925   0.6036   0.6262   0.6384   0.6551   0.6652
  0.6699   0.6785   0.6916   0.6969   0.7201   0.7484   0.7535   0.7578
  0.7802   0.8018   0.8231   0.8537   0.8776   0.8954   0.9168   0.9286
  0.9365   0.9566   0.9847   1.0238   1.0356   1.0501   1.0611   1.0697
  1.0798   1.0931   1.1012   1.1139   1.1311   1.1407   1.1546   1.1688
  1.1748   1.1805   1.1853   1.1984   1.2054   1.2202   1.2250   1.2366
  1.2469   1.2557   1.2638   1.2742   1.2963   1.2989   1.3247   1.3257
  1.3460   1.3481   1.3707   1.3775   1.3981   1.4191   1.4251   1.4467
  1.4687   1.4722   1.4886   1.5077   1.5233   1.5416   1.5543   1.5642
  1.5721   1.5891   1.6117   1.6280   1.6363   1.6476   1.6761   1.6911
  1.7032   1.7197   1.7532   1.7651   1.8037   1.8271   1.8341   1.8461
  1.8922   1.9070   1.9310   1.9447   1.9749   1.9974   2.0061   2.0291
  2.0640   2.1138   2.1345   2.2017   2.2157   2.2634   2.2863   2.3147
  2.3448   2.3672   2.3726   2.3848   2.4058   2.4331   2.4567   2.4686
  2.4918   2.4938   2.5561   2.5733   2.6592   2.6750   2.6917   2.7403
  2.7963   2.8092   2.8347   2.8584   2.8827   2.9312   2.9943   3.0079
  3.0260   3.0647   3.0865   3.1258   3.1591   3.2002   3.2096   3.2514
  3.2646   3.3150   3.3340   3.3664   3.3993   3.4242   3.4407   3.4722
  3.4877   3.5440   3.5819   3.6247   3.6572   3.6614   3.6982   3.7182
  3.7540   3.7681   3.8066   3.8354   3.8471   3.8568   3.8651   3.8754
  3.8905   3.9267   3.9355   3.9540   4.0137   4.0177   4.0714   4.0841
  4.1384   4.1972   4.2034   4.2075   4.2459   4.2533   4.2745   4.3105
  4.3325   4.3372   4.3475   4.3942   4.3964   4.4616   4.5057   4.5164
  4.5580   4.6103   4.6168   4.6486   4.6546   4.6872   4.7172   4.7575
  4.8516   4.9213   4.9792   4.9907   5.0067   5.0140   5.0471   5.0848
  5.1048   5.1522   5.1718   5.2053   5.2172   5.2249   5.2363   5.2383
  5.2405   5.2504   5.2754   5.2808   5.2890   5.2972   5.3197   5.3306
  5.3420   5.3642   5.3691   5.3721   5.3958   5.4133   5.4500   5.4741
  5.5045   5.5082   5.5308   5.5500   5.5877   5.5961   5.6083   5.6246
  5.6365   5.6514   5.6697   5.7090   5.7335   5.7784   5.7856   5.7913
  5.8030   5.8696   5.9530   6.0097   6.0384   6.0612   6.1190   6.1594
  6.2178   6.4868   6.5691   6.7427   6.7826   6.8287   6.8441   6.8550
  6.8675   6.8954   6.9605   6.9894   7.0220   7.0241   7.0382   7.0701
  7.0788   7.0871   7.1168   7.1488   7.1618   7.2240   7.2395   7.2556
  7.2783   7.2907   7.3050   7.3442   7.4006   7.4076   7.4203   7.4383
  7.4476   7.4759   7.4906   7.5747   7.5866   7.6439   7.6848   7.7616
  7.8217   7.8551   7.8719   7.9009   8.0068   8.1217   8.1566   8.1993
 24.5435  24.7854  24.8421  50.4789  50.4965  50.5281  50.5804  50.6209
 50.6389  50.6781
 --------------------------------------------------------------
 
          Ground-State Mulliken Net Atomic Charges

     Atom                 Charge (a.u.)    Spin (a.u.)
  --------------------------------------------------------
      1 C                    -0.118289      -0.027663
      2 O                    -0.420204      -0.002252
      3 C                     0.349146       0.021574
      4 O                    -0.406449      -0.002791
      5 C                    -0.774229      -0.894072
      6 O                     0.044550       0.969179
      7 O                    -0.002093       0.933009
      8 H                     0.276852      -0.000284
      9 H                     0.342400       0.000694
     10 H                     0.282624       0.015309
     11 H                     0.311391       0.012773
     12 O                    -0.447685      -0.007288
     13 H                     0.349045       0.000484
     14 O                    -0.172772      -0.021928
     15 O                    -0.294014       0.002104
     16 H                     0.349783       0.000717
     17 H                     0.329944       0.000436
  --------------------------------------------------------
  Sum of atomic charges =    -0.000000
  Sum of spin   charges =     1.000000

 -----------------------------------------------------------------
                    Cartesian Multipole Moments
 -----------------------------------------------------------------
    Charge (ESU x 10^10)
                -0.0000
    Dipole Moment (Debye)
         X      -0.6606      Y       4.1535      Z       1.3606
       Tot       4.4204
    Quadrupole Moments (Debye-Ang)
        XX     -61.3371     XY      18.9548     YY     -60.2601
        XZ      10.4893     YZ      -4.9692     ZZ     -57.0262
    Octopole Moments (Debye-Ang^2)
       XXX    -648.4758    XXY     106.4359    XYY    -215.1924
       YYY      73.0933    XXZ      36.7689    XYZ     -26.2637
       YYZ       8.7350    XZZ    -215.4548    YZZ      28.4711
       ZZZ       7.0178
    Hexadecapole Moments (Debye-Ang^3)
      XXXX   -5364.7790   XXXY     497.0896   XXYY    -979.5862
      XYYY     116.6242   YYYY    -540.7316   XXXZ     -17.3468
      XXYZ    -152.1043   XYYZ     -20.4297   YYYZ    -146.8013
      XXZZ   -1010.7316   XYZZ      49.9979   YYZZ    -199.3870
      XZZZ     -76.1628   YZZZ    -120.9253   ZZZZ    -503.9543
 -----------------------------------------------------------------
 Calculating analytic gradient of the SCF energy
 Gradient of CDS energy
            1           2           3           4           5           6
    1  -0.0014278   0.0018897  -0.0002005   0.0002069  -0.0004904   0.0001032
    2  -0.0025751  -0.0006140  -0.0020002   0.0020387   0.0008784  -0.0000942
    3  -0.0001927  -0.0004813   0.0024594  -0.0027287   0.0000990   0.0001075
            7           8           9          10          11          12
    1   0.0000887   0.0002707  -0.0005140  -0.0000222   0.0002738  -0.0003297
    2   0.0001046   0.0000380   0.0000266  -0.0002126  -0.0001211   0.0031827
    3  -0.0000494  -0.0000757  -0.0000698   0.0001957  -0.0001737   0.0004953
           13          14          15          16          17
    1  -0.0000234  -0.0000339  -0.0001958   0.0000286   0.0003763
    2  -0.0004737   0.0000009  -0.0001874  -0.0002318   0.0002400
    3   0.0001333  -0.0000135   0.0000923   0.0003955  -0.0001932
 Gradient of SCF Energy
            1           2           3           4           5           6
    1  -0.0044717   0.0080498   0.0055347  -0.0142677   0.0016681  -0.0105464
    2  -0.0043645   0.0067167   0.0111365  -0.0120343  -0.0181391   0.0175792
    3   0.0050349   0.0206124  -0.0012918  -0.0130609   0.0006206  -0.0121763
            7           8           9          10          11          12
    1   0.0092929  -0.0012502  -0.0098489  -0.0055779   0.0040977   0.0065944
    2  -0.0177049   0.0038160  -0.0039951   0.0039039   0.0106979  -0.0023712
    3   0.0112073  -0.0053797  -0.0156042   0.0109503  -0.0100168  -0.0131258
           13          14          15          16          17
    1  -0.0022018   0.0031245  -0.0093878   0.0108937   0.0082966
    2  -0.0008666  -0.0081441  -0.0140009   0.0098433   0.0179274
    3   0.0088869   0.0040824  -0.0168315   0.0141094   0.0119829
 Max gradient component =       2.061E-02
 RMS gradient           =       1.030E-02
 Computing fast CPCM-SWIG gradient
 Updating gradient with PCM contributions...
 -- total gradient after adding PCM contribution --
---------------------------------------------------
  Atom         X              Y              Z     
---------------------------------------------------
   1      -0.002890      -0.002877       0.002702
   2       0.003578       0.003873       0.008364
   3       0.000641       0.000388      -0.001155
   4      -0.006214      -0.005435      -0.003838
   5       0.002724      -0.000454       0.001105
   6      -0.006323       0.010756      -0.008540
   7       0.004878      -0.011767       0.007138
   8       0.001312       0.000791      -0.003059
   9      -0.003067      -0.002502      -0.005741
  10      -0.002322       0.001194       0.002272
  11       0.000016       0.002390      -0.002234
  12       0.002075       0.000544      -0.009057
  13      -0.000337      -0.000098       0.007268
  14       0.001729      -0.002959       0.004261
  15      -0.003617      -0.001809      -0.008055
  16       0.004917       0.003731       0.003840
  17       0.002900       0.004234       0.004728
---------------------------------------------------
 Number of fixed atoms: 0
 Gradient time:  CPU 256.97 s  wall 22.68 s
 ######################################################
 ######################################################
 # Starting finite difference calculation for IDERIV  #
 Finite diff step size:  1.88973e-03 a.u.
 ----------------------------------------------------------------
             Standard Nuclear Orientation (Angstroms)
    I     Atom           X                Y                Z
 ----------------------------------------------------------------
    1      C       2.3835137151    -1.0251152011    -0.9687068454
    2      O       1.0980715746    -0.7272897893    -0.4725354701
    3      C       3.3800881547    -0.4838528504     0.0740321542
    4      O       3.2685245952    -1.3234840588     1.1874058471
    5      C       3.1568714463     0.9521352604     0.3917290330
    6      O       5.2690833387     1.4665558202     1.4567325913
    7      O       5.7505942304     0.5581370234     2.1040776006
    8      H       2.5619758789    -0.5446842788    -1.9344432296
    9      H       0.4655854211    -0.9661241561    -1.1704792301
   10      H       2.5574282084     1.1970461270     1.2603068362
   11      H       3.2929122775     1.7016516577    -0.3782104827
   12      O       2.5682200392    -2.4026981681    -1.1724703857
   13      H       2.5651391503    -2.8122186180    -0.2879644384
   14      O       4.7225839377    -0.7387201778    -0.4109620903
   15      O       4.9891134880     0.1459140162    -1.5066886937
   16      H       3.8227037455    -0.9602606423     1.9000513461
   17      H       5.4578019985     0.8740230359    -1.0554558425
 ----------------------------------------------------------------
 Nuclear Repulsion Energy =         611.26048746 hartrees
 There are       41 alpha and       40 beta electrons
 Discretize the solute cavity surface with Lebedev spheres
	Using 110 Lebedev grid points for each H atom
	Using 194 Lebedev grid points for other atoms
	Atomic van der Waals radii will be scaled by 1.20
 Remove points where switching function is < 1.0e-08
 Keep 1451 surface tesserae and discard 1259 interior tesserae
 Molecular Surface Area = 162.572 Angst**2
 Requested basis set is 6-311++G(2df,2p)
 There are 122 shells and 410 basis functions
 A cutoff of  1.0D-11 yielded   6533 shell pairs
 There are     73316 function pairs (     91551 Cartesian)
 Smallest overlap matrix eigenvalue = 1.14E-05
 Guess MOs from SCF MO coefficient file

 -----------------------------------------------------------------------
  General SCF calculation program by
  Eric Jon Sundstrom, Paul Horn, Yuezhi Mao, Dmitri Zuev, Alec White,
  David Stuck, Shaama M.S., Shane Yost, Joonho Lee, David Small,
  Daniel Levine, Susi Lehtola, Hugh Burton, Evgeny Epifanovsky,
  Bang C. Huynh
 -----------------------------------------------------------------------
 Exchange:     0.1500 Hartree-Fock + 1.0000 wB97M-V + LR-HF
 Correlation:  1.0000 wB97M-V
 Using SG-2 standard quadrature grid
 Nonlocal Correlation:  VV10 with C = 0.0100 and b = 6.00 and scale = 1.00000
 Grid used for NLC:  SG-1 standard quadrature
 
 Citation of the SMD model:
 Marenich, A.V.; Cramer, C.J.; Truhlar, D.G.
 J. Phys. Chem. B 2009, 113, 6378-6396.
 iSolventCode=           1
 Solvent: water                                                           
 
 vradii
            1           2           3           4           5           6
    1   1.8500000   1.5200000   1.8500000   1.5200000   1.8500000   1.5200000
            7           8           9          10          11          12
    1   1.5200000   1.2000000   1.2000000   1.2000000   1.2000000   1.5200000
           13          14          15          16          17
    1   1.2000000   1.5200000   1.5200000   1.2000000   1.2000000
 -------------------------------------------------------
 OpenMP BLAS3 based DFT computing Module                
 Release: version 1.0, May 2013, Q-Chem Inc. Pittsburgh 
 -------------------------------------------------------
 A unrestricted SCF calculation will be
 performed using Roothaan-Hall, DIIS, GDM
 SCF converges when RMS gradient is below 1.0e-06
 ---------------------------------------
  Cycle       Energy         DIIS error
 ---------------------------------------
    1    -644.8324991832      2.27e-04  Roothaan Step
 ---------------------------------------
  Cycle       Energy         DIIS error
 ---------------------------------------
    1    -644.8677900712      2.52e-04  
    2    -644.8733919400      1.87e-04  Done DIIS. Switching to GDM
 ---------------------------------------
  Cycle       Energy        RMS Gradient
 ---------------------------------------
    1    -644.8733919400      1.70e-02   Normal BFGS step
    2    -644.8730681125      2.74e-02  Line search: overstep
    3    -644.8752417120      4.50e-03   Normal BFGS step
    4    -644.8753747566      3.87e-03   Normal BFGS step
    5    -644.8754390272      9.28e-04   Normal BFGS step
    6    -644.8754441787      2.46e-04   Normal BFGS step
    7    -644.8754458282      2.59e-04   Normal BFGS step
    8    -644.8754460403      2.03e-04   Normal BFGS step
    9    -644.8754461411      1.06e-04   Normal BFGS step
   10    -644.8754461855      2.43e-05   Normal BFGS step
   11    -644.8754461928      1.59e-05   Normal BFGS step
   12    -644.8754461944      7.59e-06   Normal BFGS step
   13    -644.8754461951      3.35e-06   Normal BFGS step
   14    -644.8754461947      9.95e-07  Convergence criterion met
 ---------------------------------------
 SCF time:   CPU 1696.69s  wall 117.00s 
<S^2> =          1.591978224
(3)  G-ENP(liq) elect-nuc-pol free energy of system     -644.875446195 a.u.
(4)  G-CDS(liq) cavity-dispersion-solvent structure 
     free energy                                                2.8886 kcal/mol
(6)  G-S(liq) free energy of system                     -644.870842936 a.u.
 SCF   energy in the final basis set =     -644.8708429356
 Total energy in the final basis set =     -644.8708429356
 
 --------------------------------------------------------------
 
                    Orbital Energies (a.u.)
 --------------------------------------------------------------
 
 Alpha MOs
 -- Occupied --
-19.4904 -19.4750 -19.4039 -19.3993 -19.3627 -19.3499 -19.3490 -10.4693
-10.4495 -10.3524  -1.4199  -1.2752  -1.2120  -1.1816  -1.1370  -1.0367
 -0.9582  -0.8773  -0.7919  -0.7308  -0.6883  -0.6680  -0.6632  -0.6558
 -0.6415  -0.6372  -0.6044  -0.5776  -0.5740  -0.5576  -0.5346  -0.5066
 -0.4893  -0.4615  -0.4480  -0.4320  -0.4146  -0.4121  -0.4078  -0.4024
 -0.3922
 -- Virtual --
  0.0094   0.0284   0.0388   0.0466   0.0510   0.0660   0.0695   0.0777
  0.0944   0.1082   0.1200   0.1318   0.1348   0.1411   0.1419   0.1494
  0.1582   0.1725   0.1781   0.1838   0.1908   0.1993   0.2133   0.2212
  0.2243   0.2326   0.2488   0.2558   0.2624   0.2730   0.2802   0.2819
  0.2915   0.2937   0.2985   0.3069   0.3112   0.3189   0.3217   0.3307
  0.3382   0.3491   0.3500   0.3560   0.3646   0.3695   0.3741   0.3792
  0.3922   0.3928   0.4024   0.4139   0.4144   0.4238   0.4368   0.4423
  0.4487   0.4661   0.4753   0.4833   0.4902   0.5062   0.5205   0.5660
  0.5810   0.5944   0.6068   0.6286   0.6404   0.6611   0.6685   0.6763
  0.6864   0.6933   0.7044   0.7241   0.7524   0.7604   0.7653   0.7886
  0.8071   0.8279   0.8557   0.8806   0.8980   0.9148   0.9300   0.9403
  0.9584   0.9842   1.0262   1.0339   1.0484   1.0608   1.0633   1.0739
  1.0902   1.0957   1.1077   1.1272   1.1333   1.1440   1.1599   1.1665
  1.1766   1.1824   1.1932   1.1999   1.2169   1.2232   1.2315   1.2363
  1.2541   1.2661   1.2742   1.2955   1.2982   1.3174   1.3225   1.3441
  1.3465   1.3678   1.3806   1.3987   1.4022   1.4303   1.4452   1.4656
  1.4694   1.4765   1.5086   1.5215   1.5381   1.5568   1.5579   1.5712
  1.5791   1.6074   1.6132   1.6368   1.6501   1.6753   1.6934   1.7000
  1.7178   1.7384   1.7519   1.7962   1.8200   1.8305   1.8416   1.8848
  1.8970   1.9284   1.9405   1.9699   1.9969   2.0051   2.0259   2.0628
  2.1140   2.1345   2.2038   2.2167   2.2631   2.2867   2.3125   2.3183
  2.3582   2.3601   2.3714   2.3968   2.4357   2.4580   2.4710   2.4912
  2.4960   2.5577   2.5761   2.6560   2.6736   2.6936   2.7563   2.8068
  2.8212   2.8430   2.8702   2.8968   2.9470   3.0273   3.0385   3.0552
  3.0891   3.1350   3.1659   3.1803   3.2151   3.2313   3.2678   3.2928
  3.3390   3.3454   3.3930   3.4225   3.4387   3.4701   3.4872   3.5270
  3.5501   3.6086   3.6404   3.6728   3.6782   3.7045   3.7480   3.7649
  3.7760   3.8170   3.8394   3.8486   3.8626   3.8767   3.8855   3.8947
  3.9297   3.9412   3.9623   4.0210   4.0336   4.0820   4.1010   4.1468
  4.2014   4.2129   4.2233   4.2480   4.2661   4.2809   4.3232   4.3551
  4.3593   4.3629   4.3982   4.4083   4.4701   4.5129   4.5367   4.5543
  4.5781   4.5998   4.6086   4.6224   4.6611   4.7188   4.7590   4.8532
  4.9199   4.9351   4.9449   4.9562   5.0069   5.0124   5.0466   5.0819
  5.1018   5.1192   5.1404   5.1569   5.1678   5.2059   5.2205   5.2228
  5.2422   5.2464   5.2765   5.2829   5.2969   5.3170   5.3205   5.3319
  5.3439   5.3703   5.3771   5.3956   5.4156   5.4511   5.4770   5.5081
  5.5209   5.5418   5.5535   5.5918   5.6076   5.6190   5.6273   5.6525
  5.6685   5.6965   5.7111   5.7270   5.7319   5.7448   5.7851   5.8044
  5.8704   5.9559   6.0114   6.0407   6.0617   6.1204   6.1587   6.2188
  6.4886   6.5670   6.7148   6.7497   6.7610   6.7735   6.7809   6.8113
  6.8344   6.8504   6.8861   6.9693   6.9719   7.0192   7.0447   7.0721
  7.0766   7.0929   7.1214   7.1545   7.2229   7.2399   7.2552   7.2787
  7.2906   7.3044   7.3433   7.3541   7.4003   7.4124   7.4175   7.4375
  7.4723   7.4902   7.5755   7.5867   7.6445   7.6854   7.7625   7.8223
  7.8559   7.8725   7.9016   8.0082   8.0921   8.1100   8.1997  24.5524
 24.7890  24.8438  50.4580  50.4954  50.5061  50.5803  50.6210  50.6390
 50.6781
 
 Beta MOs
 -- Occupied --
-19.4615 -19.4470 -19.4047 -19.3992 -19.3628 -19.3502 -19.3493 -10.4685
-10.4503 -10.3648  -1.3664  -1.2762  -1.2127  -1.1820  -1.1377  -1.0376
 -0.8937  -0.8741  -0.8061  -0.7338  -0.6897  -0.6490  -0.6425  -0.6177
 -0.6076  -0.5821  -0.5777  -0.5684  -0.5609  -0.5572  -0.5361  -0.5147
 -0.4914  -0.4632  -0.4490  -0.4335  -0.4160  -0.4131  -0.3985  -0.3140
 -- Virtual --
 -0.0159  -0.0150   0.0285   0.0388   0.0463   0.0495   0.0662   0.0697
  0.0775   0.0951   0.1068   0.1199   0.1327   0.1354   0.1405   0.1427
  0.1495   0.1585   0.1729   0.1793   0.1826   0.1927   0.2001   0.2135
  0.2199   0.2254   0.2343   0.2492   0.2566   0.2640   0.2735   0.2799
  0.2828   0.2904   0.2934   0.3025   0.3068   0.3111   0.3205   0.3219
  0.3314   0.3402   0.3465   0.3507   0.3540   0.3645   0.3686   0.3774
  0.3780   0.3911   0.3926   0.4055   0.4138   0.4221   0.4246   0.4360
  0.4433   0.4496   0.4618   0.4755   0.4834   0.4894   0.5076   0.5217
  0.5631   0.5801   0.5925   0.6036   0.6262   0.6383   0.6551   0.6652
  0.6699   0.6785   0.6915   0.6969   0.7201   0.7485   0.7535   0.7579
  0.7802   0.8018   0.8231   0.8537   0.8776   0.8954   0.9168   0.9286
  0.9365   0.9565   0.9846   1.0237   1.0356   1.0502   1.0612   1.0696
  1.0798   1.0931   1.1012   1.1139   1.1311   1.1407   1.1546   1.1688
  1.1748   1.1805   1.1853   1.1984   1.2054   1.2202   1.2250   1.2366
  1.2469   1.2556   1.2638   1.2742   1.2963   1.2988   1.3247   1.3258
  1.3460   1.3482   1.3707   1.3775   1.3982   1.4191   1.4252   1.4466
  1.4687   1.4722   1.4886   1.5077   1.5234   1.5417   1.5544   1.5643
  1.5721   1.5892   1.6118   1.6280   1.6363   1.6476   1.6761   1.6912
  1.7032   1.7198   1.7532   1.7651   1.8038   1.8271   1.8343   1.8462
  1.8922   1.9070   1.9310   1.9447   1.9749   1.9974   2.0060   2.0291
  2.0639   2.1138   2.1344   2.2018   2.2155   2.2633   2.2863   2.3145
  2.3448   2.3672   2.3724   2.3848   2.4057   2.4331   2.4567   2.4686
  2.4917   2.4939   2.5560   2.5734   2.6593   2.6750   2.6917   2.7403
  2.7961   2.8091   2.8349   2.8584   2.8828   2.9312   2.9944   3.0078
  3.0260   3.0648   3.0866   3.1258   3.1592   3.2001   3.2096   3.2515
  3.2646   3.3149   3.3339   3.3663   3.3994   3.4244   3.4405   3.4722
  3.4876   3.5437   3.5819   3.6246   3.6572   3.6614   3.6984   3.7182
  3.7539   3.7682   3.8065   3.8354   3.8471   3.8569   3.8652   3.8755
  3.8905   3.9266   3.9352   3.9541   4.0137   4.0178   4.0716   4.0844
  4.1385   4.1972   4.2035   4.2076   4.2460   4.2535   4.2745   4.3105
  4.3325   4.3372   4.3480   4.3943   4.3967   4.4615   4.5060   4.5166
  4.5582   4.6104   4.6169   4.6486   4.6546   4.6872   4.7173   4.7575
  4.8517   4.9213   4.9792   4.9907   5.0067   5.0140   5.0471   5.0851
  5.1048   5.1522   5.1718   5.2053   5.2172   5.2248   5.2363   5.2383
  5.2406   5.2503   5.2754   5.2809   5.2890   5.2972   5.3197   5.3305
  5.3419   5.3642   5.3691   5.3723   5.3958   5.4135   5.4499   5.4741
  5.5045   5.5082   5.5308   5.5499   5.5877   5.5962   5.6083   5.6246
  5.6365   5.6514   5.6696   5.7088   5.7335   5.7783   5.7855   5.7913
  5.8028   5.8694   5.9529   6.0095   6.0384   6.0612   6.1186   6.1579
  6.2177   6.4867   6.5687   6.7420   6.7825   6.8288   6.8441   6.8550
  6.8675   6.8954   6.9605   6.9894   7.0220   7.0241   7.0382   7.0701
  7.0787   7.0871   7.1168   7.1488   7.1618   7.2240   7.2394   7.2555
  7.2783   7.2906   7.3049   7.3442   7.4006   7.4075   7.4203   7.4382
  7.4476   7.4759   7.4905   7.5747   7.5866   7.6438   7.6848   7.7616
  7.8217   7.8551   7.8719   7.9008   8.0068   8.1217   8.1566   8.1993
 24.5435  24.7849  24.8426  50.4789  50.4965  50.5281  50.5804  50.6207
 50.6389  50.6780
 --------------------------------------------------------------
 
          Ground-State Mulliken Net Atomic Charges

     Atom                 Charge (a.u.)    Spin (a.u.)
  --------------------------------------------------------
      1 C                    -0.118514      -0.027588
      2 O                    -0.420728      -0.002257
      3 C                     0.349261       0.021522
      4 O                    -0.406448      -0.002791
      5 C                    -0.774113      -0.894109
      6 O                     0.044569       0.969185
      7 O                    -0.002075       0.933034
      8 H                     0.277069      -0.000286
      9 H                     0.342360       0.000689
     10 H                     0.282637       0.015313
     11 H                     0.311416       0.012775
     12 O                    -0.447548      -0.007281
     13 H                     0.349081       0.000483
     14 O                    -0.172753      -0.021946
     15 O                    -0.293965       0.002103
     16 H                     0.349801       0.000718
     17 H                     0.329949       0.000436
  --------------------------------------------------------
  Sum of atomic charges =    -0.000000
  Sum of spin   charges =     1.000000

 -----------------------------------------------------------------
                    Cartesian Multipole Moments
 -----------------------------------------------------------------
    Charge (ESU x 10^10)
                -0.0000
    Dipole Moment (Debye)
         X      -0.6535      Y       4.1526      Z       1.3601
       Tot       4.4182
    Quadrupole Moments (Debye-Ang)
        XX     -61.3063     XY      18.9483     YY     -60.2532
        XZ      10.4858     YZ      -4.9663     ZZ     -57.0204
    Octopole Moments (Debye-Ang^2)
       XXX    -648.3646    XXY     106.4163    XYY    -215.1718
       YYY      73.0747    XXZ      36.7625    XYZ     -26.2534
       YYZ       8.7288    XZZ    -215.4353    YZZ      28.4656
       ZZZ       7.0110
    Hexadecapole Moments (Debye-Ang^3)
      XXXX   -5364.3719   XXXY     497.0587   XXYY    -979.5259
      XYYY     116.5926   YYYY    -540.6527   XXXZ     -17.3214
      XXYZ    -152.0701   XYYZ     -20.4405   YYYZ    -146.7765
      XXZZ   -1010.6627   XYZZ      49.9863   YYZZ    -199.3680
      XZZZ     -76.1636   YZZZ    -120.9129   ZZZZ    -503.9120
 -----------------------------------------------------------------
 Calculating analytic gradient of the SCF energy
 Gradient of CDS energy
            1           2           3           4           5           6
    1  -0.0012371   0.0017033  -0.0002006   0.0002067  -0.0004907   0.0001032
    2  -0.0026505  -0.0005705  -0.0020002   0.0020387   0.0008785  -0.0000942
    3  -0.0002697  -0.0004085   0.0024593  -0.0027287   0.0000989   0.0001075
            7           8           9          10          11          12
    1   0.0000887   0.0002697  -0.0005143  -0.0000223   0.0002738  -0.0003322
    2   0.0001046   0.0000384   0.0000270  -0.0002127  -0.0001211   0.0032136
    3  -0.0000494  -0.0000759  -0.0000702   0.0001957  -0.0001737   0.0005000
           13          14          15          16          17
    1  -0.0000235  -0.0000339  -0.0001958   0.0000286   0.0003763
    2  -0.0004735   0.0000009  -0.0001873  -0.0002318   0.0002400
    3   0.0001334  -0.0000134   0.0000924   0.0003955  -0.0001932
 Gradient of SCF Energy
            1           2           3           4           5           6
    1  -0.0033927   0.0074828   0.0053519  -0.0142706   0.0016849  -0.0105529
    2  -0.0043550   0.0067549   0.0111026  -0.0120334  -0.0181495   0.0175902
    3   0.0049643   0.0207135  -0.0013914  -0.0130619   0.0006263  -0.0121839
            7           8           9          10          11          12
    1   0.0092974  -0.0013583  -0.0099005  -0.0055777   0.0040995   0.0064702
    2  -0.0177155   0.0037770  -0.0039746   0.0039068   0.0107002  -0.0023457
    3   0.0112139  -0.0053365  -0.0155652   0.0109492  -0.0100184  -0.0131214
           13          14          15          16          17
    1  -0.0021963   0.0030544  -0.0093894   0.0108996   0.0082977
    2  -0.0008709  -0.0081541  -0.0140049   0.0098412   0.0179307
    3   0.0088855   0.0040611  -0.0168355   0.0141148   0.0119856
 Max gradient component =       2.071E-02
 RMS gradient           =       1.029E-02
 Computing fast CPCM-SWIG gradient
 Updating gradient with PCM contributions...
 -- total gradient after adding PCM contribution --
---------------------------------------------------
  Atom         X              Y              Z     
---------------------------------------------------
   1      -0.001812      -0.002867       0.002625
   2       0.003034       0.003915       0.008476
   3       0.000462       0.000359      -0.001256
   4      -0.006208      -0.005435      -0.003834
   5       0.002740      -0.000463       0.001110
   6      -0.006327       0.010762      -0.008545
   7       0.004879      -0.011773       0.007142
   8       0.001204       0.000754      -0.003011
   9      -0.003137      -0.002483      -0.005712
  10      -0.002325       0.001196       0.002272
  11       0.000015       0.002392      -0.002234
  12       0.001959       0.000560      -0.009055
  13      -0.000339      -0.000098       0.007268
  14       0.001654      -0.002970       0.004242
  15      -0.003617      -0.001809      -0.008057
  16       0.004918       0.003728       0.003841
  17       0.002899       0.004233       0.004728
---------------------------------------------------
 Number of fixed atoms: 0
 Gradient time:  CPU 271.74 s  wall 22.94 s
 ----------------------------------------------------------------
             Standard Nuclear Orientation (Angstroms)
    I     Atom           X                Y                Z
 ----------------------------------------------------------------
    1      C       2.3815137151    -1.0251152011    -0.9687068454
    2      O       1.0980715746    -0.7272897893    -0.4725354701
    3      C       3.3800881547    -0.4838528504     0.0740321542
    4      O       3.2685245952    -1.3234840588     1.1874058471
    5      C       3.1568714463     0.9521352604     0.3917290330
    6      O       5.2690833387     1.4665558202     1.4567325913
    7      O       5.7505942304     0.5581370234     2.1040776006
    8      H       2.5619758789    -0.5446842788    -1.9344432296
    9      H       0.4655854211    -0.9661241561    -1.1704792301
   10      H       2.5574282084     1.1970461270     1.2603068362
   11      H       3.2929122775     1.7016516577    -0.3782104827
   12      O       2.5682200392    -2.4026981681    -1.1724703857
   13      H       2.5651391503    -2.8122186180    -0.2879644384
   14      O       4.7225839377    -0.7387201778    -0.4109620903
   15      O       4.9891134880     0.1459140162    -1.5066886937
   16      H       3.8227037455    -0.9602606423     1.9000513461
   17      H       5.4578019985     0.8740230359    -1.0554558425
 ----------------------------------------------------------------
 Nuclear Repulsion Energy =         611.24758431 hartrees
 There are       41 alpha and       40 beta electrons
 Discretize the solute cavity surface with Lebedev spheres
	Using 110 Lebedev grid points for each H atom
	Using 194 Lebedev grid points for other atoms
	Atomic van der Waals radii will be scaled by 1.20
 Remove points where switching function is < 1.0e-08
 Keep 1451 surface tesserae and discard 1259 interior tesserae
 Molecular Surface Area = 162.574 Angst**2
 Requested basis set is 6-311++G(2df,2p)
 There are 122 shells and 410 basis functions
 A cutoff of  1.0D-11 yielded   6533 shell pairs
 There are     73316 function pairs (     91551 Cartesian)
 Smallest overlap matrix eigenvalue = 1.14E-05
 Guess MOs from SCF MO coefficient file

 -----------------------------------------------------------------------
  General SCF calculation program by
  Eric Jon Sundstrom, Paul Horn, Yuezhi Mao, Dmitri Zuev, Alec White,
  David Stuck, Shaama M.S., Shane Yost, Joonho Lee, David Small,
  Daniel Levine, Susi Lehtola, Hugh Burton, Evgeny Epifanovsky,
  Bang C. Huynh
 -----------------------------------------------------------------------
 Exchange:     0.1500 Hartree-Fock + 1.0000 wB97M-V + LR-HF
 Correlation:  1.0000 wB97M-V
 Using SG-2 standard quadrature grid
 Nonlocal Correlation:  VV10 with C = 0.0100 and b = 6.00 and scale = 1.00000
 Grid used for NLC:  SG-1 standard quadrature
 
 Citation of the SMD model:
 Marenich, A.V.; Cramer, C.J.; Truhlar, D.G.
 J. Phys. Chem. B 2009, 113, 6378-6396.
 iSolventCode=           1
 Solvent: water                                                           
 
 vradii
            1           2           3           4           5           6
    1   1.8500000   1.5200000   1.8500000   1.5200000   1.8500000   1.5200000
            7           8           9          10          11          12
    1   1.5200000   1.2000000   1.2000000   1.2000000   1.2000000   1.5200000
           13          14          15          16          17
    1   1.2000000   1.5200000   1.5200000   1.2000000   1.2000000
 -------------------------------------------------------
 OpenMP BLAS3 based DFT computing Module                
 Release: version 1.0, May 2013, Q-Chem Inc. Pittsburgh 
 -------------------------------------------------------
 A unrestricted SCF calculation will be
 performed using Roothaan-Hall, DIIS, GDM
 SCF converges when RMS gradient is below 1.0e-06
 ---------------------------------------
  Cycle       Energy         DIIS error
 ---------------------------------------
    1    -644.8324890384      2.27e-04  Roothaan Step
 ---------------------------------------
  Cycle       Energy         DIIS error
 ---------------------------------------
    1    -644.8677943720      2.51e-04  
    2    -644.8733971267      1.86e-04  Done DIIS. Switching to GDM
 ---------------------------------------
  Cycle       Energy        RMS Gradient
 ---------------------------------------
    1    -644.8733971267      1.71e-02   Normal BFGS step
    2    -644.8730725621      2.75e-02  Line search: overstep
    3    -644.8752362903      4.52e-03   Normal BFGS step
    4    -644.8753695021      3.85e-03   Normal BFGS step
    5    -644.8754335397      9.29e-04   Normal BFGS step
    6    -644.8754386625      2.39e-04   Normal BFGS step
    7    -644.8754403067      2.55e-04   Normal BFGS step
    8    -644.8754405154      2.00e-04   Normal BFGS step
    9    -644.8754406141      1.05e-04   Normal BFGS step
   10    -644.8754406576      2.42e-05   Normal BFGS step
   11    -644.8754406650      1.58e-05   Normal BFGS step
   12    -644.8754406665      7.58e-06   Normal BFGS step
   13    -644.8754406673      3.36e-06   Normal BFGS step
   14    -644.8754406669      9.93e-07  Convergence criterion met
 ---------------------------------------
 SCF time:   CPU 1696.50s  wall 118.00s 
<S^2> =          1.591899579
(3)  G-ENP(liq) elect-nuc-pol free energy of system     -644.875440667 a.u.
(4)  G-CDS(liq) cavity-dispersion-solvent structure 
     free energy                                                2.8920 kcal/mol
(6)  G-S(liq) free energy of system                     -644.870832012 a.u.
 SCF   energy in the final basis set =     -644.8708320116
 Total energy in the final basis set =     -644.8708320116
 
 --------------------------------------------------------------
 
                    Orbital Energies (a.u.)
 --------------------------------------------------------------
 
 Alpha MOs
 -- Occupied --
-19.4904 -19.4750 -19.4039 -19.3993 -19.3627 -19.3501 -19.3489 -10.4693
-10.4495 -10.3524  -1.4198  -1.2752  -1.2122  -1.1817  -1.1372  -1.0366
 -0.9582  -0.8771  -0.7918  -0.7307  -0.6884  -0.6681  -0.6632  -0.6558
 -0.6416  -0.6371  -0.6043  -0.5777  -0.5740  -0.5578  -0.5347  -0.5065
 -0.4892  -0.4615  -0.4479  -0.4321  -0.4147  -0.4121  -0.4078  -0.4024
 -0.3921
 -- Virtual --
  0.0094   0.0284   0.0388   0.0466   0.0510   0.0660   0.0695   0.0777
  0.0944   0.1082   0.1200   0.1318   0.1348   0.1410   0.1419   0.1494
  0.1582   0.1725   0.1781   0.1838   0.1908   0.1994   0.2133   0.2214
  0.2243   0.2326   0.2488   0.2557   0.2624   0.2730   0.2803   0.2819
  0.2915   0.2939   0.2985   0.3068   0.3113   0.3189   0.3216   0.3308
  0.3382   0.3490   0.3501   0.3560   0.3647   0.3695   0.3741   0.3792
  0.3923   0.3928   0.4024   0.4139   0.4144   0.4239   0.4369   0.4422
  0.4488   0.4661   0.4753   0.4834   0.4902   0.5063   0.5205   0.5658
  0.5810   0.5944   0.6068   0.6286   0.6404   0.6612   0.6685   0.6764
  0.6864   0.6933   0.7044   0.7240   0.7523   0.7603   0.7653   0.7885
  0.8071   0.8278   0.8557   0.8806   0.8980   0.9148   0.9300   0.9403
  0.9585   0.9842   1.0262   1.0339   1.0483   1.0606   1.0633   1.0740
  1.0902   1.0957   1.1077   1.1273   1.1332   1.1441   1.1599   1.1665
  1.1765   1.1825   1.1931   1.1999   1.2169   1.2232   1.2316   1.2363
  1.2542   1.2661   1.2744   1.2956   1.2982   1.3174   1.3224   1.3440
  1.3464   1.3678   1.3806   1.3986   1.4022   1.4301   1.4453   1.4656
  1.4694   1.4765   1.5086   1.5213   1.5380   1.5567   1.5578   1.5712
  1.5789   1.6073   1.6132   1.6367   1.6500   1.6753   1.6932   1.7000
  1.7178   1.7382   1.7520   1.7961   1.8201   1.8303   1.8413   1.8848
  1.8969   1.9282   1.9406   1.9699   1.9969   2.0052   2.0260   2.0630
  2.1140   2.1345   2.2037   2.2170   2.2633   2.2867   2.3126   2.3185
  2.3583   2.3602   2.3715   2.3972   2.4356   2.4581   2.4710   2.4914
  2.4959   2.5579   2.5760   2.6561   2.6735   2.6936   2.7562   2.8072
  2.8213   2.8429   2.8703   2.8965   2.9469   3.0268   3.0387   3.0550
  3.0891   3.1347   3.1660   3.1802   3.2150   3.2313   3.2676   3.2928
  3.3390   3.3459   3.3931   3.4223   3.4382   3.4705   3.4872   3.5271
  3.5506   3.6086   3.6404   3.6728   3.6781   3.7041   3.7481   3.7649
  3.7759   3.8173   3.8393   3.8486   3.8624   3.8767   3.8852   3.8947
  3.9298   3.9418   3.9621   4.0211   4.0332   4.0816   4.1007   4.1467
  4.2014   4.2129   4.2228   4.2477   4.2656   4.2810   4.3231   4.3543
  4.3592   4.3629   4.3979   4.4078   4.4704   4.5124   4.5363   4.5541
  4.5776   4.5995   4.6086   4.6223   4.6610   4.7187   4.7590   4.8531
  4.9199   4.9351   4.9449   4.9562   5.0068   5.0125   5.0466   5.0819
  5.1013   5.1192   5.1404   5.1569   5.1678   5.2060   5.2205   5.2228
  5.2421   5.2465   5.2765   5.2828   5.2969   5.3170   5.3205   5.3320
  5.3440   5.3702   5.3763   5.3954   5.4153   5.4512   5.4770   5.5078
  5.5210   5.5421   5.5538   5.5917   5.6076   5.6188   5.6274   5.6525
  5.6688   5.6965   5.7114   5.7269   5.7319   5.7447   5.7854   5.8048
  5.8707   5.9562   6.0117   6.0408   6.0617   6.1212   6.1618   6.2190
  6.4887   6.5680   6.7150   6.7511   6.7611   6.7735   6.7809   6.8112
  6.8344   6.8504   6.8861   6.9693   6.9719   7.0192   7.0446   7.0721
  7.0766   7.0929   7.1214   7.1544   7.2229   7.2400   7.2554   7.2787
  7.2908   7.3047   7.3434   7.3541   7.4004   7.4125   7.4176   7.4376
  7.4724   7.4902   7.5754   7.5868   7.6446   7.6855   7.7626   7.8223
  7.8559   7.8725   7.9020   8.0082   8.0922   8.1100   8.1997  24.5525
 24.7901  24.8427  50.4581  50.4953  50.5061  50.5803  50.6214  50.6389
 50.6782
 
 Beta MOs
 -- Occupied --
-19.4615 -19.4469 -19.4047 -19.3992 -19.3627 -19.3504 -19.3492 -10.4685
-10.4503 -10.3648  -1.3664  -1.2761  -1.2128  -1.1821  -1.1379  -1.0375
 -0.8936  -0.8741  -0.8060  -0.7338  -0.6898  -0.6492  -0.6425  -0.6177
 -0.6076  -0.5822  -0.5778  -0.5684  -0.5610  -0.5572  -0.5361  -0.5147
 -0.4913  -0.4632  -0.4489  -0.4336  -0.4161  -0.4130  -0.3984  -0.3139
 -- Virtual --
 -0.0159  -0.0150   0.0285   0.0388   0.0463   0.0495   0.0662   0.0697
  0.0775   0.0951   0.1068   0.1199   0.1328   0.1354   0.1405   0.1427
  0.1495   0.1585   0.1729   0.1793   0.1826   0.1927   0.2002   0.2135
  0.2201   0.2254   0.2343   0.2492   0.2565   0.2641   0.2735   0.2800
  0.2829   0.2904   0.2935   0.3025   0.3068   0.3111   0.3205   0.3218
  0.3314   0.3402   0.3463   0.3507   0.3540   0.3645   0.3686   0.3774
  0.3780   0.3911   0.3927   0.4055   0.4138   0.4221   0.4246   0.4361
  0.4433   0.4496   0.4618   0.4754   0.4834   0.4894   0.5076   0.5218
  0.5629   0.5800   0.5925   0.6036   0.6262   0.6384   0.6552   0.6652
  0.6699   0.6785   0.6916   0.6969   0.7201   0.7484   0.7534   0.7578
  0.7802   0.8018   0.8230   0.8537   0.8776   0.8954   0.9168   0.9285
  0.9366   0.9566   0.9847   1.0238   1.0356   1.0501   1.0610   1.0697
  1.0798   1.0931   1.1012   1.1139   1.1311   1.1407   1.1546   1.1689
  1.1747   1.1805   1.1853   1.1984   1.2054   1.2202   1.2249   1.2367
  1.2469   1.2557   1.2638   1.2743   1.2963   1.2989   1.3247   1.3257
  1.3459   1.3481   1.3707   1.3776   1.3980   1.4192   1.4250   1.4467
  1.4687   1.4722   1.4886   1.5077   1.5232   1.5415   1.5543   1.5642
  1.5721   1.5890   1.6117   1.6280   1.6362   1.6475   1.6760   1.6910
  1.7032   1.7197   1.7532   1.7650   1.8037   1.8271   1.8340   1.8461
  1.8922   1.9069   1.9309   1.9447   1.9749   1.9973   2.0062   2.0291
  2.0641   2.1138   2.1345   2.2017   2.2158   2.2636   2.2864   2.3149
  2.3448   2.3673   2.3728   2.3848   2.4060   2.4331   2.4567   2.4686
  2.4919   2.4937   2.5562   2.5733   2.6592   2.6749   2.6917   2.7403
  2.7965   2.8092   2.8346   2.8585   2.8825   2.9312   2.9941   3.0079
  3.0259   3.0647   3.0864   3.1259   3.1590   3.2002   3.2096   3.2512
  3.2645   3.3151   3.3340   3.3665   3.3992   3.4240   3.4409   3.4722
  3.4877   3.5443   3.5819   3.6247   3.6572   3.6613   3.6980   3.7183
  3.7540   3.7681   3.8068   3.8354   3.8471   3.8566   3.8650   3.8754
  3.8905   3.9267   3.9358   3.9539   4.0137   4.0175   4.0713   4.0838
  4.1383   4.1972   4.2033   4.2074   4.2457   4.2531   4.2746   4.3105
  4.3325   4.3372   4.3470   4.3941   4.3962   4.4618   4.5054   4.5162
  4.5577   4.6101   4.6167   4.6486   4.6546   4.6871   4.7172   4.7574
  4.8516   4.9213   4.9792   4.9906   5.0067   5.0140   5.0471   5.0845
  5.1048   5.1522   5.1718   5.2054   5.2172   5.2249   5.2363   5.2383
  5.2405   5.2504   5.2755   5.2808   5.2890   5.2972   5.3197   5.3306
  5.3420   5.3641   5.3690   5.3718   5.3957   5.4131   5.4501   5.4741
  5.5045   5.5082   5.5309   5.5501   5.5877   5.5961   5.6084   5.6246
  5.6365   5.6514   5.6698   5.7092   5.7334   5.7785   5.7856   5.7913
  5.8032   5.8698   5.9531   6.0099   6.0385   6.0612   6.1194   6.1609
  6.2179   6.4869   6.5696   6.7435   6.7827   6.8287   6.8441   6.8550
  6.8675   6.8954   6.9605   6.9894   7.0220   7.0241   7.0382   7.0701
  7.0788   7.0871   7.1168   7.1488   7.1617   7.2240   7.2395   7.2557
  7.2783   7.2908   7.3052   7.3442   7.4006   7.4077   7.4203   7.4383
  7.4476   7.4759   7.4906   7.5746   7.5866   7.6439   7.6848   7.7617
  7.8217   7.8551   7.8719   7.9011   8.0068   8.1217   8.1566   8.1993
 24.5436  24.7860  24.8415  50.4789  50.4965  50.5281  50.5804  50.6211
 50.6388  50.6781
 --------------------------------------------------------------
 
          Ground-State Mulliken Net Atomic Charges

     Atom                 Charge (a.u.)    Spin (a.u.)
  --------------------------------------------------------
      1 C                    -0.118069      -0.027738
      2 O                    -0.419678      -0.002247
      3 C                     0.349038       0.021627
      4 O                    -0.406451      -0.002791
      5 C                    -0.774348      -0.894034
      6 O                     0.044532       0.969175
      7 O                    -0.002113       0.932981
      8 H                     0.276636      -0.000283
      9 H                     0.342439       0.000699
     10 H                     0.282611       0.015304
     11 H                     0.311366       0.012772
     12 O                    -0.447822      -0.007296
     13 H                     0.349009       0.000485
     14 O                    -0.172792      -0.021910
     15 O                    -0.294064       0.002104
     16 H                     0.349765       0.000716
     17 H                     0.329940       0.000437
  --------------------------------------------------------
  Sum of atomic charges =    -0.000000
  Sum of spin   charges =     1.000000

 -----------------------------------------------------------------
                    Cartesian Multipole Moments
 -----------------------------------------------------------------
    Charge (ESU x 10^10)
                -0.0000
    Dipole Moment (Debye)
         X      -0.6678      Y       4.1545      Z       1.3612
       Tot       4.4225
    Quadrupole Moments (Debye-Ang)
        XX     -61.3680     XY      18.9613     YY     -60.2670
        XZ      10.4928     YZ      -4.9721     ZZ     -57.0321
    Octopole Moments (Debye-Ang^2)
       XXX    -648.5879    XXY     106.4555    XYY    -215.2129
       YYY      73.1119    XXZ      36.7748    XYZ     -26.2740
       YYZ       8.7414    XZZ    -215.4745    YZZ      28.4766
       ZZZ       7.0246
    Hexadecapole Moments (Debye-Ang^3)
      XXXX   -5365.1916   XXXY     497.1206   XXYY    -979.6461
      XYYY     116.6560   YYYY    -540.8105   XXXZ     -17.3752
      XXYZ    -152.1387   XYYZ     -20.4188   YYYZ    -146.8260
      XXZZ   -1010.8017   XYZZ      50.0095   YYZZ    -199.4060
      XZZZ     -76.1626   YZZZ    -120.9378   ZZZZ    -503.9969
 -----------------------------------------------------------------
 Calculating analytic gradient of the SCF energy
 Gradient of CDS energy
            1           2           3           4           5           6
    1  -0.0016184   0.0020756  -0.0002003   0.0002071  -0.0004902   0.0001032
    2  -0.0024994  -0.0006574  -0.0020001   0.0020387   0.0008784  -0.0000942
    3  -0.0001157  -0.0005540   0.0024595  -0.0027287   0.0000991   0.0001075
            7           8           9          10          11          12
    1   0.0000887   0.0002717  -0.0005137  -0.0000221   0.0002738  -0.0003272
    2   0.0001046   0.0000376   0.0000262  -0.0002125  -0.0001211   0.0031515
    3  -0.0000494  -0.0000755  -0.0000696   0.0001957  -0.0001737   0.0004906
           13          14          15          16          17
    1  -0.0000233  -0.0000339  -0.0001959   0.0000286   0.0003763
    2  -0.0004739   0.0000008  -0.0001875  -0.0002318   0.0002400
    3   0.0001332  -0.0000136   0.0000923   0.0003955  -0.0001932
 Gradient of SCF Energy
            1           2           3           4           5           6
    1  -0.0055526   0.0086190   0.0057172  -0.0142648   0.0016515  -0.0105396
    2  -0.0043731   0.0066782   0.0111697  -0.0120353  -0.0181285   0.0175680
    3   0.0051073   0.0205105  -0.0011925  -0.0130597   0.0006150  -0.0121685
            7           8           9          10          11          12
    1   0.0092882  -0.0011420  -0.0097971  -0.0055782   0.0040959   0.0067187
    2  -0.0176943   0.0038552  -0.0040157   0.0039010   0.0106957  -0.0023970
    3   0.0112003  -0.0054231  -0.0156434   0.0109514  -0.0100153  -0.0131302
           13          14          15          16          17
    1  -0.0022074   0.0031944  -0.0093861   0.0108875   0.0082953
    2  -0.0008623  -0.0081340  -0.0139967   0.0098453   0.0179239
    3   0.0088882   0.0041035  -0.0168275   0.0141038   0.0119802
 Max gradient component =       2.051E-02
 RMS gradient           =       1.032E-02
 Computing fast CPCM-SWIG gradient
 Updating gradient with PCM contributions...
 -- total gradient after adding PCM contribution --
---------------------------------------------------
  Atom         X              Y              Z     
---------------------------------------------------
   1      -0.003970      -0.002885       0.002780
   2       0.004123       0.003830       0.008251
   3       0.000820       0.000416      -0.001055
   4      -0.006220      -0.005435      -0.003840
   5       0.002709      -0.000444       0.001101
   6      -0.006319       0.010750      -0.008536
   7       0.004876      -0.011761       0.007135
   8       0.001420       0.000830      -0.003108
   9      -0.002996      -0.002521      -0.005770
  10      -0.002319       0.001191       0.002273
  11       0.000016       0.002389      -0.002234
  12       0.002190       0.000527      -0.009059
  13      -0.000335      -0.000098       0.007268
  14       0.001804      -0.002948       0.004281
  15      -0.003617      -0.001809      -0.008053
  16       0.004917       0.003734       0.003839
  17       0.002901       0.004233       0.004728
---------------------------------------------------
 Number of fixed atoms: 0
 Gradient time:  CPU 266.55 s  wall 23.39 s
 ----------------------------------------------------------------
             Standard Nuclear Orientation (Angstroms)
    I     Atom           X                Y                Z
 ----------------------------------------------------------------
    1      C       2.3825137151    -1.0241152011    -0.9687068454
    2      O       1.0980715746    -0.7272897893    -0.4725354701
    3      C       3.3800881547    -0.4838528504     0.0740321542
    4      O       3.2685245952    -1.3234840588     1.1874058471
    5      C       3.1568714463     0.9521352604     0.3917290330
    6      O       5.2690833387     1.4665558202     1.4567325913
    7      O       5.7505942304     0.5581370234     2.1040776006
    8      H       2.5619758789    -0.5446842788    -1.9344432296
    9      H       0.4655854211    -0.9661241561    -1.1704792301
   10      H       2.5574282084     1.1970461270     1.2603068362
   11      H       3.2929122775     1.7016516577    -0.3782104827
   12      O       2.5682200392    -2.4026981681    -1.1724703857
   13      H       2.5651391503    -2.8122186180    -0.2879644384
   14      O       4.7225839377    -0.7387201778    -0.4109620903
   15      O       4.9891134880     0.1459140162    -1.5066886937
   16      H       3.8227037455    -0.9602606423     1.9000513461
   17      H       5.4578019985     0.8740230359    -1.0554558425
 ----------------------------------------------------------------
 Nuclear Repulsion Energy =         611.25256005 hartrees
 There are       41 alpha and       40 beta electrons
 Discretize the solute cavity surface with Lebedev spheres
	Using 110 Lebedev grid points for each H atom
	Using 194 Lebedev grid points for other atoms
	Atomic van der Waals radii will be scaled by 1.20
 Remove points where switching function is < 1.0e-08
 Keep 1451 surface tesserae and discard 1259 interior tesserae
 Molecular Surface Area = 162.572 Angst**2
 Requested basis set is 6-311++G(2df,2p)
 There are 122 shells and 410 basis functions
 A cutoff of  1.0D-11 yielded   6533 shell pairs
 There are     73316 function pairs (     91551 Cartesian)
 Smallest overlap matrix eigenvalue = 1.14E-05
 Guess MOs from SCF MO coefficient file

 -----------------------------------------------------------------------
  General SCF calculation program by
  Eric Jon Sundstrom, Paul Horn, Yuezhi Mao, Dmitri Zuev, Alec White,
  David Stuck, Shaama M.S., Shane Yost, Joonho Lee, David Small,
  Daniel Levine, Susi Lehtola, Hugh Burton, Evgeny Epifanovsky,
  Bang C. Huynh
 -----------------------------------------------------------------------
 Exchange:     0.1500 Hartree-Fock + 1.0000 wB97M-V + LR-HF
 Correlation:  1.0000 wB97M-V
 Using SG-2 standard quadrature grid
 Nonlocal Correlation:  VV10 with C = 0.0100 and b = 6.00 and scale = 1.00000
 Grid used for NLC:  SG-1 standard quadrature
 
 Citation of the SMD model:
 Marenich, A.V.; Cramer, C.J.; Truhlar, D.G.
 J. Phys. Chem. B 2009, 113, 6378-6396.
 iSolventCode=           1
 Solvent: water                                                           
 
 vradii
            1           2           3           4           5           6
    1   1.8500000   1.5200000   1.8500000   1.5200000   1.8500000   1.5200000
            7           8           9          10          11          12
    1   1.5200000   1.2000000   1.2000000   1.2000000   1.2000000   1.5200000
           13          14          15          16          17
    1   1.2000000   1.5200000   1.5200000   1.2000000   1.2000000
 -------------------------------------------------------
 OpenMP BLAS3 based DFT computing Module                
 Release: version 1.0, May 2013, Q-Chem Inc. Pittsburgh 
 -------------------------------------------------------
 A unrestricted SCF calculation will be
 performed using Roothaan-Hall, DIIS, GDM
 SCF converges when RMS gradient is below 1.0e-06
 ---------------------------------------
  Cycle       Energy         DIIS error
 ---------------------------------------
    1    -644.8324894979      2.27e-04  Roothaan Step
 ---------------------------------------
  Cycle       Energy         DIIS error
 ---------------------------------------
    1    -644.8677777296      2.52e-04  
    2    -644.8733831780      1.87e-04  Done DIIS. Switching to GDM
 ---------------------------------------
  Cycle       Energy        RMS Gradient
 ---------------------------------------
    1    -644.8733831780      1.70e-02   Normal BFGS step
    2    -644.8730577807      2.74e-02  Line search: overstep
    3    -644.8752392003      4.51e-03   Normal BFGS step
    4    -644.8753724649      3.88e-03   Normal BFGS step
    5    -644.8754367713      9.34e-04   Normal BFGS step
    6    -644.8754419492      2.46e-04   Normal BFGS step
    7    -644.8754436023      2.59e-04   Normal BFGS step
    8    -644.8754438146      2.03e-04   Normal BFGS step
    9    -644.8754439155      1.06e-04   Normal BFGS step
   10    -644.8754439600      2.43e-05   Normal BFGS step
   11    -644.8754439673      1.59e-05   Normal BFGS step
   12    -644.8754439688      7.61e-06   Normal BFGS step
   13    -644.8754439696      3.37e-06   Normal BFGS step
   14    -644.8754439692      9.94e-07  Convergence criterion met
 ---------------------------------------
 SCF time:   CPU 1694.71s  wall 117.00s 
<S^2> =          1.591946653
(3)  G-ENP(liq) elect-nuc-pol free energy of system     -644.875443969 a.u.
(4)  G-CDS(liq) cavity-dispersion-solvent structure 
     free energy                                                2.8873 kcal/mol
(6)  G-S(liq) free energy of system                     -644.870842828 a.u.
 SCF   energy in the final basis set =     -644.8708428284
 Total energy in the final basis set =     -644.8708428284
 
 --------------------------------------------------------------
 
                    Orbital Energies (a.u.)
 --------------------------------------------------------------
 
 Alpha MOs
 -- Occupied --
-19.4904 -19.4750 -19.4039 -19.3993 -19.3627 -19.3500 -19.3488 -10.4693
-10.4495 -10.3524  -1.4198  -1.2752  -1.2120  -1.1816  -1.1369  -1.0366
 -0.9582  -0.8773  -0.7919  -0.7307  -0.6883  -0.6680  -0.6632  -0.6558
 -0.6416  -0.6371  -0.6043  -0.5777  -0.5740  -0.5577  -0.5346  -0.5066
 -0.4892  -0.4615  -0.4480  -0.4321  -0.4146  -0.4121  -0.4078  -0.4024
 -0.3922
 -- Virtual --
  0.0094   0.0284   0.0388   0.0466   0.0510   0.0660   0.0695   0.0777
  0.0944   0.1082   0.1200   0.1318   0.1348   0.1410   0.1419   0.1494
  0.1582   0.1725   0.1781   0.1838   0.1908   0.1994   0.2133   0.2213
  0.2243   0.2326   0.2488   0.2557   0.2623   0.2729   0.2802   0.2820
  0.2915   0.2937   0.2985   0.3069   0.3112   0.3189   0.3217   0.3307
  0.3382   0.3491   0.3501   0.3560   0.3647   0.3695   0.3741   0.3792
  0.3922   0.3928   0.4024   0.4139   0.4144   0.4238   0.4369   0.4423
  0.4487   0.4661   0.4752   0.4833   0.4902   0.5063   0.5205   0.5660
  0.5810   0.5944   0.6068   0.6286   0.6404   0.6611   0.6684   0.6763
  0.6864   0.6933   0.7044   0.7240   0.7524   0.7604   0.7653   0.7885
  0.8071   0.8279   0.8557   0.8807   0.8981   0.9148   0.9300   0.9403
  0.9584   0.9842   1.0262   1.0339   1.0483   1.0607   1.0633   1.0740
  1.0902   1.0957   1.1076   1.1273   1.1332   1.1441   1.1599   1.1665
  1.1766   1.1825   1.1931   1.1999   1.2169   1.2232   1.2316   1.2363
  1.2542   1.2661   1.2743   1.2956   1.2982   1.3174   1.3225   1.3441
  1.3465   1.3678   1.3806   1.3986   1.4022   1.4302   1.4453   1.4656
  1.4693   1.4765   1.5087   1.5214   1.5381   1.5567   1.5579   1.5712
  1.5791   1.6073   1.6132   1.6368   1.6501   1.6754   1.6933   1.6999
  1.7178   1.7383   1.7519   1.7962   1.8201   1.8304   1.8416   1.8848
  1.8969   1.9282   1.9406   1.9699   1.9970   2.0052   2.0259   2.0629
  2.1140   2.1345   2.2037   2.2166   2.2631   2.2869   2.3126   2.3184
  2.3583   2.3602   2.3713   2.3970   2.4357   2.4577   2.4709   2.4913
  2.4959   2.5578   2.5761   2.6560   2.6735   2.6935   2.7562   2.8068
  2.8211   2.8429   2.8702   2.8966   2.9469   3.0271   3.0386   3.0551
  3.0889   3.1350   3.1660   3.1802   3.2151   3.2312   3.2677   3.2929
  3.3388   3.3453   3.3930   3.4222   3.4385   3.4704   3.4871   3.5269
  3.5505   3.6084   3.6401   3.6728   3.6781   3.7045   3.7482   3.7650
  3.7758   3.8170   3.8393   3.8486   3.8626   3.8767   3.8853   3.8947
  3.9300   3.9416   3.9623   4.0211   4.0336   4.0820   4.1011   4.1466
  4.2014   4.2131   4.2232   4.2479   4.2660   4.2809   4.3232   4.3546
  4.3593   4.3629   4.3982   4.4081   4.4709   4.5126   4.5365   4.5544
  4.5782   4.5998   4.6086   4.6226   4.6610   4.7188   4.7590   4.8531
  4.9199   4.9351   4.9449   4.9562   5.0069   5.0125   5.0466   5.0819
  5.1016   5.1192   5.1404   5.1569   5.1678   5.2059   5.2205   5.2228
  5.2422   5.2464   5.2765   5.2829   5.2968   5.3170   5.3205   5.3319
  5.3440   5.3701   5.3767   5.3954   5.4158   5.4512   5.4768   5.5081
  5.5209   5.5420   5.5539   5.5918   5.6076   5.6188   5.6274   5.6523
  5.6686   5.6965   5.7114   5.7270   5.7319   5.7448   5.7853   5.8043
  5.8706   5.9558   6.0117   6.0401   6.0613   6.1208   6.1584   6.2188
  6.4889   6.5674   6.7147   6.7492   6.7611   6.7735   6.7809   6.8113
  6.8344   6.8504   6.8861   6.9693   6.9719   7.0192   7.0446   7.0721
  7.0766   7.0928   7.1214   7.1545   7.2229   7.2399   7.2552   7.2786
  7.2907   7.3045   7.3433   7.3541   7.4003   7.4123   7.4176   7.4375
  7.4723   7.4902   7.5753   7.5867   7.6443   7.6855   7.7625   7.8224
  7.8559   7.8725   7.9017   8.0081   8.0921   8.1100   8.1997  24.5523
 24.7893  24.8435  50.4580  50.4953  50.5061  50.5802  50.6212  50.6390
 50.6780
 
 Beta MOs
 -- Occupied --
-19.4615 -19.4470 -19.4047 -19.3992 -19.3628 -19.3504 -19.3492 -10.4685
-10.4503 -10.3648  -1.3664  -1.2761  -1.2127  -1.1820  -1.1377  -1.0376
 -0.8937  -0.8741  -0.8061  -0.7338  -0.6898  -0.6492  -0.6425  -0.6177
 -0.6076  -0.5822  -0.5777  -0.5684  -0.5610  -0.5572  -0.5361  -0.5147
 -0.4913  -0.4632  -0.4490  -0.4336  -0.4160  -0.4131  -0.3985  -0.3140
 -- Virtual --
 -0.0159  -0.0150   0.0285   0.0388   0.0463   0.0495   0.0662   0.0697
  0.0775   0.0951   0.1068   0.1199   0.1328   0.1354   0.1405   0.1427
  0.1495   0.1586   0.1729   0.1793   0.1826   0.1927   0.2002   0.2135
  0.2200   0.2254   0.2343   0.2492   0.2565   0.2640   0.2734   0.2799
  0.2829   0.2904   0.2935   0.3025   0.3068   0.3111   0.3205   0.3218
  0.3314   0.3402   0.3464   0.3507   0.3539   0.3645   0.3686   0.3774
  0.3780   0.3911   0.3927   0.4055   0.4138   0.4220   0.4246   0.4361
  0.4433   0.4496   0.4618   0.4754   0.4834   0.4894   0.5076   0.5217
  0.5630   0.5801   0.5925   0.6036   0.6262   0.6383   0.6551   0.6652
  0.6699   0.6785   0.6916   0.6969   0.7201   0.7485   0.7535   0.7578
  0.7802   0.8018   0.8231   0.8536   0.8777   0.8954   0.9168   0.9285
  0.9365   0.9565   0.9846   1.0237   1.0356   1.0502   1.0611   1.0697
  1.0798   1.0931   1.1012   1.1139   1.1311   1.1408   1.1546   1.1688
  1.1748   1.1805   1.1853   1.1984   1.2054   1.2202   1.2250   1.2367
  1.2469   1.2557   1.2638   1.2742   1.2962   1.2989   1.3247   1.3257
  1.3460   1.3482   1.3707   1.3775   1.3981   1.4191   1.4252   1.4467
  1.4687   1.4722   1.4886   1.5077   1.5233   1.5416   1.5543   1.5643
  1.5721   1.5891   1.6117   1.6281   1.6363   1.6476   1.6762   1.6910
  1.7031   1.7198   1.7532   1.7651   1.8037   1.8271   1.8341   1.8462
  1.8922   1.9070   1.9309   1.9447   1.9749   1.9974   2.0061   2.0291
  2.0640   2.1138   2.1345   2.2016   2.2153   2.2634   2.2865   2.3148
  2.3448   2.3672   2.3726   2.3848   2.4058   2.4331   2.4563   2.4685
  2.4917   2.4938   2.5560   2.5734   2.6592   2.6750   2.6917   2.7403
  2.7961   2.8090   2.8347   2.8584   2.8827   2.9312   2.9943   3.0079
  3.0259   3.0646   3.0866   3.1258   3.1591   3.2002   3.2096   3.2513
  3.2646   3.3149   3.3337   3.3663   3.3993   3.4242   3.4408   3.4721
  3.4876   3.5441   3.5818   3.6244   3.6571   3.6613   3.6983   3.7184
  3.7541   3.7680   3.8065   3.8354   3.8471   3.8568   3.8651   3.8754
  3.8906   3.9269   3.9356   3.9541   4.0138   4.0178   4.0717   4.0842
  4.1383   4.1973   4.2037   4.2075   4.2460   4.2534   4.2745   4.3105
  4.3325   4.3373   4.3475   4.3943   4.3965   4.4622   4.5057   4.5165
  4.5584   4.6105   4.6169   4.6486   4.6546   4.6872   4.7173   4.7575
  4.8516   4.9213   4.9792   4.9907   5.0067   5.0140   5.0471   5.0849
  5.1048   5.1522   5.1718   5.2053   5.2172   5.2248   5.2363   5.2382
  5.2406   5.2503   5.2754   5.2808   5.2890   5.2971   5.3197   5.3306
  5.3420   5.3642   5.3689   5.3721   5.3957   5.4137   5.4500   5.4739
  5.5046   5.5082   5.5308   5.5501   5.5877   5.5962   5.6084   5.6245
  5.6365   5.6513   5.6696   5.7092   5.7335   5.7784   5.7856   5.7913
  5.8027   5.8696   5.9528   6.0098   6.0377   6.0608   6.1191   6.1576
  6.2177   6.4870   6.5690   6.7414   6.7826   6.8287   6.8441   6.8550
  6.8675   6.8954   6.9605   6.9894   7.0220   7.0241   7.0382   7.0701
  7.0788   7.0871   7.1169   7.1489   7.1618   7.2240   7.2394   7.2556
  7.2782   7.2907   7.3050   7.3442   7.4006   7.4074   7.4204   7.4383
  7.4476   7.4759   7.4906   7.5745   7.5866   7.6436   7.6848   7.7615
  7.8218   7.8551   7.8719   7.9008   8.0068   8.1217   8.1566   8.1993
 24.5434  24.7852  24.8423  50.4789  50.4965  50.5281  50.5803  50.6209
 50.6389  50.6780
 --------------------------------------------------------------
 
[...]

 -----------------------------------------------------------------
                    Cartesian Multipole Moments
 -----------------------------------------------------------------
    Charge (ESU x 10^10)
                 0.0000
    Dipole Moment (Debye)
         X      -1.2850      Y       4.3346      Z       1.2099
       Tot       4.6802
    Quadrupole Moments (Debye-Ang)
        XX     -66.1166     XY      19.2127     YY     -60.5119
        XZ       8.8938     YZ      -5.4252     ZZ     -57.0470
    Octopole Moments (Debye-Ang^2)
       XXX    -678.5144    XXY     107.2591    XYY    -217.3697
       YYY      70.9358    XXZ      25.2805    XYZ     -27.3985
       YYZ       8.1634    XZZ    -217.7119    YZZ      29.0854
       ZZZ       7.9839
    Hexadecapole Moments (Debye-Ang^3)
      XXXX   -5526.5535   XXXY     493.5885   XXYY    -994.5991
      XYYY     110.0386   YYYY    -542.4992   XXXZ     -86.3014
      XXYZ    -161.6728   XYYZ     -23.3835   YYYZ    -150.0189
      XXZZ   -1027.3351   XYZZ      49.7852   YYZZ    -204.4001
      XZZZ     -75.2455   YZZZ    -131.7265   ZZZZ    -512.4639
 -----------------------------------------------------------------
 Calculating analytic gradient of the SCF energy
 Gradient of CDS energy
            1           2           3           4           5           6
    1  -0.0017082   0.0021771  -0.0001773   0.0001974  -0.0005246   0.0000768
    2  -0.0027706  -0.0006919  -0.0023608   0.0023873   0.0008240  -0.0000932
    3  -0.0001588  -0.0006375   0.0028682  -0.0031337   0.0000894   0.0001109
            7           8           9          10          11          12
    1   0.0000949   0.0002364  -0.0005080   0.0000311   0.0002795  -0.0003002
    2   0.0001064   0.0000570   0.0000652  -0.0001933  -0.0001088   0.0034224
    3  -0.0000457  -0.0000701  -0.0000793   0.0002020  -0.0001796   0.0006331
           13          14          15          16          17
    1  -0.0000426  -0.0000346  -0.0001930   0.0000212   0.0003740
    2  -0.0004802  -0.0000036  -0.0001893  -0.0002144   0.0002436
    3   0.0001121  -0.0000116   0.0001056   0.0004002  -0.0002053
 Gradient of SCF Energy
            1           2           3           4           5           6
    1  -0.0019648   0.0053418   0.0054516  -0.0056422  -0.0001201  -0.0038007
    2  -0.0017521   0.0011191   0.0113223  -0.0081524  -0.0185235   0.0049512
    3   0.0030677   0.0129034   0.0002697  -0.0105879  -0.0012267  -0.0035834
            7           8           9          10          11          12
    1   0.0034620  -0.0028120  -0.0072969  -0.0037748   0.0034654   0.0047706
    2  -0.0045014   0.0036951  -0.0001411   0.0026069   0.0088384  -0.0025019
    3   0.0038279  -0.0026672  -0.0106283   0.0102671  -0.0084924  -0.0045282
           13          14          15          16          17
    1  -0.0022168   0.0012005  -0.0055785   0.0042045   0.0053103
    2  -0.0008961  -0.0055058  -0.0121309   0.0076843   0.0138878
    3   0.0020230   0.0004345  -0.0083630   0.0110120   0.0062719
 Max gradient component =       1.852E-02
 RMS gradient           =       6.724E-03
 Computing fast CPCM-SWIG gradient
 Updating gradient with PCM contributions...
 -- total gradient after adding PCM contribution --
---------------------------------------------------
  Atom         X              Y              Z     
---------------------------------------------------
   1       0.000001      -0.000010       0.000006
   2       0.000001      -0.000028       0.000013
   3      -0.000002       0.000003      -0.000002
   4       0.000028       0.000001      -0.000005
   5       0.000000       0.000006      -0.000004
   6      -0.000025       0.000025      -0.000006
   7       0.000011       0.000041      -0.000040
   8      -0.000005      -0.000023       0.000003
   9       0.000001      -0.000023       0.000011
  10      -0.000006       0.000004      -0.000010
  11      -0.000018      -0.000002      -0.000016
  12       0.000017      -0.000014       0.000023
  13       0.000012      -0.000011       0.000026
  14       0.000004       0.000005       0.000004
  15      -0.000011      -0.000002      -0.000007
  16      -0.000001       0.000024       0.000019
  17      -0.000007       0.000004      -0.000018
---------------------------------------------------
 Number of fixed atoms: 0
 Gradient time:  CPU 257.24 s  wall 21.98 s
 Geometry Optimization Parameters
   NAtoms,    NIC,     NZ,  NCons,   NDum,   NFix, NCnnct, MaxDiis
       17     125       0       0       0       0       0       0

 Cartesian Hessian Update
 Hessian updated using Powell/Murtagh-Sargent update
  Mixing factors:     0.991974 Powell                      0.008026 Murtagh-Sargent


** GEOMETRY OPTIMIZATION IN DELOCALIZED INTERNAL COORDINATES **
   Searching for a Transition State

   Optimization Cycle:  13

                       Coordinates (Angstroms)
     ATOM                X               Y               Z
      1  C         2.3972647610   -1.0240579267   -0.9595223924
      2  O         1.1167199182   -0.7251601535   -0.4581781949
      3  C         3.4079000615   -0.5131846219    0.0851089431
      4  O         3.3232732433   -1.3665573599    1.1842192489
      5  C         3.1874949534    0.9144226024    0.4248554521
      6  O         5.2113717940    1.5080434126    1.3926105461
      7  O         5.7009802897    0.7038899268    2.1518282090
      8  H         2.5735033606   -0.5231584511   -1.9090725448
      9  H         0.4804948899   -0.8563955287   -1.1705565924
     10  H         2.6110297792    1.1416126511    1.3077712623
     11  H         3.2775316300    1.6627721946   -0.3466160485
     12  O         2.5579288192   -2.3977826025   -1.1994725731
     13  H         2.5200178429   -2.8583505885   -0.3502684613
     14  O         4.7432353197   -0.7549928100   -0.4268207904
     15  O         4.9865178715    0.1085445944   -1.5330954904
     16  H         3.7498750331   -0.9532661143    1.9450679563
     17  H         5.4640716328    0.8446357755   -1.1214398296
   Point Group: c1    Number of degrees of freedom:    45


   Energy is   -644.871614044

 Hessian updated using Powell/Murtagh-Sargent update
  Mixing factors:     0.850482 Powell                      0.149518 Murtagh-Sargent

 45 Hessian modes will be used to form the next step
  Hessian Eigenvalues:
    -0.006215    0.000727    0.002253    0.002886    0.004149    0.005105
     0.006001    0.006699    0.006906    0.008623    0.014416    0.017062
     0.024462    0.031306    0.045586    0.057267    0.058177    0.060310
     0.074230    0.079030    0.084736    0.095511    0.096033    0.125535
     0.133051    0.176747    0.184834    0.197462    0.211117    0.227363
     0.252194    0.268401    0.290995    0.306547    0.334301    0.360346
     0.361363    0.413500    0.432074    0.451384    0.461039    0.487995
     0.499440    0.528376    0.707891

 Transition state search - taking P-RFO step
 Searching for Lamda that Maximizes Along the Lowest mode
 Value Taken    Lamda =   0.00000001
 Searching for Lamda that Minimizes Along All other modes
 Value Taken    Lamda =  -0.00000041
 Step Taken.  Stepsize is  0.021989

                             Maximum     Tolerance    Cnvgd?
         Gradient           0.000016      0.000300     YES
         Displacement       0.010273      0.001200      NO
         Energy change     -0.000000      0.000001     YES

 Final energy is   -644.871614044043     


 ******************************
 **  OPTIMIZATION CONVERGED  **
 ******************************

                       Coordinates (Angstroms)
     ATOM                X               Y               Z
      1  C         2.3972647610   -1.0240579267   -0.9595223924
      2  O         1.1167199182   -0.7251601535   -0.4581781949
      3  C         3.4079000615   -0.5131846219    0.0851089431
      4  O         3.3232732433   -1.3665573599    1.1842192489
      5  C         3.1874949534    0.9144226024    0.4248554521
      6  O         5.2113717940    1.5080434126    1.3926105461
      7  O         5.7009802897    0.7038899268    2.1518282090
      8  H         2.5735033606   -0.5231584511   -1.9090725448
      9  H         0.4804948899   -0.8563955287   -1.1705565924
     10  H         2.6110297792    1.1416126511    1.3077712623
     11  H         3.2775316300    1.6627721946   -0.3466160485
     12  O         2.5579288192   -2.3977826025   -1.1994725731
     13  H         2.5200178429   -2.8583505885   -0.3502684613
     14  O         4.7432353197   -0.7549928100   -0.4268207904
     15  O         4.9865178715    0.1085445944   -1.5330954904
     16  H         3.7498750331   -0.9532661143    1.9450679563
     17  H         5.4640716328    0.8446357755   -1.1214398296

Z-matrix Print:
$molecule
0 2
O 
O  1 1.424334
H  2 0.969200 1 102.399325
C  1 1.450401 2 109.288049 3 96.613986 0
O  4 1.394077 1 103.421337 2 -177.449837 0
H  5 0.965241 4 109.422604 1 81.569917 0
C  4 1.483937 1 112.206327 2 -54.704758 0
H  7 1.078565 4 119.428674 1 60.314823 0
H  7 1.078642 4 117.996290 1 -141.374100 0
C  4 1.540659 1 108.018997 2 69.405121 0
H  10 1.087936 4 109.442497 1 -57.378911 0
O  10 1.403748 4 111.427549 1 60.055788 0
H  12 0.966803 10 108.153406 4 53.536101 0
O  10 1.407296 4 106.553852 1 -177.630924 0
H  14 0.964100 10 107.958976 4 167.779038 0
O  7 2.320563 4 102.241956 1 -39.984726 0
O  16 1.209459 7 116.408144 4 -42.009648 0
$end

 
 --------------------------------------------------------------
 
                    Orbital Energies (a.u.)
 --------------------------------------------------------------
 
 Alpha MOs
 -- Occupied --
-19.4874 -19.4671 -19.4032 -19.3982 -19.3623 -19.3490 -19.3480 -10.4693
-10.4494 -10.3555  -1.4200  -1.2782  -1.2129  -1.1842  -1.1382  -1.0373
 -0.9532  -0.8798  -0.7959  -0.7352  -0.6902  -0.6668  -0.6612  -0.6539
 -0.6445  -0.6388  -0.6053  -0.5803  -0.5747  -0.5599  -0.5337  -0.5097
 -0.4856  -0.4605  -0.4507  -0.4336  -0.4135  -0.4095  -0.4028  -0.3973
 -0.3914
 -- Virtual --
  0.0114   0.0283   0.0389   0.0467   0.0513   0.0659   0.0700   0.0778
  0.0944   0.1086   0.1228   0.1311   0.1346   0.1412   0.1426   0.1501
  0.1579   0.1714   0.1774   0.1831   0.1929   0.2005   0.2147   0.2197
  0.2268   0.2359   0.2498   0.2567   0.2619   0.2741   0.2799   0.2812
  0.2915   0.2955   0.3030   0.3074   0.3114   0.3221   0.3239   0.3315
  0.3405   0.3515   0.3534   0.3569   0.3656   0.3711   0.3763   0.3809
  0.3873   0.3942   0.4015   0.4129   0.4149   0.4242   0.4399   0.4450
  0.4510   0.4675   0.4691   0.4817   0.4902   0.5021   0.5200   0.5673
  0.5756   0.5949   0.6130   0.6291   0.6425   0.6529   0.6672   0.6767
  0.6912   0.6940   0.7072   0.7284   0.7530   0.7641   0.7722   0.8000
  0.8095   0.8249   0.8507   0.8803   0.8995   0.9097   0.9278   0.9473
  0.9639   0.9923   1.0232   1.0411   1.0497   1.0589   1.0623   1.0733
  1.0950   1.0995   1.1147   1.1251   1.1372   1.1505   1.1647   1.1689
  1.1740   1.1854   1.1977   1.2090   1.2193   1.2212   1.2297   1.2406
  1.2457   1.2656   1.2727   1.2940   1.2966   1.3094   1.3142   1.3416
  1.3425   1.3616   1.3764   1.3997   1.4074   1.4326   1.4434   1.4741
  1.4758   1.4945   1.5041   1.5212   1.5421   1.5464   1.5665   1.5739
  1.5832   1.6135   1.6279   1.6363   1.6634   1.6787   1.6914   1.6997
  1.7169   1.7401   1.7595   1.7968   1.8086   1.8246   1.8432   1.8883
  1.8998   1.9188   1.9461   1.9878   2.0086   2.0188   2.0313   2.0630
  2.1225   2.1319   2.2021   2.2222   2.2636   2.2933   2.3173   2.3295
  2.3538   2.3669   2.3701   2.4009   2.4324   2.4563   2.4679   2.4857
  2.4945   2.5487   2.5630   2.6538   2.6787   2.6914   2.7575   2.8093
  2.8206   2.8420   2.8724   2.8931   2.9467   3.0285   3.0387   3.0644
  3.0947   3.1332   3.1687   3.1835   3.2225   3.2369   3.2705   3.3040
  3.3302   3.3506   3.3936   3.4331   3.4364   3.4745   3.4953   3.5472
  3.5598   3.6159   3.6392   3.6775   3.6795   3.7022   3.7465   3.7681
  3.7785   3.8195   3.8338   3.8388   3.8692   3.8774   3.8963   3.9009
  3.9253   3.9481   3.9699   4.0213   4.0482   4.0885   4.1043   4.1510
  4.2044   4.2223   4.2295   4.2568   4.2698   4.2949   4.3238   4.3526
  4.3686   4.3831   4.4026   4.4156   4.4771   4.5181   4.5457   4.5644
  4.5816   4.6020   4.6164   4.6346   4.6855   4.7295   4.7634   4.8574
  4.9254   4.9383   4.9502   4.9686   5.0061   5.0162   5.0457   5.0815
  5.0977   5.1335   5.1445   5.1638   5.1748   5.2101   5.2218   5.2358
  5.2441   5.2521   5.2768   5.2876   5.2973   5.3113   5.3268   5.3346
  5.3474   5.3760   5.3765   5.3968   5.4161   5.4510   5.4786   5.5078
  5.5186   5.5383   5.5584   5.5956   5.6158   5.6292   5.6408   5.6708
  5.6773   5.7075   5.7217   5.7380   5.7511   5.7567   5.7911   5.8086
  5.8804   5.9639   6.0314   6.0716   6.0943   6.1477   6.1637   6.2458
  6.4956   6.5706   6.7253   6.7562   6.7631   6.7961   6.7972   6.8307
  6.8468   6.8765   6.8969   6.9607   6.9853   7.0223   7.0522   7.0793
  7.0943   7.1051   7.1271   7.1487   7.2475   7.2656   7.2759   7.2975
  7.3075   7.3193   7.3568   7.3586   7.4114   7.4191   7.4201   7.4418
  7.4765   7.4934   7.5778   7.6036   7.6605   7.6931   7.7728   7.8215
  7.8551   7.8667   7.9056   8.0135   8.1159   8.1327   8.1914  24.5666
 24.8046  24.8568  50.4674  50.4967  50.5301  50.5808  50.6232  50.6420
 50.6795
 
 Beta MOs
 -- Occupied --
-19.4591 -19.4399 -19.4040 -19.3982 -19.3624 -19.3494 -19.3483 -10.4685
-10.4502 -10.3675  -1.3681  -1.2791  -1.2136  -1.1846  -1.1389  -1.0382
 -0.8964  -0.8716  -0.8085  -0.7380  -0.6916  -0.6522  -0.6459  -0.6190
 -0.6061  -0.5841  -0.5791  -0.5699  -0.5637  -0.5570  -0.5350  -0.5170
 -0.4879  -0.4622  -0.4515  -0.4349  -0.4159  -0.4111  -0.3981  -0.3118
 -- Virtual --
 -0.0122  -0.0109   0.0284   0.0388   0.0465   0.0496   0.0659   0.0702
  0.0776   0.0951   0.1074   0.1227   0.1321   0.1351   0.1410   0.1428
  0.1499   0.1581   0.1716   0.1782   0.1818   0.1941   0.2012   0.2152
  0.2184   0.2275   0.2378   0.2497   0.2577   0.2628   0.2746   0.2807
  0.2813   0.2920   0.2926   0.3051   0.3087   0.3122   0.3217   0.3237
  0.3310   0.3426   0.3504   0.3532   0.3557   0.3663   0.3713   0.3777
  0.3784   0.3861   0.3937   0.4053   0.4134   0.4238   0.4248   0.4386
  0.4480   0.4498   0.4648   0.4691   0.4810   0.4892   0.5043   0.5207
  0.5648   0.5744   0.5928   0.6110   0.6259   0.6401   0.6479   0.6642
  0.6712   0.6835   0.6911   0.7017   0.7230   0.7506   0.7580   0.7663
  0.7920   0.8066   0.8171   0.8484   0.8768   0.8986   0.9119   0.9258
  0.9420   0.9620   0.9923   1.0219   1.0429   1.0489   1.0601   1.0684
  1.0745   1.0991   1.1096   1.1175   1.1356   1.1433   1.1633   1.1661
  1.1759   1.1789   1.1882   1.2050   1.2127   1.2202   1.2291   1.2401
  1.2442   1.2483   1.2639   1.2719   1.2929   1.2970   1.3117   1.3231
  1.3434   1.3456   1.3635   1.3740   1.3991   1.4232   1.4278   1.4438
  1.4739   1.4817   1.5005   1.5108   1.5230   1.5424   1.5489   1.5709
  1.5775   1.5898   1.6243   1.6311   1.6391   1.6586   1.6802   1.6924
  1.7033   1.7217   1.7465   1.7767   1.8011   1.8115   1.8409   1.8466
  1.8919   1.9083   1.9213   1.9504   1.9876   2.0092   2.0212   2.0366
  2.0640   2.1222   2.1315   2.1997   2.2213   2.2648   2.2909   2.3194
  2.3515   2.3618   2.3777   2.3853   2.4122   2.4311   2.4544   2.4658
  2.4844   2.4951   2.5469   2.5610   2.6616   2.6757   2.6886   2.7436
  2.8007   2.8079   2.8364   2.8565   2.8831   2.9293   2.9967   3.0096
  3.0346   3.0743   3.0859   3.1279   3.1636   3.2062   3.2184   3.2562
  3.2790   3.3077   3.3422   3.3682   3.4145   3.4212   3.4477   3.4766
  3.5087   3.5510   3.5879   3.6258   3.6590   3.6651   3.6955   3.7207
  3.7576   3.7736   3.8092   3.8308   3.8326   3.8654   3.8703   3.8890
  3.8921   3.9217   3.9426   3.9624   4.0150   4.0322   4.0769   4.0911
  4.1416   4.1988   4.2106   4.2159   4.2520   4.2611   4.2883   4.3118
  4.3327   4.3495   4.3693   4.3934   4.4066   4.4695   4.5111   4.5297
  4.5634   4.6151   4.6273   4.6525   4.6610   4.7048   4.7318   4.7623
  4.8560   4.9300   4.9888   4.9947   5.0066   5.0148   5.0461   5.0810
  5.1080   5.1523   5.1790   5.2067   5.2186   5.2272   5.2407   5.2420
  5.2476   5.2553   5.2781   5.2867   5.2883   5.2993   5.3201   5.3266
  5.3448   5.3714   5.3735   5.3775   5.3963   5.4182   5.4500   5.4756
  5.5030   5.5103   5.5338   5.5550   5.5939   5.5982   5.6201   5.6297
  5.6579   5.6754   5.6767   5.7125   5.7368   5.7849   5.8002   5.8067
  5.8096   5.8795   5.9608   6.0299   6.0699   6.0939   6.1456   6.1629
  6.2448   6.4935   6.5723   6.7508   6.7934   6.8454   6.8679   6.8759
  6.8825   6.8963   6.9682   6.9893   7.0197   7.0233   7.0446   7.0814
  7.0828   7.0985   7.1180   7.1472   7.1852   7.2479   7.2649   7.2761
  7.2973   7.3088   7.3191   7.3573   7.4025   7.4121   7.4231   7.4436
  7.4592   7.4811   7.4930   7.5769   7.6034   7.6599   7.6925   7.7719
  7.8211   7.8542   7.8661   7.9047   8.0123   8.1493   8.1703   8.1945
 24.5583  24.8006  24.8554  50.4862  50.4995  50.5512  50.5809  50.6229
 50.6420  50.6794
 --------------------------------------------------------------
 
          Ground-State Mulliken Net Atomic Charges

     Atom                 Charge (a.u.)    Spin (a.u.)
  --------------------------------------------------------
      1 C                    -0.130778      -0.025587
      2 O                    -0.418284      -0.002049
      3 C                     0.379862       0.016855
      4 O                    -0.415878      -0.002231
      5 C                    -0.788225      -0.848431
      6 O                     0.038420       0.948964
      7 O                    -0.014112       0.908981
      8 H                     0.282665       0.000021
      9 H                     0.339270       0.000664
     10 H                     0.287530       0.014978
     11 H                     0.322043       0.013257
     12 O                    -0.449494      -0.006947
     13 H                     0.350061       0.000383
     14 O                    -0.172252      -0.021544
     15 O                    -0.294185       0.001786
     16 H                     0.352455       0.000099
     17 H                     0.330903       0.000801
  --------------------------------------------------------
  Sum of atomic charges =     0.000000
  Sum of spin   charges =     1.000000

 -----------------------------------------------------------------
                    Cartesian Multipole Moments
 -----------------------------------------------------------------
    Charge (ESU x 10^10)
                 0.0000
    Dipole Moment (Debye)
         X      -1.2850      Y       4.3346      Z       1.2099
       Tot       4.6802
    Quadrupole Moments (Debye-Ang)
        XX     -66.1166     XY      19.2127     YY     -60.5119
        XZ       8.8938     YZ      -5.4252     ZZ     -57.0470
    Octopole Moments (Debye-Ang^2)
       XXX    -678.5144    XXY     107.2591    XYY    -217.3697
       YYY      70.9358    XXZ      25.2805    XYZ     -27.3985
       YYZ       8.1634    XZZ    -217.7119    YZZ      29.0854
       ZZZ       7.9839
    Hexadecapole Moments (Debye-Ang^3)
      XXXX   -5526.5535   XXXY     493.5885   XXYY    -994.5991
      XYYY     110.0386   YYYY    -542.4992   XXXZ     -86.3014
      XXYZ    -161.6728   XYYZ     -23.3835   YYYZ    -150.0189
      XXZZ   -1027.3351   XYZZ      49.7852   YYZZ    -204.4001
      XZZZ     -75.2455   YZZZ    -131.7265   ZZZZ    -512.4639
 -----------------------------------------------------------------
 Total job time:  1999.03s(wall), 28401.84s(cpu) 
 Wed Jun 26 14:05:01 2024

        *************************************************************
        *                                                           *
        *  Thank you very much for using Q-Chem.  Have a nice day.  *
        *                                                           *
        *************************************************************


