
Running Job 1 of 1 Q_in.in
qchem Q_in.in_185462.0 /scratch/ari.fischer/qChem1421814.hpc-mn1/qchem185462/ 0
/usr/local/qchem-5.4.1/exe/qcprog.exe_s Q_in.in_185462.0 /scratch/ari.fischer/qChem1421814.hpc-mn1/qchem185462/
                  Welcome to Q-Chem
     A Quantum Leap Into The Future Of Chemistry


 Q-Chem 5.4, Q-Chem, Inc., Pleasanton, CA (2021)

 License issued to: Nanyang Technological University (site)

 E. Epifanovsky,  A. T. B. Gilbert,  Xintian Feng,  Joonho Lee,  Yuezhi Mao,  
 N. Mardirossian,  P. Pokhilko,  A. White,  M. Wormit,  M. P. Coons,  
 A. L. Dempwolff,  Zhengting Gan,  D. Hait,  P. R. Horn,  L. D. Jacobson,  
 I. Kaliman,  J. Kussmann,  A. W. Lange,  Ka Un Lao,  D. S. Levine,  Jie Liu,  
 S. C. McKenzie,  A. F. Morrison,  K. Nanda,  F. Plasser,  D. R. Rehn,  
 M. L. Vidal,  Zhi-Qiang You,  Ying Zhu,  B. Alam,  B. Albrecht,  
 A. Aldossary,  E. Alguire,  J. H. Andersen,  D. Barton,  K. Begam,  A. Behn,  
 Y. A. Bernard,  E. J. Berquist,  H. Burton,  A. Carreras,  K. Carter-Fenk,  
 R. Chakraborty,  A. D. Chien,  K. D. Closser,  V. Cofer-Shabica,  
 S. Dasgupta,  Jia Deng,  M. de Wergifosse,  M. Diedenhofen,  Hainam Do,  
 S. Ehlert,  Po-Tung Fang,  S. Fatehi,  Qingguo Feng,  T. Friedhoff,  
 J. Gayvert,  Qinghui Ge,  G. Gidofalvi,  M. Goldey,  J. Gomes,  
 C. Gonzalez-Espinoza,  S. Gulania,  A. Gunina,  M. W. D. Hanson-Heine,  
 P. H. P. Harbach,  A. W. Hauser,  M. F. Herbst,  M. Hernandez Vera,  
 M. Hodecker,  Z. C. Holden,  S. Houck,  Xunkun Huang,  Kerwin Hui,  
 B. C. Huynh,  M. Ivanov,  Hyunjun Ji,  Hanjie Jiang,  B. Kaduk,  S. Kaehler,  
 K. Khistyaev,  Jaehoon Kim,  P. Klunzinger,  Z. Koczor-Benda,  
 Joong Hoon Koh,  D. Kosenkov,  L. Koulias,  T. Kowalczyk,  C. M. Krauter,  
 K. Kue,  A. Kunitsa,  T. Kus,  A. Landau,  K. V. Lawler,  D. Lefrancois,  
 S. Lehtola,  Rain Li,  Yi-Pei Li,  Jiashu Liang,  M. Liebenthal,  
 Hung-Hsuan Lin,  You-Sheng Lin,  Fenglai Liu,  Kuan-Yu Liu,  
 M. Loipersberger,  A. Luenser,  A. Manjanath,  P. Manohar,  E. Mansoor,  
 S. F. Manzer,  Shan-Ping Mao,  A. V. Marenich,  T. Markovich,  S. Mason,  
 S. A. Maurer,  P. F. McLaughlin,  M. F. S. J. Menger,  J.-M. Mewes,  
 S. A. Mewes,  P. Morgante,  J. W. Mullinax,  K. J. Oosterbaan,  G. Paran,  
 Alexander C. Paul,  Suranjan K. Paul,  F. Pavosevic,  Zheng Pei,  S. Prager,  
 E. I. Proynov,  E. Ramos,  B. Rana,  A. E. Rask,  A. Rettig,  R. M. Richard,  
 F. Rob,  E. Rossomme,  T. Scheele,  M. Scheurer,  M. Schneider,  
 N. Sergueev,  S. M. Sharada,  W. Skomorowski,  D. W. Small,  C. J. Stein,  
 Yu-Chuan Su,  E. J. Sundstrom,  Zhen Tao,  J. Thirman,  T. Tsuchimochi,  
 N. M. Tubman,  S. P. Veccham,  O. Vydrov,  J. Wenzel,  J. Witte,  A. Yamada,  
 Kun Yao,  S. Yeganeh,  S. R. Yost,  A. Zech,  Igor Ying Zhang,  Xing Zhang,  
 Yu Zhang,  D. Zuev,  A. Aspuru-Guzik,  A. T. Bell,  N. A. Besley,  
 K. B. Bravaya,  B. R. Brooks,  D. Casanova,  Jeng-Da Chai,  S. Coriani,  
 C. J. Cramer,  A. E. DePrince, III,  R. A. DiStasio Jr.,  A. Dreuw,  
 B. D. Dunietz,  T. R. Furlani,  W. A. Goddard III,  S. Grimme,  
 S. Hammes-Schiffer,  T. Head-Gordon,  W. J. Hehre,  Chao-Ping Hsu,  
 T.-C. Jagau,  Yousung Jung,  A. Klamt,  Jing Kong,  D. S. Lambrecht,  
 WanZhen Liang,  N. J. Mayhall,  C. W. McCurdy,  J. B. Neaton,  
 C. Ochsenfeld,  J. A. Parkhill,  R. Peverati,  V. A. Rassolov,  Yihan Shao,  
 L. V. Slipchenko,  T. Stauch,  R. P. Steele,  J. E. Subotnik,  
 A. J. W. Thom,  A. Tkatchenko,  D. G. Truhlar,  T. Van Voorhis,  
 T. A. Wesolowski,  K. B. Whaley,  H. L. Woodcock III,  P. M. Zimmerman,  
 S. Faraji,  P. M. W. Gill,  M. Head-Gordon,  J. M. Herbert,  A. I. Krylov

 Additional authors for Version 5.4.1: 
 S. Kotaru,  Shaozhi Li,  Xiangyuan Li,  F. Matz,  A. Molle,  Haisheng Ren,  
 Yingli Su,  Hung-Yi Tsai,  C. Utku,  Fang Wang

 Contributors to earlier versions of Q-Chem not listed above: 
 R. D. Adamson,  B. Austin,  R. Baer,  J. Baker,  G. J. O. Beran,  
 K. Brandhorst,  S. T. Brown,  E. F. C. Byrd,  A. K. Chakraborty,  
 G. K. L. Chan,  Chun-Min Chang,  Yunqing Chen,  C.-L. Cheng,  
 Siu Hung Chien,  D. M. Chipman,  D. L. Crittenden,  H. Dachsel,  
 R. J. Doerksen,  A. D. Dutoi,  R. G. Edgar,  J. Fosso-Tande,  
 L. Fusti-Molnar,  D. Ghosh,  A. Ghysels,  A. Golubeva-Zadorozhnaya,  
 J. Gonthier,  M. S. Gordon,  S. R. Gwaltney,  G. Hawkins,  J. E. Herr,  
 A. Heyden,  S. Hirata,  E. G. Hohenstein,  G. Kedziora,  F. J. Keil,  
 C. Kelley,  Jihan Kim,  R. A. King,  R. Z. Khaliullin,  P. P. Korambath,  
 W. Kurlancheek,  A. Laurent,  A. M. Lee,  M. S. Lee,  S. V. Levchenko,  
 Ching Yeh Lin,  D. Liotard,  E. Livshits,  R. C. Lochan,  I. Lotan,  
 L. A. Martinez-Martinez,  P. E. Maslen,  N. Nair,  D. P. O'Neill,  
 D. Neuhauser,  E. Neuscamman,  C. M. Oana,  R. Olivares-Amaya,  R. Olson,  
 T. M. Perrine,  B. Peters,  P. A. Pieniazek,  A. Prociuk,  Y. M. Rhee,  
 J. Ritchie,  M. A. Rohrdanz,  E. Rosta,  N. J. Russ,  H. F. Schaefer III,  
 M. W. Schmidt,  N. E. Schultz,  S. Sharma,  N. Shenvi,  C. D. Sherrill,  
 A. C. Simmonett,  A. Sodt,  T. Stein,  D. Stuck,  K. S. Thanthiriwatte,  
 V. Vanovschi,  L. Vogt,  Tao Wang,  A. Warshel,  M. A. Watson,  
 C. F. Williams,  Q. Wu,  X. Xu,  Jun Yang,  W. Zhang,  Yan Zhao

 Please cite Q-Chem as follows:
 Y. Shao et al., Mol. Phys. 113, 184-215 (2015)
 DOI: 10.1080/00268976.2014.952696

 Q-Chem 5.4.1 for Intel X86 EM64T Linux

 Parts of Q-Chem use Armadillo 9.800.1 (Horizon Scraper).
 http://arma.sourceforge.net/

 Q-Chem begins on Thu Jan 26 17:13:52 2023  

 Host: 
0

     Scratch files written to /scratch/ari.fischer/qChem1421814.hpc-mn1/qchem185462//
 Aug1521 |scratch|qcdevops|jenkins|workspace|build_RNUM 8249   
 Processing $rem in /usr/local/qchem-5.4.1/config/preferences:
 Processing $rem in /home/ari.fischer/.qchemrc:
 Symmetry turned off for PCM/SM12/SMD calculation


!!********************************************.
!!******************Warning*******************.
!!Desired Analytical derivatives not available.
!!Finite difference job might take a long time.
!!********************************************.
!!********************************************.


 2-order derivative to be evaluated numerically with 1-order analytical derivatives

 Checking the input file for inconsistencies... 	...done.

--------------------------------------------------------------
User input:
--------------------------------------------------------------
$molecule
0 2
H         3.3414122728   -1.2705085981   -0.0927755438
C         2.4051711421   -0.7516131488    0.0590718811
C         1.2527706449   -1.4131669833    0.0710961635
H         1.1913694699   -2.4841656140   -0.0681725105
C        -0.0202945272   -0.6817041358    0.3690525252
H        -0.2231004103   -0.7038777696    1.4425828314
C        -0.0377296027    0.7759164619   -0.1142958616
C        -1.1334048302    1.5896649009    0.5610980382
C         1.2987996993    1.4159226462    0.1875394956
H         1.3108222204    2.4960925363    0.2679257566
C         2.4215243295    0.7033273458    0.2470461804
H         3.3732964289    1.1950003705    0.3970136597
O        -2.4364437680    1.0627695830    0.3706292225
H        -1.0701730044    2.6126877661    0.1809928613
O        -0.3063462792    0.8520772795   -1.5190637570
H         0.4064937043    0.4117204427   -1.9984312936
H        -0.9517438991    1.6083808413    1.6340742096
H        -2.6120084025    1.0323228935   -0.5765821368
O        -1.1319810399   -1.3803071812   -0.2711801035
O        -1.3994140203   -2.5002269589    0.3356399366
$end

$rem
BASIS = 6-311++G(2df,2p)
GUI = 2
JOB_TYPE = Frequency
METHOD = wB97M-V
SOLVENT_METHOD = SMD
SCF_ALGORITHM = DIIS_GDM
MAX_SCF_CYCLES = 400
SCF_CONVERGENCE = 7
THRESH = 12
UNRESTRICTED = 1
SYMMETRY_IGNORE = 1
$end
--------------------------------------------------------------
 ----------------------------------------------------------------
             Standard Nuclear Orientation (Angstroms)
    I     Atom           X                Y                Z
 ----------------------------------------------------------------
    1      H       3.3414122728    -1.2705085981    -0.0927755438
    2      C       2.4051711421    -0.7516131488     0.0590718811
    3      C       1.2527706449    -1.4131669833     0.0710961635
    4      H       1.1913694699    -2.4841656140    -0.0681725105
    5      C      -0.0202945272    -0.6817041358     0.3690525252
    6      H      -0.2231004103    -0.7038777696     1.4425828314
    7      C      -0.0377296027     0.7759164619    -0.1142958616
    8      C      -1.1334048302     1.5896649009     0.5610980382
    9      C       1.2987996993     1.4159226462     0.1875394956
   10      H       1.3108222204     2.4960925363     0.2679257566
   11      C       2.4215243295     0.7033273458     0.2470461804
   12      H       3.3732964289     1.1950003705     0.3970136597
   13      O      -2.4364437680     1.0627695830     0.3706292225
   14      H      -1.0701730044     2.6126877661     0.1809928613
   15      O      -0.3063462792     0.8520772795    -1.5190637570
   16      H       0.4064937043     0.4117204427    -1.9984312936
   17      H      -0.9517438991     1.6083808413     1.6340742096
   18      H      -2.6120084025     1.0323228935    -0.5765821368
   19      O      -1.1319810399    -1.3803071812    -0.2711801035
   20      O      -1.3994140203    -2.5002269589     0.3356399366
 ----------------------------------------------------------------
 Nuclear Repulsion Energy =         651.83922036 hartrees
 There are       42 alpha and       41 beta electrons
 Requested basis set is 6-311++G(2df,2p)
 There are 142 shells and 464 basis functions

 Total QAlloc Memory Limit 288000 MB
 Mega-Array Size       188 MB
 MEM_STATIC part       192 MB
 
 Citation of the SMD model:
 Marenich, A.V.; Cramer, C.J.; Truhlar, D.G.
 J. Phys. Chem. B 2009, 113, 6378-6396.
 iSolventCode=           1
 Solvent: water                                                           
 
 vradii
            1           2           3           4           5           6
    1   1.2000000   1.8500000   1.8500000   1.2000000   1.8500000   1.2000000
            7           8           9          10          11          12
    1   1.8500000   1.8500000   1.8500000   1.2000000   1.8500000   1.2000000
           13          14          15          16          17          18
    1   1.5200000   1.2000000   1.5200000   1.2000000   1.2000000   1.2000000
           19          20
    1   1.5200000   1.5200000
 Changing PCM_VDW_RADII to SMD_RADIUS
 Discretize the solute cavity surface with Lebedev spheres
	Using 110 Lebedev grid points for each H atom
	Using 194 Lebedev grid points for other atoms
	Atomic van der Waals radii will be scaled by 1.20
 Remove points where switching function is < 1.0e-08
 Keep 1494 surface tesserae and discard 1630 interior tesserae
 Molecular Surface Area = 172.127 Angst**2
 A cutoff of  1.0D-12 yielded   9082 shell pairs
 There are     97541 function pairs (    121682 Cartesian)
 Smallest overlap matrix eigenvalue = 1.38E-06
 Guess from superposition of atomic densities
 Warning:  Energy on first SCF cycle will be non-variational
 SAD guess density has 83.000000 electrons

 -----------------------------------------------------------------------
  General SCF calculation program by
  Eric Jon Sundstrom, Paul Horn, Yuezhi Mao, Dmitri Zuev, Alec White,
  David Stuck, Shaama M.S., Shane Yost, Joonho Lee, David Small,
  Daniel Levine, Susi Lehtola, Hugh Burton, Evgeny Epifanovsky,
  Bang C. Huynh
 -----------------------------------------------------------------------
 Exchange:     0.1500 Hartree-Fock + 1.0000 wB97M-V + LR-HF
 Correlation:  1.0000 wB97M-V
 Using SG-2 standard quadrature grid
 Nonlocal Correlation:  VV10 with C = 0.0100 and b = 6.00 and scale = 1.00000
 Grid used for NLC:  SG-1 standard quadrature
 using 8 threads for integral computing
 -------------------------------------------------------
 OpenMP Integral computing Module                
 Release: version 1.0, May 2013, Q-Chem Inc. Pittsburgh 
 -------------------------------------------------------
 
 Citation of the SMD model:
 Marenich, A.V.; Cramer, C.J.; Truhlar, D.G.
 J. Phys. Chem. B 2009, 113, 6378-6396.
 iSolventCode=           1
 Solvent: water                                                           
 
 vradii
            1           2           3           4           5           6
    1   1.2000000   1.8500000   1.8500000   1.2000000   1.8500000   1.2000000
            7           8           9          10          11          12
    1   1.8500000   1.8500000   1.8500000   1.2000000   1.8500000   1.2000000
           13          14          15          16          17          18
    1   1.5200000   1.2000000   1.5200000   1.2000000   1.2000000   1.2000000
           19          20
    1   1.5200000   1.5200000
 -------------------------------------------------------
 OpenMP BLAS3 based DFT computing Module                
 Release: version 1.0, May 2013, Q-Chem Inc. Pittsburgh 
 -------------------------------------------------------
 A unrestricted SCF calculation will be
 performed using DIIS, GDM
 SCF converges when RMS gradient is below 1.0e-07
 ---------------------------------------
  Cycle       Energy         DIIS error
 ---------------------------------------
    1    -575.7664884496      1.17e-02  
    2    -572.7504598447      1.26e-03  Done DIIS. Switching to GDM
 ---------------------------------------
  Cycle       Energy        RMS Gradient
 ---------------------------------------
    1    -572.7504598447      6.96e-02   Descent step
    2    -572.8743338401      2.44e-02   Normal BFGS step
    3    -572.8920950928      2.67e-02   Normal BFGS step
    4    -572.8956319877      8.15e-03   Normal BFGS step
    5    -572.8966886140      4.49e-03   Normal BFGS step
    6    -572.8969085504      3.79e-03   Normal BFGS step
    7    -572.8969781835      1.84e-03   Normal BFGS step
    8    -572.8969992109      4.71e-04   Normal BFGS step
    9    -572.8970018356      3.47e-04   Normal BFGS step
   10    -572.8970026130      1.02e-04   Normal BFGS step
   11    -572.8970026916      3.56e-05   Normal BFGS step
   12    -572.8970027087      2.18e-05   Normal BFGS step
   13    -572.8970027133      1.99e-05   Normal BFGS step
   14    -572.8970027159      1.64e-05   Normal BFGS step
   15    -572.8970027174      1.21e-05   Normal BFGS step
   16    -572.8970027182      6.49e-06   Normal BFGS step
   17    -572.8970027185      3.26e-06   Normal BFGS step
   18    -572.8970027186      2.04e-06   Normal BFGS step
   19    -572.8970027187      1.57e-06   Normal BFGS step
   20    -572.8970027187      8.67e-07   Normal BFGS step
   21    -572.8970027187      6.11e-07   Normal BFGS step
   22    -572.8970027187      2.62e-07   Normal BFGS step
   23    -572.8970027187      9.75e-08  Convergence criterion met
 ---------------------------------------
 SCF time:   CPU 3469.66s  wall 440.00s 
<S^2> =          0.753977396
(3)  G-ENP(liq) elect-nuc-pol free energy of system     -572.897002719 a.u.
(4)  G-CDS(liq) cavity-dispersion-solvent structure 
     free energy                                                3.2077 kcal/mol
(6)  G-S(liq) free energy of system                     -572.891890860 a.u.
 SCF   energy in the final basis set =     -572.8918908603
 Total energy in the final basis set =     -572.8918908603
 
 --------------------------------------------------------------
 
                    Orbital Energies (a.u.)
 --------------------------------------------------------------
 
 Alpha MOs
 -- Occupied --
-19.4658 -19.4159 -19.3471 -19.3396 -10.4190 -10.4152 -10.3876 -10.3529
-10.3528 -10.3510 -10.3489  -1.3464  -1.1775  -1.1524  -1.0265  -0.9668
 -0.8953  -0.8668  -0.8008  -0.7345  -0.7272  -0.6730  -0.6541  -0.6398
 -0.6245  -0.6074  -0.5984  -0.5646  -0.5579  -0.5419  -0.5275  -0.5223
 -0.4949  -0.4750  -0.4582  -0.4438  -0.4389  -0.4114  -0.4049  -0.3890
 -0.3765  -0.3296
 -- Virtual --
  0.0187   0.0263   0.0364   0.0418   0.0431   0.0555   0.0589   0.0621
  0.0746   0.0866   0.0950   0.1103   0.1225   0.1287   0.1317   0.1374
  0.1397   0.1421   0.1483   0.1566   0.1609   0.1642   0.1669   0.1710
  0.1727   0.1785   0.1856   0.1886   0.1910   0.2003   0.2039   0.2067
  0.2120   0.2161   0.2220   0.2283   0.2393   0.2453   0.2548   0.2622
  0.2681   0.2738   0.2836   0.2874   0.2900   0.3008   0.3086   0.3161
  0.3209   0.3250   0.3352   0.3397   0.3456   0.3650   0.3697   0.3719
  0.3795   0.3806   0.3857   0.3898   0.4017   0.4036   0.4118   0.4153
  0.4202   0.4288   0.4387   0.4474   0.4535   0.4602   0.4656   0.5109
  0.5188   0.5395   0.5467   0.5577   0.5618   0.5720   0.5933   0.6009
  0.6041   0.6159   0.6234   0.6354   0.6402   0.6482   0.6561   0.6757
  0.6839   0.6910   0.6995   0.7033   0.7114   0.7185   0.7337   0.7365
  0.7510   0.7620   0.7663   0.7821   0.7900   0.7991   0.8083   0.8202
  0.8218   0.8332   0.8478   0.8555   0.8630   0.8758   0.8796   0.9101
  0.9242   0.9365   0.9576   0.9858   1.0059   1.0160   1.0447   1.0561
  1.0634   1.0754   1.0930   1.0967   1.1173   1.1297   1.1345   1.1434
  1.1567   1.1694   1.1781   1.1839   1.1893   1.1975   1.2151   1.2322
  1.2382   1.2419   1.2592   1.2610   1.2731   1.2819   1.2976   1.3046
  1.3159   1.3316   1.3333   1.3391   1.3551   1.3656   1.3740   1.3904
  1.4146   1.4184   1.4367   1.4416   1.4471   1.4581   1.4634   1.4689
  1.4999   1.5047   1.5098   1.5185   1.5356   1.5566   1.5592   1.5713
  1.5853   1.6089   1.6190   1.6250   1.6372   1.6543   1.6724   1.6848
  1.7056   1.7140   1.7303   1.7385   1.7626   1.7849   1.8118   1.8208
  1.8215   1.8439   1.8763   1.9068   1.9242   1.9693   1.9765   2.0026
  2.0192   2.0496   2.0816   2.1024   2.1427   2.1660   2.2031   2.2409
  2.2603   2.2973   2.3244   2.3523   2.3901   2.4056   2.4293   2.4493
  2.4864   2.6263   2.6468   2.6547   2.6825   2.6852   2.7165   2.7489
  2.7639   2.7870   2.7990   2.8091   2.8318   2.8488   2.8564   2.8707
  2.8795   2.8918   2.9065   2.9268   2.9434   2.9460   2.9616   2.9719
  2.9767   3.0000   3.0335   3.0577   3.0669   3.1126   3.1235   3.1532
  3.1804   3.1882   3.1946   3.2121   3.2327   3.2476   3.2524   3.2887
  3.2991   3.3215   3.3249   3.3452   3.3618   3.3772   3.3944   3.4095
  3.4344   3.4478   3.4524   3.4720   3.4796   3.4916   3.5047   3.5160
  3.5322   3.5636   3.5756   3.5788   3.6298   3.6468   3.6492   3.6696
  3.6738   3.6868   3.7229   3.7281   3.7580   3.7719   3.7911   3.8013
  3.8074   3.8252   3.8369   3.8482   3.8644   3.8716   3.8835   3.9049
  3.9320   3.9455   3.9564   3.9713   3.9767   3.9923   4.0207   4.0329
  4.0526   4.0872   4.1004   4.1100   4.1245   4.1527   4.1604   4.1885
  4.1961   4.2268   4.2488   4.2750   4.2903   4.3077   4.3228   4.3338
  4.3694   4.3947   4.4114   4.4154   4.4453   4.4572   4.4894   4.5027
  4.5184   4.5349   4.5570   4.5832   4.6016   4.6248   4.6527   4.6546
  4.6683   4.6928   4.7167   4.7344   4.7666   4.7922   4.8069   4.8292
  4.8884   4.9286   4.9555   4.9766   4.9954   5.0455   5.0858   5.0927
  5.1019   5.1179   5.1607   5.1820   5.2297   5.2651   5.2841   5.2871
  5.3028   5.3144   5.3325   5.3607   5.3667   5.3911   5.4312   5.4540
  5.4660   5.4913   5.5113   5.5674   5.5879   5.6118   5.6355   5.6530
  5.6643   5.6902   5.6976   5.7186   5.7429   5.7716   5.8015   5.8386
  5.9328   5.9370   5.9619   6.0152   6.1154   6.1211   6.2677   6.4822
  6.4965   6.6104   6.6504   6.6660   6.8491   6.9137   6.9974   7.0932
  7.1083   7.1472   7.2412   7.2948   7.3080   7.3197   7.3598   7.3724
  7.4043   7.4270   7.4723   7.4820   7.6632   7.7750   7.8084   7.8251
  7.8564   8.0709   8.1286  24.3150  24.5605  24.7154  24.7460  24.8295
 25.1625  25.3528  50.4447  50.5561  50.6161  50.6839
 
 Beta MOs
 -- Occupied --
-19.4549 -19.3977 -19.3471 -19.3395 -10.4189 -10.4156 -10.3876 -10.3528
-10.3526 -10.3510 -10.3489  -1.3201  -1.1772  -1.1522  -1.0054  -0.9562
 -0.8950  -0.8605  -0.7970  -0.7317  -0.7246  -0.6689  -0.6429  -0.6277
 -0.6088  -0.6029  -0.5861  -0.5539  -0.5408  -0.5367  -0.5255  -0.5173
 -0.4786  -0.4744  -0.4551  -0.4423  -0.4348  -0.4025  -0.3865  -0.3787
 -0.3295
 -- Virtual --
 -0.0322   0.0195   0.0268   0.0365   0.0420   0.0434   0.0556   0.0591
  0.0624   0.0751   0.0867   0.0953   0.1110   0.1228   0.1291   0.1320
  0.1390   0.1400   0.1424   0.1492   0.1584   0.1613   0.1650   0.1672
  0.1713   0.1729   0.1799   0.1859   0.1909   0.1913   0.2004   0.2048
  0.2073   0.2123   0.2163   0.2233   0.2287   0.2398   0.2516   0.2570
  0.2628   0.2691   0.2746   0.2846   0.2892   0.2924   0.3016   0.3092
  0.3169   0.3221   0.3255   0.3356   0.3426   0.3467   0.3654   0.3701
  0.3741   0.3797   0.3824   0.3861   0.3903   0.4039   0.4045   0.4121
  0.4172   0.4209   0.4313   0.4397   0.4486   0.4540   0.4609   0.4667
  0.5115   0.5199   0.5401   0.5486   0.5588   0.5623   0.5723   0.5936
  0.6011   0.6043   0.6166   0.6236   0.6357   0.6402   0.6485   0.6566
  0.6764   0.6841   0.6914   0.6998   0.7037   0.7116   0.7186   0.7341
  0.7367   0.7511   0.7623   0.7665   0.7824   0.7907   0.7992   0.8087
  0.8205   0.8219   0.8333   0.8482   0.8557   0.8634   0.8770   0.8798
  0.9104   0.9248   0.9373   0.9579   0.9870   1.0065   1.0172   1.0468
  1.0564   1.0652   1.0757   1.0944   1.0979   1.1180   1.1313   1.1350
  1.1477   1.1593   1.1730   1.1802   1.1844   1.1987   1.2039   1.2205
  1.2372   1.2433   1.2473   1.2636   1.2696   1.2786   1.2841   1.3012
  1.3072   1.3174   1.3328   1.3346   1.3406   1.3562   1.3664   1.3756
  1.3922   1.4168   1.4205   1.4374   1.4424   1.4502   1.4589   1.4645
  1.4715   1.5024   1.5064   1.5119   1.5218   1.5367   1.5589   1.5611
  1.5756   1.5864   1.6109   1.6220   1.6289   1.6417   1.6579   1.6772
  1.7001   1.7136   1.7199   1.7393   1.7431   1.7651   1.7867   1.8133
  1.8236   1.8270   1.8472   1.8775   1.9134   1.9290   1.9709   1.9775
  2.0042   2.0224   2.0505   2.0839   2.1052   2.1483   2.1676   2.2052
  2.2471   2.2693   2.3045   2.3342   2.3634   2.3952   2.4082   2.4309
  2.4502   2.4876   2.6268   2.6470   2.6553   2.6833   2.6896   2.7187
  2.7508   2.7654   2.7876   2.7994   2.8101   2.8322   2.8490   2.8571
  2.8709   2.8797   2.8922   2.9068   2.9271   2.9437   2.9468   2.9617
  2.9720   2.9769   3.0003   3.0337   3.0585   3.0674   3.1129   3.1241
  3.1537   3.1807   3.1883   3.1949   3.2124   3.2332   3.2480   3.2526
  3.2889   3.2996   3.3218   3.3252   3.3454   3.3620   3.3775   3.3947
  3.4099   3.4346   3.4481   3.4529   3.4722   3.4800   3.4917   3.5049
  3.5163   3.5325   3.5639   3.5761   3.5789   3.6303   3.6473   3.6494
  3.6699   3.6740   3.6869   3.7231   3.7283   3.7584   3.7724   3.7913
  3.8016   3.8072   3.8256   3.8371   3.8487   3.8646   3.8718   3.8837
  3.9050   3.9325   3.9456   3.9568   3.9717   3.9772   3.9925   4.0210
  4.0334   4.0528   4.0875   4.1007   4.1104   4.1246   4.1529   4.1609
  4.1890   4.1966   4.2272   4.2492   4.2760   4.2905   4.3093   4.3231
  4.3339   4.3697   4.3953   4.4118   4.4167   4.4473   4.4577   4.4904
  4.5034   4.5191   4.5380   4.5574   4.5880   4.6051   4.6259   4.6571
  4.6689   4.6737   4.6966   4.7197   4.7398   4.7693   4.7958   4.8080
  4.8364   4.9009   4.9416   4.9605   4.9812   4.9985   5.0585   5.0918
  5.1375   5.1486   5.1651   5.1922   5.2084   5.2473   5.2816   5.2974
  5.3141   5.3164   5.3219   5.3417   5.3644   5.3696   5.3960   5.4439
  5.4580   5.4751   5.4957   5.5251   5.5727   5.5899   5.6182   5.6440
  5.6550   5.6667   5.6922   5.7002   5.7233   5.7443   5.7724   5.8133
  5.8551   5.9374   5.9380   5.9625   6.0157   6.1160   6.1214   6.2684
  6.5121   6.5309   6.6195   6.6537   6.6671   6.9320   6.9894   7.0572
  7.0970   7.1373   7.1568   7.2670   7.3091   7.3194   7.3424   7.3616
  7.3780   7.4125   7.4411   7.4901   7.5140   7.6641   7.7751   7.8091
  7.8395   7.8566   8.0851   8.1472  24.3151  24.5606  24.7153  24.7457
 24.8295  25.1626  25.3529  50.4574  50.5657  50.6162  50.6841
 --------------------------------------------------------------
 
          Ground-State Mulliken Net Atomic Charges

     Atom                 Charge (a.u.)    Spin (a.u.)
  --------------------------------------------------------
      1 H                     0.289692       0.001024
      2 C                    -0.685879      -0.001836
      3 C                     0.105224       0.017442
      4 H                     0.308654      -0.002075
      5 C                    -0.585552       0.000654
      6 H                     0.278108       0.006165
      7 C                     0.742886      -0.002200
      8 C                    -0.520989      -0.001123
      9 C                    -0.618336      -0.001266
     10 H                     0.283618       0.000160
     11 C                    -0.079556       0.001614
     12 H                     0.303894       0.000015
     13 O                    -0.405836       0.005733
     14 H                     0.236521      -0.000179
     15 O                    -0.416878       0.000929
     16 H                     0.334246      -0.000186
     17 H                     0.244276       0.000300
     18 H                     0.340021      -0.001091
     19 O                     0.053632       0.324683
     20 O                    -0.207745       0.651237
  --------------------------------------------------------
  Sum of atomic charges =    -0.000000
  Sum of spin   charges =     1.000000

 -----------------------------------------------------------------
                    Cartesian Multipole Moments
 -----------------------------------------------------------------
    Charge (ESU x 10^10)
                -0.0000
    Dipole Moment (Debye)
         X       5.9892      Y       2.5031      Z      -0.2577
       Tot       6.4963
    Quadrupole Moments (Debye-Ang)
        XX     -66.2217     XY      -4.1738     YY     -67.5035
        XZ       1.5624     YZ       2.3809     ZZ     -64.7310
    Octopole Moments (Debye-Ang^2)
       XXX      27.0370    XXY       2.3957    XYY      13.1188
       YYY      19.7282    XXZ     -16.5259    XYZ       4.5295
       YYZ      -1.7000    XZZ      -7.2633    YZZ      -2.8023
       ZZZ      -8.9234
    Hexadecapole Moments (Debye-Ang^3)
      XXXX    -969.6792   XXXY       9.2365   XXYY    -314.7341
      XYYY     -29.5556   YYYY    -789.8806   XXXZ      51.7055
      XXYZ      -7.3332   XYYZ       6.8519   YYYZ      21.7486
      XXZZ    -216.8233   XYZZ       2.7813   YYZZ    -178.9154
      XZZZ     -11.7094   YZZZ      11.4512   ZZZZ    -193.6732
 -----------------------------------------------------------------
 Calculating analytic gradient of the SCF energy
 Gradient of CDS energy
            1           2           3           4           5           6
    1   0.0001769   0.0003724  -0.0000410  -0.0001025  -0.0001927  -0.0000837
    2  -0.0000981  -0.0003907  -0.0003664  -0.0001791   0.0001071  -0.0000254
    3  -0.0000287  -0.0000320   0.0000111  -0.0000149  -0.0000627   0.0001597
            7           8           9          10          11          12
    1  -0.0001260  -0.0007116  -0.0000357  -0.0000465   0.0003562   0.0001803
    2  -0.0001461   0.0006526   0.0003151   0.0001690   0.0003699   0.0000931
    3  -0.0000947   0.0004174   0.0000253  -0.0000086   0.0001258   0.0000284
           13          14          15          16          17          18
    1   0.0003825   0.0002520   0.0000051  -0.0000066   0.0001092  -0.0004518
    2  -0.0002141   0.0000238  -0.0000390   0.0000151  -0.0002750   0.0000124
    3   0.0000018  -0.0002305   0.0003260  -0.0005137   0.0001013  -0.0002466
           19          20
    1   0.0000049  -0.0000413
    2  -0.0000272   0.0000029
    3   0.0000645  -0.0000289
 Gradient of SCF Energy
            1           2           3           4           5           6
    1   0.0101529  -0.0011266  -0.0071408   0.0013312  -0.0063334   0.0006198
    2  -0.0053432  -0.0002016   0.0086628  -0.0058526  -0.0080203   0.0016040
    3  -0.0014928  -0.0024816   0.0078229  -0.0011531  -0.0115001   0.0064229
            7           8           9          10          11          12
    1   0.0126487  -0.0052612  -0.0155624   0.0003527  -0.0002715   0.0107152
    2  -0.0009717  -0.0058977  -0.0024887   0.0108479  -0.0045475   0.0055764
    3   0.0032923  -0.0058106  -0.0036454   0.0012541   0.0015256   0.0014266
           13          14          15          16          17          18
    1  -0.0039595   0.0017293  -0.0101585   0.0094051   0.0034526   0.0002444
    2  -0.0022201   0.0053000   0.0058067  -0.0053716   0.0006296   0.0022775
    3   0.0061371  -0.0013879   0.0029657  -0.0058302   0.0061555  -0.0041211
           19          20
    1  -0.0009136   0.0000754
    2  -0.0009244   0.0011345
    3   0.0005417  -0.0001218
 Max gradient component =       1.556E-02
 RMS gradient           =       5.673E-03
 Computing fast CPCM-SWIG gradient
 Updating gradient with PCM contributions...
 -- total gradient after adding PCM contribution --
---------------------------------------------------
  Atom         X              Y              Z     
---------------------------------------------------
   1       0.000006       0.000006       0.000014
   2       0.000007      -0.000001       0.000011
   3       0.000017      -0.000013       0.000005
   4      -0.000001      -0.000002      -0.000010
   5      -0.000078       0.000020      -0.000003
   6       0.000008      -0.000003      -0.000001
   7      -0.000016       0.000016      -0.000079
   8      -0.000004      -0.000027       0.000021
   9       0.000016       0.000004       0.000028
  10      -0.000005       0.000005       0.000006
  11      -0.000011      -0.000004       0.000005
  12      -0.000000       0.000007       0.000021
  13      -0.000009       0.000011       0.000008
  14      -0.000001       0.000009      -0.000007
  15       0.000006       0.000003       0.000047
  16       0.000023      -0.000007      -0.000020
  17       0.000000       0.000004       0.000002
  18      -0.000002      -0.000013      -0.000045
  19       0.000063       0.000010      -0.000005
  20      -0.000019      -0.000025       0.000003
---------------------------------------------------
 Number of fixed atoms: 0
 Gradient time:  CPU 470.91 s  wall 67.21 s
 ######################################################
 ######################################################
 # Starting finite difference calculation for IDERIV  #
 Finite diff step size:  1.88973e-03 a.u.
 ----------------------------------------------------------------
             Standard Nuclear Orientation (Angstroms)
    I     Atom           X                Y                Z
 ----------------------------------------------------------------
    1      H       3.3424122728    -1.2705085981    -0.0927755438
    2      C       2.4051711421    -0.7516131488     0.0590718811
    3      C       1.2527706449    -1.4131669833     0.0710961635
    4      H       1.1913694699    -2.4841656140    -0.0681725105
    5      C      -0.0202945272    -0.6817041358     0.3690525252
    6      H      -0.2231004103    -0.7038777696     1.4425828314
    7      C      -0.0377296027     0.7759164619    -0.1142958616
    8      C      -1.1334048302     1.5896649009     0.5610980382
    9      C       1.2987996993     1.4159226462     0.1875394956
   10      H       1.3108222204     2.4960925363     0.2679257566
   11      C       2.4215243295     0.7033273458     0.2470461804
   12      H       3.3732964289     1.1950003705     0.3970136597
   13      O      -2.4364437680     1.0627695830     0.3706292225
   14      H      -1.0701730044     2.6126877661     0.1809928613
   15      O      -0.3063462792     0.8520772795    -1.5190637570
   16      H       0.4064937043     0.4117204427    -1.9984312936
   17      H      -0.9517438991     1.6083808413     1.6340742096
   18      H      -2.6120084025     1.0323228935    -0.5765821368
   19      O      -1.1319810399    -1.3803071812    -0.2711801035
   20      O      -1.3994140203    -2.5002269589     0.3356399366
 ----------------------------------------------------------------
 Nuclear Repulsion Energy =         651.83434804 hartrees
 There are       42 alpha and       41 beta electrons
 Discretize the solute cavity surface with Lebedev spheres
	Using 110 Lebedev grid points for each H atom
	Using 194 Lebedev grid points for other atoms
	Atomic van der Waals radii will be scaled by 1.20
 Remove points where switching function is < 1.0e-08
 Keep 1494 surface tesserae and discard 1630 interior tesserae
 Molecular Surface Area = 172.133 Angst**2
 Requested basis set is 6-311++G(2df,2p)
 There are 142 shells and 464 basis functions
 A cutoff of  1.0D-12 yielded   9082 shell pairs
 There are     97541 function pairs (    121682 Cartesian)
 Smallest overlap matrix eigenvalue = 1.38E-06
 Guess MOs from SCF MO coefficient file

 -----------------------------------------------------------------------
  General SCF calculation program by
  Eric Jon Sundstrom, Paul Horn, Yuezhi Mao, Dmitri Zuev, Alec White,
  David Stuck, Shaama M.S., Shane Yost, Joonho Lee, David Small,
  Daniel Levine, Susi Lehtola, Hugh Burton, Evgeny Epifanovsky,
  Bang C. Huynh
 -----------------------------------------------------------------------
 Exchange:     0.1500 Hartree-Fock + 1.0000 wB97M-V + LR-HF
 Correlation:  1.0000 wB97M-V
 Using SG-2 standard quadrature grid
 Nonlocal Correlation:  VV10 with C = 0.0100 and b = 6.00 and scale = 1.00000
 Grid used for NLC:  SG-1 standard quadrature
 
 Citation of the SMD model:
 Marenich, A.V.; Cramer, C.J.; Truhlar, D.G.
 J. Phys. Chem. B 2009, 113, 6378-6396.
 iSolventCode=           1
 Solvent: water                                                           
 
 vradii
            1           2           3           4           5           6
    1   1.2000000   1.8500000   1.8500000   1.2000000   1.8500000   1.2000000
            7           8           9          10          11          12
    1   1.8500000   1.8500000   1.8500000   1.2000000   1.8500000   1.2000000
           13          14          15          16          17          18
    1   1.5200000   1.2000000   1.5200000   1.2000000   1.2000000   1.2000000
           19          20
    1   1.5200000   1.5200000
 -------------------------------------------------------
 OpenMP BLAS3 based DFT computing Module                
 Release: version 1.0, May 2013, Q-Chem Inc. Pittsburgh 
 -------------------------------------------------------
 A unrestricted SCF calculation will be
 performed using Roothaan-Hall, DIIS, GDM
 SCF converges when RMS gradient is below 1.0e-07
 ---------------------------------------
  Cycle       Energy         DIIS error
 ---------------------------------------
    1    -572.8652816359      1.54e-04  Roothaan Step
 ---------------------------------------
  Cycle       Energy         DIIS error
 ---------------------------------------
    1    -572.8923994549      1.64e-04  
    2    -572.8954119038      1.42e-04  Done DIIS. Switching to GDM
 ---------------------------------------
  Cycle       Energy        RMS Gradient
 ---------------------------------------
    1    -572.8954119038      5.42e-03   Normal BFGS step
    2    -572.8952507466      1.09e-02  Line search: overstep
    3    -572.8968669364      2.56e-03   Normal BFGS step
    4    -572.8969731322      8.19e-04   Normal BFGS step
    5    -572.8969916538      1.28e-03   Normal BFGS step
    6    -572.8970011786      1.61e-04   Normal BFGS step
    7    -572.8970019296      2.57e-04   Normal BFGS step
    8    -572.8970023723      1.51e-04   Normal BFGS step
    9    -572.8970025122      4.20e-05   Normal BFGS step
   10    -572.8970025296      9.31e-06   Normal BFGS step
   11    -572.8970025336      4.44e-06   Normal BFGS step
   12    -572.8970025339      1.56e-06   Normal BFGS step
   13    -572.8970025340      1.28e-06   Normal BFGS step
   14    -572.8970025340      1.06e-06   Normal BFGS step
   15    -572.8970025341      8.31e-07   Normal BFGS step
   16    -572.8970025341      5.84e-07   Normal BFGS step
   17    -572.8970025340      3.53e-07   Normal BFGS step
   18    -572.8970025340      1.49e-07   Normal BFGS step
   19    -572.8970025341      9.40e-08  Convergence criterion met
 ---------------------------------------
 SCF time:   CPU 3068.50s  wall 389.00s 
<S^2> =          0.753977379
(3)  G-ENP(liq) elect-nuc-pol free energy of system     -572.897002534 a.u.
(4)  G-CDS(liq) cavity-dispersion-solvent structure 
     free energy                                                3.2079 kcal/mol
(6)  G-S(liq) free energy of system                     -572.891890340 a.u.
 SCF   energy in the final basis set =     -572.8918903403
 Total energy in the final basis set =     -572.8918903403
 
 --------------------------------------------------------------
 
                    Orbital Energies (a.u.)
 --------------------------------------------------------------
 
 Alpha MOs
 -- Occupied --
-19.4658 -19.4159 -19.3471 -19.3396 -10.4190 -10.4152 -10.3876 -10.3529
-10.3528 -10.3511 -10.3489  -1.3464  -1.1775  -1.1524  -1.0265  -0.9668
 -0.8953  -0.8668  -0.8007  -0.7345  -0.7272  -0.6730  -0.6541  -0.6398
 -0.6245  -0.6074  -0.5984  -0.5646  -0.5579  -0.5419  -0.5275  -0.5223
 -0.4949  -0.4750  -0.4582  -0.4439  -0.4389  -0.4114  -0.4049  -0.3890
 -0.3765  -0.3296
 -- Virtual --
  0.0187   0.0263   0.0364   0.0418   0.0431   0.0555   0.0589   0.0621
  0.0746   0.0866   0.0950   0.1103   0.1225   0.1287   0.1317   0.1374
  0.1397   0.1421   0.1483   0.1566   0.1609   0.1642   0.1669   0.1710
  0.1727   0.1785   0.1856   0.1886   0.1910   0.2003   0.2038   0.2067
  0.2120   0.2161   0.2220   0.2283   0.2392   0.2453   0.2548   0.2622
  0.2681   0.2738   0.2836   0.2874   0.2900   0.3007   0.3086   0.3161
  0.3209   0.3250   0.3352   0.3397   0.3456   0.3650   0.3697   0.3719
  0.3795   0.3806   0.3856   0.3898   0.4017   0.4036   0.4118   0.4153
  0.4202   0.4288   0.4387   0.4474   0.4534   0.4602   0.4656   0.5109
  0.5188   0.5395   0.5467   0.5576   0.5618   0.5720   0.5933   0.6009
  0.6041   0.6158   0.6233   0.6354   0.6401   0.6482   0.6561   0.6757
  0.6839   0.6910   0.6995   0.7033   0.7114   0.7185   0.7337   0.7365
  0.7510   0.7620   0.7663   0.7821   0.7900   0.7991   0.8083   0.8202
  0.8217   0.8332   0.8478   0.8555   0.8630   0.8757   0.8795   0.9101
  0.9242   0.9365   0.9576   0.9858   1.0059   1.0160   1.0447   1.0561
  1.0634   1.0754   1.0929   1.0967   1.1172   1.1297   1.1345   1.1434
  1.1567   1.1694   1.1781   1.1839   1.1893   1.1974   1.2151   1.2322
  1.2382   1.2419   1.2592   1.2611   1.2731   1.2819   1.2976   1.3045
  1.3159   1.3316   1.3333   1.3391   1.3551   1.3656   1.3740   1.3903
  1.4146   1.4183   1.4367   1.4416   1.4471   1.4581   1.4634   1.4689
  1.4999   1.5047   1.5097   1.5185   1.5356   1.5566   1.5591   1.5712
  1.5853   1.6088   1.6190   1.6250   1.6372   1.6543   1.6724   1.6848
  1.7056   1.7139   1.7303   1.7385   1.7625   1.7850   1.8119   1.8208
  1.8215   1.8439   1.8762   1.9068   1.9242   1.9692   1.9765   2.0025
  2.0192   2.0496   2.0815   2.1024   2.1427   2.1660   2.2031   2.2409
  2.2603   2.2973   2.3244   2.3523   2.3901   2.4056   2.4293   2.4493
  2.4864   2.6265   2.6467   2.6547   2.6826   2.6852   2.7164   2.7488
  2.7640   2.7870   2.7990   2.8091   2.8318   2.8488   2.8564   2.8707
  2.8795   2.8918   2.9065   2.9268   2.9434   2.9460   2.9616   2.9718
  2.9766   3.0000   3.0335   3.0577   3.0669   3.1126   3.1235   3.1532
  3.1804   3.1881   3.1945   3.2121   3.2327   3.2476   3.2524   3.2887
  3.2990   3.3215   3.3249   3.3452   3.3618   3.3772   3.3944   3.4094
  3.4344   3.4478   3.4524   3.4720   3.4795   3.4916   3.5047   3.5160
  3.5321   3.5636   3.5755   3.5788   3.6297   3.6469   3.6492   3.6696
  3.6736   3.6867   3.7229   3.7280   3.7580   3.7719   3.7911   3.8013
  3.8072   3.8252   3.8369   3.8482   3.8644   3.8715   3.8835   3.9049
  3.9320   3.9455   3.9565   3.9713   3.9767   3.9922   4.0207   4.0329
  4.0525   4.0872   4.1002   4.1099   4.1245   4.1527   4.1605   4.1885
  4.1960   4.2265   4.2486   4.2750   4.2902   4.3076   4.3228   4.3337
  4.3694   4.3947   4.4114   4.4153   4.4451   4.4572   4.4894   4.5025
  4.5182   4.5349   4.5567   4.5832   4.6015   4.6248   4.6526   4.6542
  4.6683   4.6927   4.7166   4.7343   4.7665   4.7922   4.8069   4.8292
  4.8884   4.9285   4.9554   4.9761   4.9951   5.0454   5.0858   5.0926
  5.1019   5.1179   5.1606   5.1820   5.2296   5.2651   5.2840   5.2870
  5.3025   5.3143   5.3325   5.3606   5.3666   5.3911   5.4311   5.4540
  5.4659   5.4913   5.5112   5.5673   5.5877   5.6117   5.6355   5.6526
  5.6642   5.6902   5.6976   5.7186   5.7428   5.7716   5.8014   5.8386
  5.9325   5.9369   5.9618   6.0152   6.1150   6.1207   6.2673   6.4822
  6.4965   6.6104   6.6504   6.6660   6.8491   6.9137   6.9974   7.0932
  7.1083   7.1472   7.2412   7.2948   7.3080   7.3197   7.3598   7.3724
  7.4043   7.4269   7.4723   7.4820   7.6632   7.7750   7.8084   7.8251
  7.8564   8.0709   8.1286  24.3145  24.5602  24.7153  24.7459  24.8295
 25.1624  25.3525  50.4447  50.5561  50.6161  50.6839
 
 Beta MOs
 -- Occupied --
-19.4549 -19.3977 -19.3471 -19.3395 -10.4189 -10.4156 -10.3876 -10.3528
-10.3526 -10.3511 -10.3489  -1.3201  -1.1772  -1.1522  -1.0054  -0.9562
 -0.8950  -0.8605  -0.7970  -0.7316  -0.7246  -0.6690  -0.6429  -0.6277
 -0.6088  -0.6029  -0.5861  -0.5539  -0.5408  -0.5367  -0.5255  -0.5172
 -0.4786  -0.4744  -0.4551  -0.4423  -0.4348  -0.4025  -0.3865  -0.3787
 -0.3295
 -- Virtual --
 -0.0322   0.0195   0.0268   0.0365   0.0420   0.0434   0.0556   0.0591
  0.0624   0.0751   0.0867   0.0953   0.1110   0.1228   0.1291   0.1320
  0.1390   0.1400   0.1424   0.1492   0.1584   0.1613   0.1650   0.1672
  0.1713   0.1729   0.1799   0.1859   0.1909   0.1914   0.2003   0.2048
  0.2073   0.2123   0.2163   0.2233   0.2287   0.2398   0.2516   0.2570
  0.2628   0.2691   0.2746   0.2846   0.2892   0.2924   0.3015   0.3092
  0.3169   0.3221   0.3255   0.3356   0.3426   0.3467   0.3654   0.3701
  0.3741   0.3797   0.3824   0.3861   0.3903   0.4039   0.4045   0.4121
  0.4172   0.4209   0.4313   0.4397   0.4486   0.4540   0.4609   0.4667
  0.5115   0.5199   0.5401   0.5486   0.5588   0.5623   0.5723   0.5936
  0.6011   0.6043   0.6166   0.6236   0.6357   0.6402   0.6485   0.6566
  0.6764   0.6841   0.6914   0.6998   0.7037   0.7116   0.7186   0.7341
  0.7367   0.7511   0.7623   0.7665   0.7824   0.7906   0.7992   0.8087
  0.8205   0.8219   0.8334   0.8482   0.8558   0.8634   0.8770   0.8798
  0.9104   0.9248   0.9373   0.9579   0.9869   1.0065   1.0172   1.0468
  1.0564   1.0651   1.0757   1.0944   1.0979   1.1180   1.1313   1.1350
  1.1476   1.1593   1.1730   1.1802   1.1844   1.1987   1.2039   1.2205
  1.2371   1.2433   1.2472   1.2636   1.2696   1.2787   1.2841   1.3012
  1.3071   1.3174   1.3328   1.3346   1.3406   1.3562   1.3664   1.3756
  1.3920   1.4168   1.4204   1.4374   1.4424   1.4502   1.4589   1.4645
  1.4715   1.5024   1.5064   1.5118   1.5218   1.5367   1.5588   1.5610
  1.5755   1.5864   1.6108   1.6220   1.6289   1.6417   1.6579   1.6772
  1.7001   1.7136   1.7199   1.7393   1.7431   1.7650   1.7867   1.8134
  1.8236   1.8270   1.8472   1.8775   1.9134   1.9290   1.9709   1.9775
  2.0041   2.0224   2.0505   2.0838   2.1053   2.1483   2.1676   2.2052
  2.2471   2.2693   2.3045   2.3342   2.3634   2.3952   2.4082   2.4309
  2.4502   2.4876   2.6270   2.6470   2.6553   2.6833   2.6895   2.7187
  2.7507   2.7654   2.7876   2.7993   2.8101   2.8322   2.8490   2.8571
  2.8709   2.8797   2.8921   2.9068   2.9270   2.9437   2.9468   2.9617
  2.9720   2.9769   3.0002   3.0337   3.0585   3.0674   3.1129   3.1241
  3.1537   3.1807   3.1882   3.1949   3.2123   3.2332   3.2480   3.2526
  3.2889   3.2995   3.3218   3.3251   3.3454   3.3620   3.3775   3.3947
  3.4098   3.4347   3.4481   3.4529   3.4722   3.4799   3.4916   3.5049
  3.5163   3.5325   3.5639   3.5760   3.5789   3.6302   3.6473   3.6493
  3.6699   3.6738   3.6868   3.7231   3.7282   3.7584   3.7723   3.7913
  3.8016   3.8071   3.8256   3.8371   3.8487   3.8646   3.8717   3.8837
  3.9050   3.9325   3.9456   3.9568   3.9716   3.9772   3.9925   4.0210
  4.0333   4.0527   4.0874   4.1005   4.1103   4.1246   4.1529   4.1609
  4.1890   4.1966   4.2269   4.2489   4.2759   4.2904   4.3092   4.3231
  4.3339   4.3697   4.3953   4.4117   4.4166   4.4471   4.4577   4.4904
  4.5032   4.5190   4.5379   4.5571   4.5879   4.6050   4.6259   4.6567
  4.6689   4.6736   4.6966   4.7196   4.7398   4.7693   4.7958   4.8080
  4.8364   4.9008   4.9415   4.9604   4.9807   4.9982   5.0585   5.0917
  5.1375   5.1486   5.1650   5.1921   5.2083   5.2472   5.2815   5.2971
  5.3140   5.3164   5.3218   5.3417   5.3644   5.3695   5.3959   5.4439
  5.4579   5.4751   5.4957   5.5251   5.5726   5.5897   5.6182   5.6440
  5.6547   5.6666   5.6922   5.7001   5.7232   5.7442   5.7724   5.8132
  5.8550   5.9371   5.9379   5.9624   6.0156   6.1157   6.1210   6.2680
  6.5121   6.5309   6.6195   6.6537   6.6671   6.9320   6.9894   7.0572
  7.0970   7.1373   7.1568   7.2670   7.3091   7.3194   7.3424   7.3616
  7.3780   7.4124   7.4411   7.4901   7.5140   7.6641   7.7751   7.8091
  7.8395   7.8566   8.0851   8.1472  24.3146  24.5602  24.7153  24.7457
 24.8294  25.1624  25.3526  50.4574  50.5657  50.6162  50.6841
 --------------------------------------------------------------
 
          Ground-State Mulliken Net Atomic Charges

     Atom                 Charge (a.u.)    Spin (a.u.)
  --------------------------------------------------------
      1 H                     0.289502       0.001027
      2 C                    -0.685412      -0.001838
      3 C                     0.104785       0.017444
      4 H                     0.308684      -0.002075
      5 C                    -0.585494       0.000647
      6 H                     0.278113       0.006164
      7 C                     0.742939      -0.002199
      8 C                    -0.521003      -0.001123
      9 C                    -0.618325      -0.001269
     10 H                     0.283615       0.000160
     11 C                    -0.079572       0.001618
     12 H                     0.303921       0.000015
     13 O                    -0.405836       0.005733
     14 H                     0.236523      -0.000179
     15 O                    -0.416873       0.000929
     16 H                     0.334243      -0.000186
     17 H                     0.244275       0.000300
     18 H                     0.340021      -0.001091
     19 O                     0.053640       0.324677
     20 O                    -0.207746       0.651244
  --------------------------------------------------------
  Sum of atomic charges =     0.000000
  Sum of spin   charges =     1.000000

 -----------------------------------------------------------------
                    Cartesian Multipole Moments
 -----------------------------------------------------------------
    Charge (ESU x 10^10)
                 0.0000
    Dipole Moment (Debye)
         X       5.9890      Y       2.5034      Z      -0.2575
       Tot       6.4962
    Quadrupole Moments (Debye-Ang)
        XX     -66.2207     XY      -4.1728     YY     -67.5046
        XZ       1.5626     YZ       2.3807     ZZ     -64.7319
    Octopole Moments (Debye-Ang^2)
       XXX      27.0407    XXY       2.3961    XYY      13.1134
       YYY      19.7319    XXZ     -16.5256    XYZ       4.5294
       YYZ      -1.6997    XZZ      -7.2678    YZZ      -2.8009
       ZZZ      -8.9229
    Hexadecapole Moments (Debye-Ang^3)
      XXXX    -969.6756   XXXY       9.2346   XXYY    -314.7487
      XYYY     -29.5378   YYYY    -789.8872   XXXZ      51.7053
      XXYZ      -7.3331   XYYZ       6.8523   YYYZ      21.7481
      XXZZ    -216.8403   XYZZ       2.7870   YYZZ    -178.9170
      XZZZ     -11.7080   YZZZ      11.4506   ZZZZ    -193.6741
 -----------------------------------------------------------------
 Calculating analytic gradient of the SCF energy
 Gradient of CDS energy
            1           2           3           4           5           6
    1   0.0001780   0.0003712  -0.0000410  -0.0001025  -0.0001927  -0.0000837
    2  -0.0000985  -0.0003901  -0.0003664  -0.0001791   0.0001071  -0.0000254
    3  -0.0000288  -0.0000319   0.0000111  -0.0000149  -0.0000627   0.0001597
            7           8           9          10          11          12
    1  -0.0001260  -0.0007116  -0.0000357  -0.0000465   0.0003562   0.0001803
    2  -0.0001461   0.0006526   0.0003151   0.0001690   0.0003698   0.0000931
    3  -0.0000947   0.0004174   0.0000253  -0.0000086   0.0001258   0.0000284
           13          14          15          16          17          18
    1   0.0003825   0.0002520   0.0000051  -0.0000066   0.0001092  -0.0004518
    2  -0.0002141   0.0000238  -0.0000390   0.0000151  -0.0002750   0.0000124
    3   0.0000018  -0.0002305   0.0003260  -0.0005137   0.0001013  -0.0002466
           19          20
    1   0.0000049  -0.0000413
    2  -0.0000272   0.0000029
    3   0.0000645  -0.0000289
 Gradient of SCF Energy
            1           2           3           4           5           6
    1   0.0106953  -0.0016364  -0.0071830   0.0013330  -0.0063347   0.0006189
    2  -0.0055717   0.0000135   0.0086897  -0.0058505  -0.0080264   0.0016046
    3  -0.0015654  -0.0024153   0.0078310  -0.0011541  -0.0114993   0.0064236
            7           8           9          10          11          12
    1   0.0126498  -0.0052613  -0.0155614   0.0003529  -0.0002619   0.0107162
    2  -0.0009726  -0.0058982  -0.0024918   0.0108478  -0.0045552   0.0055778
    3   0.0032922  -0.0058113  -0.0036444   0.0012545   0.0015232   0.0014262
           13          14          15          16          17          18
    1  -0.0039594   0.0017292  -0.0101583   0.0094046   0.0034527   0.0002444
    2  -0.0022200   0.0053004   0.0058068  -0.0053714   0.0006297   0.0022775
    3   0.0061375  -0.0013880   0.0029651  -0.0058300   0.0061560  -0.0041214
           19          20
    1  -0.0009161   0.0000754
    2  -0.0009243   0.0011344
    3   0.0005418  -0.0001219
 Max gradient component =       1.556E-02
 RMS gradient           =       5.697E-03
 Computing fast CPCM-SWIG gradient
 Updating gradient with PCM contributions...
 -- total gradient after adding PCM contribution --
---------------------------------------------------
  Atom         X              Y              Z     
---------------------------------------------------
   1       0.000544      -0.000233      -0.000061
   2      -0.000504       0.000223       0.000078
   3      -0.000020       0.000015       0.000013
   4       0.000001      -0.000001      -0.000011
   5      -0.000079       0.000014      -0.000002
   6       0.000008      -0.000003      -0.000001
   7      -0.000015       0.000015      -0.000078
   8      -0.000003      -0.000027       0.000021
   9       0.000017       0.000003       0.000029
  10      -0.000005       0.000005       0.000007
  11      -0.000002      -0.000010       0.000003
  12       0.000000       0.000008       0.000021
  13      -0.000010       0.000011       0.000008
  14      -0.000001       0.000009      -0.000007
  15       0.000006       0.000003       0.000047
  16       0.000023      -0.000007      -0.000020
  17       0.000000       0.000004       0.000002
  18      -0.000002      -0.000013      -0.000045
  19       0.000061       0.000010      -0.000005
  20      -0.000019      -0.000025       0.000003
---------------------------------------------------
 Number of fixed atoms: 0
 Gradient time:  CPU 473.10 s  wall 67.69 s
 ----------------------------------------------------------------
             Standard Nuclear Orientation (Angstroms)
    I     Atom           X                Y                Z
 ----------------------------------------------------------------
    1      H       3.3404122728    -1.2705085981    -0.0927755438
    2      C       2.4051711421    -0.7516131488     0.0590718811
    3      C       1.2527706449    -1.4131669833     0.0710961635
    4      H       1.1913694699    -2.4841656140    -0.0681725105
    5      C      -0.0202945272    -0.6817041358     0.3690525252
    6      H      -0.2231004103    -0.7038777696     1.4425828314
    7      C      -0.0377296027     0.7759164619    -0.1142958616
    8      C      -1.1334048302     1.5896649009     0.5610980382
    9      C       1.2987996993     1.4159226462     0.1875394956
   10      H       1.3108222204     2.4960925363     0.2679257566
   11      C       2.4215243295     0.7033273458     0.2470461804
   12      H       3.3732964289     1.1950003705     0.3970136597
   13      O      -2.4364437680     1.0627695830     0.3706292225
   14      H      -1.0701730044     2.6126877661     0.1809928613
   15      O      -0.3063462792     0.8520772795    -1.5190637570
   16      H       0.4064937043     0.4117204427    -1.9984312936
   17      H      -0.9517438991     1.6083808413     1.6340742096
   18      H      -2.6120084025     1.0323228935    -0.5765821368
   19      O      -1.1319810399    -1.3803071812    -0.2711801035
   20      O      -1.3994140203    -2.5002269589     0.3356399366
 ----------------------------------------------------------------
 Nuclear Repulsion Energy =         651.84409686 hartrees
 There are       42 alpha and       41 beta electrons
 Discretize the solute cavity surface with Lebedev spheres
	Using 110 Lebedev grid points for each H atom
	Using 194 Lebedev grid points for other atoms
	Atomic van der Waals radii will be scaled by 1.20
 Remove points where switching function is < 1.0e-08
 Keep 1494 surface tesserae and discard 1630 interior tesserae
 Molecular Surface Area = 172.122 Angst**2
 Requested basis set is 6-311++G(2df,2p)
 There are 142 shells and 464 basis functions
 A cutoff of  1.0D-12 yielded   9082 shell pairs
 There are     97541 function pairs (    121682 Cartesian)
 Smallest overlap matrix eigenvalue = 1.38E-06
 Guess MOs from SCF MO coefficient file

 -----------------------------------------------------------------------
  General SCF calculation program by
  Eric Jon Sundstrom, Paul Horn, Yuezhi Mao, Dmitri Zuev, Alec White,
  David Stuck, Shaama M.S., Shane Yost, Joonho Lee, David Small,
  Daniel Levine, Susi Lehtola, Hugh Burton, Evgeny Epifanovsky,
  Bang C. Huynh
 -----------------------------------------------------------------------
 Exchange:     0.1500 Hartree-Fock + 1.0000 wB97M-V + LR-HF
 Correlation:  1.0000 wB97M-V
 Using SG-2 standard quadrature grid
 Nonlocal Correlation:  VV10 with C = 0.0100 and b = 6.00 and scale = 1.00000
 Grid used for NLC:  SG-1 standard quadrature
 
 Citation of the SMD model:
 Marenich, A.V.; Cramer, C.J.; Truhlar, D.G.
 J. Phys. Chem. B 2009, 113, 6378-6396.
 iSolventCode=           1
 Solvent: water                                                           
 
 vradii
            1           2           3           4           5           6
    1   1.2000000   1.8500000   1.8500000   1.2000000   1.8500000   1.2000000
            7           8           9          10          11          12
    1   1.8500000   1.8500000   1.8500000   1.2000000   1.8500000   1.2000000
           13          14          15          16          17          18
    1   1.5200000   1.2000000   1.5200000   1.2000000   1.2000000   1.2000000
           19          20
    1   1.5200000   1.5200000
 -------------------------------------------------------
 OpenMP BLAS3 based DFT computing Module                
 Release: version 1.0, May 2013, Q-Chem Inc. Pittsburgh 
 -------------------------------------------------------
 A unrestricted SCF calculation will be
 performed using Roothaan-Hall, DIIS, GDM
 SCF converges when RMS gradient is below 1.0e-07
 ---------------------------------------
  Cycle       Energy         DIIS error
 ---------------------------------------
    1    -572.8652872285      1.54e-04  Roothaan Step
 ---------------------------------------
  Cycle       Energy         DIIS error
 ---------------------------------------
    1    -572.8923932880      1.64e-04  
    2    -572.8954091630      1.42e-04  Done DIIS. Switching to GDM
 ---------------------------------------
  Cycle       Energy        RMS Gradient
 ---------------------------------------
    1    -572.8954091630      5.41e-03   Normal BFGS step
    2    -572.8952496470      1.09e-02  Line search: overstep
    3    -572.8968660614      2.57e-03   Normal BFGS step
    4    -572.8969724075      8.20e-04   Normal BFGS step
    5    -572.8969910102      1.28e-03   Normal BFGS step
    6    -572.8970005234      1.62e-04   Normal BFGS step
    7    -572.8970012787      2.58e-04   Normal BFGS step
    8    -572.8970017238      1.52e-04   Normal BFGS step
    9    -572.8970018642      4.23e-05   Normal BFGS step
   10    -572.8970018818      9.55e-06   Normal BFGS step
   11    -572.8970018858      4.54e-06   Normal BFGS step
   12    -572.8970018861      1.89e-06   Normal BFGS step
   13    -572.8970018862      1.60e-06   Normal BFGS step
   14    -572.8970018863      1.34e-06   Normal BFGS step
   15    -572.8970018863      1.03e-06   Normal BFGS step
   16    -572.8970018863      6.77e-07   Normal BFGS step
   17    -572.8970018863      3.64e-07   Normal BFGS step
   18    -572.8970018863      1.80e-07   Normal BFGS step
   19    -572.8970018863      1.08e-07   Normal BFGS step
   20    -572.8970018863      6.49e-08  Convergence criterion met
 ---------------------------------------
 SCF time:   CPU 3319.98s  wall 421.00s 
<S^2> =          0.753977416
(3)  G-ENP(liq) elect-nuc-pol free energy of system     -572.897001886 a.u.
(4)  G-CDS(liq) cavity-dispersion-solvent structure 
     free energy                                                3.2075 kcal/mol
(6)  G-S(liq) free energy of system                     -572.891890361 a.u.
 SCF   energy in the final basis set =     -572.8918903613
 Total energy in the final basis set =     -572.8918903613
 
 --------------------------------------------------------------
 
                    Orbital Energies (a.u.)
 --------------------------------------------------------------
 
 Alpha MOs
 -- Occupied --
-19.4658 -19.4159 -19.3471 -19.3396 -10.4190 -10.4152 -10.3876 -10.3529
-10.3528 -10.3509 -10.3489  -1.3464  -1.1775  -1.1524  -1.0265  -0.9668
 -0.8953  -0.8668  -0.8008  -0.7345  -0.7272  -0.6730  -0.6541  -0.6398
 -0.6245  -0.6074  -0.5984  -0.5646  -0.5579  -0.5419  -0.5275  -0.5223
 -0.4949  -0.4750  -0.4582  -0.4438  -0.4389  -0.4114  -0.4049  -0.3890
 -0.3765  -0.3296
 -- Virtual --
  0.0187   0.0263   0.0364   0.0418   0.0431   0.0555   0.0589   0.0621
  0.0746   0.0866   0.0950   0.1103   0.1225   0.1287   0.1317   0.1374
  0.1397   0.1421   0.1483   0.1566   0.1609   0.1642   0.1669   0.1710
  0.1727   0.1786   0.1856   0.1886   0.1910   0.2003   0.2039   0.2067
  0.2120   0.2161   0.2220   0.2283   0.2393   0.2453   0.2548   0.2622
  0.2681   0.2738   0.2836   0.2874   0.2900   0.3008   0.3086   0.3161
  0.3209   0.3250   0.3352   0.3397   0.3456   0.3650   0.3697   0.3719
  0.3795   0.3806   0.3857   0.3898   0.4017   0.4036   0.4118   0.4153
  0.4202   0.4288   0.4387   0.4474   0.4535   0.4602   0.4656   0.5109
  0.5188   0.5395   0.5468   0.5577   0.5618   0.5720   0.5933   0.6009
  0.6041   0.6159   0.6234   0.6355   0.6402   0.6482   0.6561   0.6757
  0.6839   0.6910   0.6996   0.7033   0.7114   0.7185   0.7337   0.7365
  0.7510   0.7620   0.7663   0.7821   0.7901   0.7991   0.8083   0.8202
  0.8218   0.8332   0.8478   0.8554   0.8630   0.8758   0.8796   0.9101
  0.9242   0.9365   0.9576   0.9859   1.0059   1.0160   1.0448   1.0561
  1.0634   1.0754   1.0930   1.0967   1.1173   1.1297   1.1345   1.1434
  1.1567   1.1694   1.1782   1.1839   1.1893   1.1975   1.2151   1.2322
  1.2383   1.2420   1.2593   1.2610   1.2731   1.2819   1.2976   1.3046
  1.3159   1.3316   1.3333   1.3391   1.3551   1.3656   1.3740   1.3906
  1.4146   1.4185   1.4367   1.4416   1.4471   1.4581   1.4634   1.4689
  1.4999   1.5047   1.5098   1.5185   1.5356   1.5567   1.5593   1.5713
  1.5853   1.6089   1.6190   1.6250   1.6372   1.6543   1.6724   1.6848
  1.7056   1.7140   1.7303   1.7385   1.7627   1.7849   1.8118   1.8208
  1.8215   1.8439   1.8763   1.9068   1.9242   1.9693   1.9765   2.0028
  2.0192   2.0496   2.0816   2.1024   2.1427   2.1660   2.2031   2.2409
  2.2603   2.2973   2.3244   2.3523   2.3901   2.4056   2.4293   2.4493
  2.4864   2.6261   2.6468   2.6547   2.6825   2.6852   2.7165   2.7490
  2.7638   2.7870   2.7991   2.8092   2.8319   2.8488   2.8564   2.8707
  2.8795   2.8919   2.9065   2.9269   2.9434   2.9461   2.9615   2.9719
  2.9767   3.0000   3.0335   3.0577   3.0670   3.1125   3.1235   3.1532
  3.1805   3.1882   3.1946   3.2122   3.2327   3.2476   3.2525   3.2886
  3.2992   3.3215   3.3250   3.3452   3.3617   3.3771   3.3944   3.4096
  3.4343   3.4478   3.4525   3.4720   3.4796   3.4917   3.5047   3.5160
  3.5322   3.5636   3.5757   3.5788   3.6299   3.6467   3.6492   3.6696
  3.6740   3.6868   3.7229   3.7282   3.7581   3.7720   3.7911   3.8013
  3.8075   3.8252   3.8369   3.8482   3.8645   3.8718   3.8835   3.9049
  3.9321   3.9455   3.9564   3.9713   3.9767   3.9923   4.0206   4.0330
  4.0527   4.0872   4.1005   4.1101   4.1246   4.1528   4.1604   4.1885
  4.1961   4.2270   4.2491   4.2751   4.2903   4.3078   4.3229   4.3338
  4.3694   4.3947   4.4115   4.4155   4.4455   4.4573   4.4894   4.5030
  4.5185   4.5349   4.5572   4.5833   4.6017   4.6249   4.6529   4.6549
  4.6683   4.6928   4.7168   4.7345   4.7667   4.7922   4.8070   4.8292
  4.8885   4.9287   4.9556   4.9770   4.9957   5.0455   5.0859   5.0927
  5.1020   5.1180   5.1608   5.1821   5.2298   5.2652   5.2841   5.2872
  5.3031   5.3144   5.3325   5.3607   5.3668   5.3912   5.4312   5.4541
  5.4660   5.4913   5.5113   5.5674   5.5881   5.6118   5.6355   5.6533
  5.6644   5.6902   5.6977   5.7186   5.7431   5.7716   5.8016   5.8387
  5.9330   5.9371   5.9620   6.0153   6.1157   6.1215   6.2681   6.4822
  6.4965   6.6104   6.6504   6.6660   6.8491   6.9137   6.9974   7.0932
  7.1083   7.1472   7.2412   7.2948   7.3080   7.3197   7.3598   7.3724
  7.4043   7.4270   7.4723   7.4820   7.6633   7.7750   7.8084   7.8251
  7.8564   8.0709   8.1286  24.3155  24.5608  24.7154  24.7460  24.8295
 25.1627  25.3531  50.4447  50.5561  50.6161  50.6839
 
 Beta MOs
 -- Occupied --
-19.4549 -19.3977 -19.3471 -19.3395 -10.4189 -10.4156 -10.3876 -10.3528
-10.3526 -10.3509 -10.3489  -1.3201  -1.1772  -1.1522  -1.0054  -0.9562
 -0.8950  -0.8605  -0.7970  -0.7317  -0.7246  -0.6689  -0.6430  -0.6277
 -0.6088  -0.6029  -0.5861  -0.5539  -0.5408  -0.5367  -0.5255  -0.5173
 -0.4786  -0.4744  -0.4551  -0.4423  -0.4349  -0.4025  -0.3865  -0.3787
 -0.3295
 -- Virtual --
 -0.0322   0.0195   0.0268   0.0365   0.0420   0.0434   0.0556   0.0591
  0.0624   0.0751   0.0867   0.0953   0.1110   0.1228   0.1291   0.1320
  0.1390   0.1400   0.1424   0.1492   0.1584   0.1613   0.1650   0.1672
  0.1713   0.1729   0.1799   0.1859   0.1909   0.1913   0.2004   0.2048
  0.2073   0.2123   0.2163   0.2233   0.2287   0.2398   0.2516   0.2570
  0.2628   0.2691   0.2746   0.2846   0.2892   0.2924   0.3016   0.3092
  0.3169   0.3221   0.3255   0.3356   0.3427   0.3467   0.3654   0.3701
  0.3741   0.3798   0.3824   0.3862   0.3903   0.4039   0.4045   0.4121
  0.4173   0.4209   0.4313   0.4397   0.4486   0.4540   0.4609   0.4667
  0.5115   0.5199   0.5401   0.5486   0.5589   0.5623   0.5723   0.5936
  0.6011   0.6044   0.6166   0.6236   0.6357   0.6403   0.6485   0.6566
  0.6764   0.6841   0.6914   0.6998   0.7037   0.7116   0.7186   0.7341
  0.7367   0.7511   0.7623   0.7665   0.7824   0.7907   0.7992   0.8087
  0.8205   0.8219   0.8333   0.8482   0.8557   0.8634   0.8770   0.8798
  0.9104   0.9248   0.9373   0.9579   0.9870   1.0066   1.0172   1.0468
  1.0564   1.0652   1.0757   1.0944   1.0980   1.1181   1.1313   1.1350
  1.1477   1.1594   1.1730   1.1802   1.1844   1.1987   1.2039   1.2205
  1.2372   1.2433   1.2473   1.2636   1.2696   1.2786   1.2842   1.3012
  1.3072   1.3174   1.3328   1.3346   1.3406   1.3562   1.3664   1.3756
  1.3923   1.4168   1.4206   1.4374   1.4425   1.4502   1.4589   1.4645
  1.4716   1.5025   1.5064   1.5120   1.5218   1.5368   1.5589   1.5611
  1.5756   1.5864   1.6110   1.6220   1.6290   1.6417   1.6580   1.6772
  1.7001   1.7136   1.7200   1.7393   1.7431   1.7652   1.7867   1.8133
  1.8235   1.8270   1.8471   1.8776   1.9134   1.9290   1.9710   1.9775
  2.0043   2.0224   2.0505   2.0839   2.1052   2.1483   2.1677   2.2052
  2.2471   2.2693   2.3045   2.3342   2.3634   2.3952   2.4082   2.4309
  2.4502   2.4876   2.6266   2.6470   2.6553   2.6832   2.6896   2.7187
  2.7509   2.7653   2.7876   2.7994   2.8101   2.8323   2.8490   2.8571
  2.8709   2.8798   2.8922   2.9068   2.9272   2.9438   2.9468   2.9617
  2.9720   2.9770   3.0003   3.0337   3.0585   3.0674   3.1129   3.1241
  3.1537   3.1808   3.1883   3.1950   3.2124   3.2332   3.2480   3.2527
  3.2889   3.2997   3.3218   3.3252   3.3454   3.3620   3.3774   3.3947
  3.4099   3.4346   3.4481   3.4530   3.4722   3.4801   3.4917   3.5049
  3.5164   3.5325   3.5639   3.5761   3.5789   3.6304   3.6472   3.6494
  3.6699   3.6742   3.6870   3.7231   3.7284   3.7584   3.7725   3.7914
  3.8016   3.8073   3.8256   3.8371   3.8487   3.8646   3.8719   3.8836
  3.9051   3.9326   3.9456   3.9568   3.9717   3.9772   3.9926   4.0210
  4.0334   4.0529   4.0875   4.1009   4.1104   4.1247   4.1530   4.1609
  4.1889   4.1967   4.2275   4.2495   4.2761   4.2906   4.3094   4.3231
  4.3340   4.3697   4.3953   4.4119   4.4168   4.4474   4.4578   4.4904
  4.5036   4.5193   4.5380   4.5576   4.5881   4.6051   4.6259   4.6575
  4.6689   4.6738   4.6966   4.7199   4.7399   4.7694   4.7958   4.8081
  4.8364   4.9009   4.9416   4.9606   4.9817   4.9988   5.0586   5.0918
  5.1375   5.1486   5.1652   5.1922   5.2084   5.2474   5.2816   5.2977
  5.3142   5.3165   5.3219   5.3417   5.3644   5.3698   5.3960   5.4440
  5.4580   5.4752   5.4957   5.5252   5.5727   5.5900   5.6182   5.6441
  5.6553   5.6668   5.6922   5.7002   5.7233   5.7445   5.7724   5.8134
  5.8552   5.9375   5.9382   5.9626   6.0158   6.1163   6.1218   6.2687
  6.5121   6.5309   6.6195   6.6537   6.6671   6.9320   6.9894   7.0572
  7.0970   7.1373   7.1568   7.2670   7.3091   7.3194   7.3424   7.3616
  7.3780   7.4125   7.4411   7.4901   7.5140   7.6641   7.7751   7.8091
  7.8395   7.8566   8.0851   8.1472  24.3156  24.5609  24.7154  24.7458
 24.8295  25.1628  25.3532  50.4574  50.5657  50.6162  50.6841
 --------------------------------------------------------------
 
          Ground-State Mulliken Net Atomic Charges

     Atom                 Charge (a.u.)    Spin (a.u.)
  --------------------------------------------------------
      1 H                     0.289881       0.001021
      2 C                    -0.686347      -0.001835
      3 C                     0.105664       0.017441
      4 H                     0.308625      -0.002075
      5 C                    -0.585611       0.000661
      6 H                     0.278102       0.006167
      7 C                     0.742832      -0.002202
      8 C                    -0.520974      -0.001124
      9 C                    -0.618348      -0.001265
     10 H                     0.283622       0.000161
     11 C                    -0.079541       0.001611
     12 H                     0.303868       0.000015
     13 O                    -0.405837       0.005733
     14 H                     0.236519      -0.000179
     15 O                    -0.416883       0.000929
     16 H                     0.334249      -0.000186
     17 H                     0.244277       0.000300
     18 H                     0.340020      -0.001091
     19 O                     0.053625       0.324689
     20 O                    -0.207744       0.651230
  --------------------------------------------------------
  Sum of atomic charges =     0.000000
  Sum of spin   charges =     1.000000

 -----------------------------------------------------------------
                    Cartesian Multipole Moments
 -----------------------------------------------------------------
    Charge (ESU x 10^10)
                 0.0000
    Dipole Moment (Debye)
         X       5.9894      Y       2.5028      Z      -0.2578
       Tot       6.4964
    Quadrupole Moments (Debye-Ang)
        XX     -66.2227     XY      -4.1747     YY     -67.5025
        XZ       1.5622     YZ       2.3810     ZZ     -64.7301
    Octopole Moments (Debye-Ang^2)
       XXX      27.0333    XXY       2.3954    XYY      13.1243
       YYY      19.7244    XXZ     -16.5262    XYZ       4.5296
       YYZ      -1.7004    XZZ      -7.2588    YZZ      -2.8036
       ZZZ      -8.9239
    Hexadecapole Moments (Debye-Ang^3)
      XXXX    -969.6829   XXXY       9.2383   XXYY    -314.7196
      XYYY     -29.5734   YYYY    -789.8740   XXXZ      51.7058
      XXYZ      -7.3333   XYYZ       6.8515   YYYZ      21.7491
      XXZZ    -216.8063   XYZZ       2.7756   YYZZ    -178.9138
      XZZZ     -11.7107   YZZZ      11.4518   ZZZZ    -193.6723
 -----------------------------------------------------------------
 Calculating analytic gradient of the SCF energy
 Gradient of CDS energy
            1           2           3           4           5           6
    1   0.0001759   0.0003735  -0.0000411  -0.0001025  -0.0001927  -0.0000837
    2  -0.0000976  -0.0003912  -0.0003664  -0.0001791   0.0001071  -0.0000254
    3  -0.0000286  -0.0000322   0.0000111  -0.0000149  -0.0000627   0.0001597
            7           8           9          10          11          12
    1  -0.0001260  -0.0007116  -0.0000357  -0.0000465   0.0003562   0.0001803
    2  -0.0001461   0.0006526   0.0003151   0.0001690   0.0003700   0.0000931
    3  -0.0000947   0.0004174   0.0000253  -0.0000086   0.0001258   0.0000284
           13          14          15          16          17          18
    1   0.0003825   0.0002520   0.0000051  -0.0000066   0.0001092  -0.0004518
    2  -0.0002141   0.0000238  -0.0000390   0.0000151  -0.0002750   0.0000124
    3   0.0000018  -0.0002305   0.0003260  -0.0005137   0.0001013  -0.0002466
           19          20
    1   0.0000049  -0.0000413
    2  -0.0000272   0.0000029
    3   0.0000645  -0.0000289
 Gradient of SCF Energy
            1           2           3           4           5           6
    1   0.0096082  -0.0006145  -0.0070985   0.0013295  -0.0063322   0.0006206
    2  -0.0051131  -0.0004185   0.0086359  -0.0058547  -0.0080141   0.0016035
    3  -0.0014197  -0.0025485   0.0078147  -0.0011521  -0.0115008   0.0064222
            7           8           9          10          11          12
    1   0.0126476  -0.0052611  -0.0155633   0.0003525  -0.0002811   0.0107142
    2  -0.0009708  -0.0058972  -0.0024855   0.0108480  -0.0045398   0.0055751
    3   0.0032923  -0.0058098  -0.0036463   0.0012538   0.0015281   0.0014270
           13          14          15          16          17          18
    1  -0.0039595   0.0017294  -0.0101587   0.0094055   0.0034526   0.0002445
    2  -0.0022203   0.0052996   0.0058066  -0.0053718   0.0006296   0.0022776
    3   0.0061368  -0.0013878   0.0029663  -0.0058305   0.0061551  -0.0041208
           19          20
    1  -0.0009112   0.0000755
    2  -0.0009245   0.0011346
    3   0.0005415  -0.0001216
 Max gradient component =       1.556E-02
 RMS gradient           =       5.651E-03
 Computing fast CPCM-SWIG gradient
 Updating gradient with PCM contributions...
 -- total gradient after adding PCM contribution --
---------------------------------------------------
  Atom         X              Y              Z     
---------------------------------------------------
   1      -0.000535       0.000247       0.000089
   2       0.000521      -0.000227      -0.000057
   3       0.000055      -0.000041      -0.000004
   4      -0.000004      -0.000002      -0.000008
   5      -0.000077       0.000026      -0.000004
   6       0.000009      -0.000004      -0.000002
   7      -0.000017       0.000017      -0.000079
   8      -0.000004      -0.000027       0.000022
   9       0.000015       0.000006       0.000028
  10      -0.000006       0.000006       0.000006
  11      -0.000021       0.000002       0.000006
  12      -0.000001       0.000005       0.000021
  13      -0.000009       0.000011       0.000008
  14      -0.000001       0.000009      -0.000007
  15       0.000006       0.000003       0.000048
  16       0.000023      -0.000007      -0.000021
  17       0.000000       0.000004       0.000002
  18      -0.000002      -0.000013      -0.000045
  19       0.000066       0.000010      -0.000005
  20      -0.000019      -0.000025       0.000003
---------------------------------------------------
 Number of fixed atoms: 0
 Gradient time:  CPU 495.61 s  wall 70.67 s
 ----------------------------------------------------------------
             Standard Nuclear Orientation (Angstroms)
    I     Atom           X                Y                Z
 ----------------------------------------------------------------
    1      H       3.3414122728    -1.2695085981    -0.0927755438
    2      C       2.4051711421    -0.7516131488     0.0590718811
    3      C       1.2527706449    -1.4131669833     0.0710961635
    4      H       1.1913694699    -2.4841656140    -0.0681725105
    5      C      -0.0202945272    -0.6817041358     0.3690525252
    6      H      -0.2231004103    -0.7038777696     1.4425828314
    7      C      -0.0377296027     0.7759164619    -0.1142958616
    8      C      -1.1334048302     1.5896649009     0.5610980382
    9      C       1.2987996993     1.4159226462     0.1875394956
   10      H       1.3108222204     2.4960925363     0.2679257566
   11      C       2.4215243295     0.7033273458     0.2470461804
   12      H       3.3732964289     1.1950003705     0.3970136597
   13      O      -2.4364437680     1.0627695830     0.3706292225
   14      H      -1.0701730044     2.6126877661     0.1809928613
   15      O      -0.3063462792     0.8520772795    -1.5190637570
   16      H       0.4064937043     0.4117204427    -1.9984312936
   17      H      -0.9517438991     1.6083808413     1.6340742096
   18      H      -2.6120084025     1.0323228935    -0.5765821368
   19      O      -1.1319810399    -1.3803071812    -0.2711801035
   20      O      -1.3994140203    -2.5002269589     0.3356399366
 ----------------------------------------------------------------
 Nuclear Repulsion Energy =         651.84169231 hartrees
 There are       42 alpha and       41 beta electrons
 Discretize the solute cavity surface with Lebedev spheres
	Using 110 Lebedev grid points for each H atom
	Using 194 Lebedev grid points for other atoms
	Atomic van der Waals radii will be scaled by 1.20
 Remove points where switching function is < 1.0e-08
 Keep 1494 surface tesserae and discard 1630 interior tesserae
 Molecular Surface Area = 172.125 Angst**2
 Requested basis set is 6-311++G(2df,2p)
 There are 142 shells and 464 basis functions
 A cutoff of  1.0D-12 yielded   9082 shell pairs
 There are     97541 function pairs (    121682 Cartesian)
 Smallest overlap matrix eigenvalue = 1.38E-06
 Guess MOs from SCF MO coefficient file

 -----------------------------------------------------------------------
  General SCF calculation program by
  Eric Jon Sundstrom, Paul Horn, Yuezhi Mao, Dmitri Zuev, Alec White,
  David Stuck, Shaama M.S., Shane Yost, Joonho Lee, David Small,
  Daniel Levine, Susi Lehtola, Hugh Burton, Evgeny Epifanovsky,
  Bang C. Huynh
 -----------------------------------------------------------------------
 Exchange:     0.1500 Hartree-Fock + 1.0000 wB97M-V + LR-HF
 Correlation:  1.0000 wB97M-V
 Using SG-2 standard quadrature grid
 Nonlocal Correlation:  VV10 with C = 0.0100 and b = 6.00 and scale = 1.00000
 Grid used for NLC:  SG-1 standard quadrature
 
 Citation of the SMD model:
 Marenich, A.V.; Cramer, C.J.; Truhlar, D.G.
 J. Phys. Chem. B 2009, 113, 6378-6396.
 iSolventCode=           1
 Solvent: water                                                           
 
 vradii
            1           2           3           4           5           6
    1   1.2000000   1.8500000   1.8500000   1.2000000   1.8500000   1.2000000
            7           8           9          10          11          12
    1   1.8500000   1.8500000   1.8500000   1.2000000   1.8500000   1.2000000
           13          14          15          16          17          18
    1   1.5200000   1.2000000   1.5200000   1.2000000   1.2000000   1.2000000
           19          20
    1   1.5200000   1.5200000
 -------------------------------------------------------
 OpenMP BLAS3 based DFT computing Module                
 Release: version 1.0, May 2013, Q-Chem Inc. Pittsburgh 
 -------------------------------------------------------
 A unrestricted SCF calculation will be
 performed using Roothaan-Hall, DIIS, GDM
 SCF converges when RMS gradient is below 1.0e-07
 ---------------------------------------
  Cycle       Energy         DIIS error
 ---------------------------------------
    1    -572.8652816105      1.54e-04  Roothaan Step
 ---------------------------------------
  Cycle       Energy         DIIS error
 ---------------------------------------
    1    -572.8923976266      1.64e-04  
    2    -572.8954110739      1.42e-04  Done DIIS. Switching to GDM
 ---------------------------------------
  Cycle       Energy        RMS Gradient
 ---------------------------------------
    1    -572.8954110739      5.42e-03   Normal BFGS step
    2    -572.8952503161      1.09e-02  Line search: overstep
    3    -572.8968666593      2.57e-03   Normal BFGS step
    4    -572.8969728796      8.20e-04   Normal BFGS step
    5    -572.8969914233      1.28e-03   Normal BFGS step
    6    -572.8970009414      1.61e-04   Normal BFGS step
    7    -572.8970016929      2.57e-04   Normal BFGS step
    8    -572.8970021358      1.51e-04   Normal BFGS step
    9    -572.8970022757      4.22e-05   Normal BFGS step
   10    -572.8970022932      9.39e-06   Normal BFGS step
   11    -572.8970022972      4.41e-06   Normal BFGS step
   12    -572.8970022975      1.56e-06   Normal BFGS step
   13    -572.8970022976      1.15e-06   Normal BFGS step
   14    -572.8970022976      9.52e-07   Normal BFGS step
   15    -572.8970022977      7.47e-07   Normal BFGS step
   16    -572.8970022977      5.40e-07   Normal BFGS step
   17    -572.8970022976      3.41e-07   Normal BFGS step
   18    -572.8970022976      1.51e-07   Normal BFGS step
   19    -572.8970022977      8.70e-08  Convergence criterion met
 ---------------------------------------
 SCF time:   CPU 3227.73s  wall 410.00s 
<S^2> =          0.753977372
(3)  G-ENP(liq) elect-nuc-pol free energy of system     -572.897002298 a.u.
(4)  G-CDS(liq) cavity-dispersion-solvent structure 
     free energy                                                3.2076 kcal/mol
(6)  G-S(liq) free energy of system                     -572.891890624 a.u.
 SCF   energy in the final basis set =     -572.8918906241
 Total energy in the final basis set =     -572.8918906241
 
 --------------------------------------------------------------
 
                    Orbital Energies (a.u.)
 --------------------------------------------------------------
 
 Alpha MOs
 -- Occupied --
-19.4658 -19.4159 -19.3471 -19.3396 -10.4190 -10.4152 -10.3876 -10.3529
-10.3528 -10.3510 -10.3489  -1.3464  -1.1775  -1.1524  -1.0265  -0.9668
 -0.8953  -0.8668  -0.8008  -0.7345  -0.7272  -0.6730  -0.6541  -0.6398
 -0.6245  -0.6074  -0.5984  -0.5646  -0.5579  -0.5419  -0.5275  -0.5223
 -0.4949  -0.4750  -0.4582  -0.4438  -0.4389  -0.4114  -0.4049  -0.3890
 -0.3765  -0.3296
 -- Virtual --
  0.0187   0.0263   0.0364   0.0418   0.0431   0.0555   0.0589   0.0621
[...]
 Force Cnst:      1.6773                 1.0645                 1.1568
 Red. Mass:       2.1195                 1.2887                 1.3236
 IR Active:          YES                    YES                    YES
 IR Intens:      137.204                 42.562                 13.149
 Raman Active:       YES                    YES                    YES
               X      Y      Z        X      Y      Z        X      Y      Z
 H          0.235  0.416  0.015   -0.231 -0.404 -0.031    0.027  0.038  0.018
 C          0.011  0.020  0.000   -0.014 -0.026  0.001    0.008  0.010 -0.001
 C         -0.006 -0.020  0.018    0.030  0.017 -0.013   -0.019 -0.002 -0.010
 H         -0.540  0.007  0.024    0.609 -0.006 -0.048   -0.189  0.001  0.040
 C          0.002  0.016 -0.026    0.000  0.032  0.005    0.020 -0.035  0.011
 H          0.113 -0.220 -0.009   -0.007  0.360  0.010    0.009  0.321  0.017
 C         -0.053 -0.019  0.063   -0.011 -0.034  0.047   -0.059 -0.108 -0.042
 C          0.202  0.088 -0.010    0.088  0.049  0.005    0.019  0.049  0.035
 C          0.014 -0.004  0.000   -0.014  0.042 -0.001    0.040  0.028  0.008
 H         -0.111 -0.002 -0.020   -0.234  0.048 -0.021    0.648  0.017  0.074
 C          0.016  0.007 -0.004   -0.006 -0.018  0.004   -0.024  0.015 -0.005
 H          0.115 -0.196  0.036    0.063 -0.147 -0.009   -0.192  0.326  0.027
 O         -0.152 -0.078 -0.024   -0.049 -0.034 -0.015    0.003 -0.018 -0.011
 H          0.244  0.099  0.062    0.262  0.053  0.052    0.302  0.027  0.016
 O         -0.020  0.014 -0.028   -0.015  0.008 -0.021    0.010  0.003  0.010
 H          0.114 -0.056  0.228    0.082 -0.048  0.169   -0.014  0.007 -0.027
 H          0.335 -0.064 -0.033   -0.078 -0.016  0.034   -0.277  0.040  0.084
 H         -0.017  0.005 -0.059   -0.217 -0.084  0.019   -0.260 -0.108  0.045
 O          0.002 -0.000  0.006   -0.006 -0.008 -0.010   -0.012 -0.015 -0.006
 O         -0.001  0.000 -0.002   -0.001  0.002 -0.002    0.007  0.020 -0.008
 TransDip   0.333  0.050  0.165    0.129 -0.005  0.165   -0.107  0.037 -0.027

 Mode:                34                     35                     36
 Frequency:      1259.90                1284.70                1297.39
 Force Cnst:      1.5060                12.6825                 1.2286
 Red. Mass:       1.6102                13.0422                 1.2389
 IR Active:          YES                    YES                    YES
 IR Intens:       24.703                 16.693                 34.787
 Raman Active:       YES                    YES                    YES
               X      Y      Z        X      Y      Z        X      Y      Z
 H         -0.043 -0.055 -0.010   -0.076 -0.114 -0.015    0.052  0.078 -0.033
 C         -0.008  0.004 -0.002   -0.001  0.015  0.004    0.003 -0.013 -0.006
 C          0.011 -0.020 -0.002    0.014  0.017 -0.010   -0.003 -0.022  0.037
 H          0.104 -0.023 -0.018   -0.181  0.021  0.060    0.169 -0.024 -0.054
 C         -0.015  0.047 -0.032    0.014 -0.081  0.032   -0.115  0.049  0.008
 H          0.079  0.311 -0.006    0.108  0.252  0.055    0.893 -0.156  0.202
 C         -0.034 -0.098  0.163   -0.038 -0.041 -0.037   -0.014  0.004 -0.014
 C         -0.048  0.024 -0.078   -0.003  0.020  0.007    0.008 -0.008  0.018
 C          0.030  0.024 -0.017   -0.014  0.009  0.003    0.011  0.008 -0.000
 H          0.247  0.015  0.036    0.162  0.008  0.020   -0.012  0.011 -0.013
 C         -0.012 -0.002 -0.002    0.001  0.010  0.003    0.004 -0.001  0.003
 H         -0.107  0.156  0.071    0.063 -0.103 -0.015   -0.024  0.057  0.005
 O         -0.015 -0.007  0.028    0.002 -0.009 -0.002    0.004  0.001 -0.005
 H         -0.165  0.086  0.096    0.072  0.017  0.006    0.065 -0.033 -0.043
 O          0.011 -0.001 -0.023   -0.005  0.005  0.005    0.017 -0.008  0.008
 H         -0.109  0.080 -0.268    0.044 -0.024  0.100   -0.090  0.047 -0.195
 H          0.457 -0.247 -0.155   -0.013 -0.001  0.009   -0.068  0.034  0.029
 H          0.495  0.207 -0.084   -0.010 -0.002  0.000   -0.082 -0.036  0.014
 O          0.003 -0.003 -0.005    0.130  0.560 -0.306   -0.001 -0.007 -0.033
 O         -0.003 -0.004 -0.001   -0.118 -0.520  0.289    0.003  0.003  0.001
 TransDip   0.118  0.030  0.102   -0.011 -0.103  0.080   -0.156 -0.090 -0.058

 Mode:                37                     38                     39
 Frequency:      1306.55                1377.40                1391.29
 Force Cnst:      1.4076                 1.6574                 1.5928
 Red. Mass:       1.3995                 1.4827                 1.3966
 IR Active:          YES                    YES                    YES
 IR Intens:       79.818                 11.824                 27.852
 Raman Active:       YES                    YES                    YES
               X      Y      Z        X      Y      Z        X      Y      Z
 H          0.099  0.130  0.017    0.186  0.323  0.027    0.203  0.322  0.035
 C          0.021 -0.006 -0.002   -0.027 -0.056 -0.007   -0.013 -0.055 -0.008
 C         -0.038  0.036  0.002   -0.059  0.018  0.014   -0.073  0.034  0.010
 H         -0.107  0.035  0.036    0.366  0.008 -0.051    0.241  0.024 -0.018
 C         -0.015 -0.126  0.019    0.030  0.079 -0.005    0.056 -0.052 -0.006
 H          0.338  0.539  0.108   -0.118 -0.367 -0.048   -0.083  0.174 -0.026
 C          0.090  0.002 -0.009    0.006 -0.090 -0.056   -0.069  0.033  0.036
 C         -0.009 -0.005 -0.027   -0.034  0.032 -0.024    0.011 -0.015  0.056
 C          0.012 -0.002  0.006    0.082  0.032  0.021    0.040  0.015  0.003
 H         -0.143 -0.001 -0.005   -0.232  0.041 -0.036   -0.228  0.024 -0.017
 C         -0.011 -0.016 -0.004    0.003 -0.051 -0.009    0.026 -0.034 -0.004
 H         -0.065  0.089 -0.012   -0.231  0.394  0.018   -0.116  0.236  0.035
 O          0.003  0.013  0.010   -0.002 -0.011  0.027    0.016  0.015 -0.052
 H         -0.319  0.055  0.087    0.159  0.031 -0.008   -0.212 -0.031 -0.005
 O         -0.045  0.019 -0.014   -0.021  0.019 -0.001    0.020 -0.013  0.002
 H          0.238 -0.124  0.523    0.133 -0.069  0.298   -0.114  0.055 -0.250
 H         -0.008  0.000 -0.025   -0.198 -0.116  0.002    0.464  0.142 -0.013
 H          0.120  0.049 -0.014    0.252  0.104 -0.028   -0.449 -0.189  0.051
 O         -0.016 -0.015 -0.025    0.009  0.014  0.006   -0.002  0.009 -0.006
 O          0.011  0.022 -0.005   -0.007 -0.017  0.006    0.000 -0.004  0.004
 TransDip   0.078 -0.114  0.251    0.104  0.022  0.028   -0.165  0.029 -0.022

 Mode:                40                     41                     42
 Frequency:      1397.44                1435.04                1438.09
 Force Cnst:      1.7451                 2.0046                 1.9505
 Red. Mass:       1.5167                 1.6521                 1.6008
 IR Active:          YES                    YES                    YES
 IR Intens:       13.802                 37.826                 21.163
 Raman Active:       YES                    YES                    YES
               X      Y      Z        X      Y      Z        X      Y      Z
 H          0.140  0.188  0.022    0.246  0.285  0.023    0.053  0.029 -0.000
 C          0.009 -0.036 -0.006    0.006 -0.118 -0.016    0.013 -0.033 -0.004
 C         -0.056  0.029  0.006   -0.089  0.034  0.018   -0.021  0.008  0.003
 H          0.081  0.022  0.004    0.407  0.018 -0.053    0.102  0.003 -0.016
 C          0.029 -0.102  0.008    0.033  0.011 -0.013   -0.017  0.027  0.000
 H          0.018  0.265  0.018   -0.023 -0.048 -0.028    0.034 -0.098  0.007
 C         -0.019  0.136  0.013    0.004 -0.017  0.019    0.112 -0.048 -0.023
 C         -0.052  0.004 -0.031    0.070 -0.017 -0.033   -0.131  0.058  0.071
 C         -0.029 -0.018 -0.009   -0.097 -0.030 -0.017   -0.050 -0.020 -0.004
 H         -0.103 -0.014  0.003    0.477 -0.044  0.060    0.263 -0.028  0.028
 C          0.029  0.009  0.003    0.014  0.123  0.015   -0.015  0.063  0.006
 H          0.059 -0.039  0.002    0.259 -0.320 -0.012    0.123 -0.190 -0.028
 O         -0.015 -0.029  0.036   -0.010  0.006  0.011    0.018 -0.001 -0.029
 H          0.752 -0.063 -0.127   -0.324  0.067  0.153    0.307 -0.106 -0.303
 O          0.019 -0.019  0.007    0.001  0.002 -0.003   -0.025  0.015 -0.007
 H         -0.104  0.047 -0.225   -0.003 -0.001 -0.008    0.121 -0.064  0.270
 H         -0.122 -0.152 -0.025   -0.270  0.099  0.020    0.615 -0.262 -0.042
 H          0.312  0.139 -0.039    0.084  0.034 -0.009   -0.227 -0.098  0.024
 O         -0.007 -0.002 -0.008    0.003  0.002  0.002    0.002 -0.004  0.004
 O          0.005  0.008 -0.000   -0.002 -0.005  0.001   -0.001  0.000 -0.001
 TransDip   0.003  0.073 -0.094    0.194 -0.001  0.031   -0.086 -0.099  0.066

 Mode:                43                     44                     45
 Frequency:      1479.48                1687.91                1737.78
 Force Cnst:      1.4319                14.8244                11.0717
 Red. Mass:       1.1103                 8.8314                 6.2226
 IR Active:          YES                    YES                    YES
 IR Intens:        9.384                  1.265                  2.877
 Raman Active:       YES                    YES                    YES
               X      Y      Z        X      Y      Z        X      Y      Z
 H         -0.003 -0.009 -0.002   -0.059  0.164  0.053   -0.030  0.408  0.074
 C          0.001  0.000  0.000   -0.284 -0.304 -0.014   -0.311 -0.177 -0.003
 C          0.002 -0.001  0.000    0.355  0.164 -0.015    0.331  0.125 -0.018
 H          0.003 -0.002 -0.002   -0.171  0.231  0.046   -0.229  0.196  0.069
 C         -0.008  0.013  0.001   -0.033 -0.031  0.017   -0.053 -0.004  0.008
 H          0.013 -0.048  0.002    0.012  0.119  0.015   -0.006  0.053  0.009
 C          0.024 -0.015 -0.012   -0.056  0.036 -0.008    0.060 -0.010 -0.002
 C         -0.060 -0.055 -0.036   -0.014 -0.013 -0.000    0.002  0.004  0.004
 C         -0.002 -0.002 -0.001    0.378 -0.193  0.033   -0.298  0.128 -0.023
 H          0.029 -0.003  0.002   -0.222 -0.226 -0.077    0.235  0.164  0.058
 C         -0.004  0.005  0.000   -0.297  0.330 -0.000    0.281 -0.170  0.008
 H          0.008 -0.016 -0.004   -0.065 -0.199 -0.035    0.027  0.406  0.046
 O         -0.001 -0.009 -0.003    0.003  0.001  0.001   -0.001 -0.000 -0.001
 H          0.329  0.180  0.597    0.048 -0.023 -0.029    0.003  0.004  0.002
 O         -0.006  0.004  0.002    0.001 -0.004 -0.003   -0.001  0.003  0.003
 H          0.028 -0.009  0.062   -0.008  0.015 -0.026    0.007 -0.013  0.027
 H          0.237  0.650 -0.085   -0.009 -0.002 -0.001    0.009  0.003  0.004
 H          0.012  0.005 -0.008    0.009  0.004  0.000   -0.008 -0.002  0.001
 O          0.001 -0.001  0.001   -0.014  0.000 -0.003   -0.010 -0.004  0.001
 O         -0.000 -0.000 -0.000    0.003  0.006 -0.001    0.000  0.004 -0.002
 TransDip  -0.059  0.044  0.065    0.026  0.023 -0.009    0.027 -0.047 -0.003

 Mode:                46                     47                     48
 Frequency:      3050.15                3071.33                3130.56
 Force Cnst:      5.8457                 6.0224                 6.3503
 Red. Mass:       1.0665                 1.0836                 1.0998
 IR Active:          YES                    YES                    YES
 IR Intens:       62.535                  4.604                 27.036
 Raman Active:       YES                    YES                    YES
               X      Y      Z        X      Y      Z        X      Y      Z
 H         -0.000  0.000  0.000   -0.005  0.004 -0.001   -0.000  0.000 -0.000
 C          0.000  0.000 -0.000   -0.000 -0.001 -0.000    0.000  0.000  0.000
 C         -0.000 -0.000  0.000    0.001 -0.001 -0.000    0.000 -0.000  0.000
 H          0.001  0.000 -0.000    0.001  0.010  0.001    0.000  0.001  0.000
 C         -0.001  0.001  0.003    0.016  0.003 -0.081    0.001  0.000 -0.004
 H          0.006  0.001 -0.033   -0.194 -0.025  0.975   -0.009 -0.003  0.046
 C         -0.001 -0.001  0.001    0.000 -0.000 -0.001   -0.001  0.001 -0.001
 C         -0.005 -0.073 -0.000    0.001 -0.004  0.004   -0.011  0.023 -0.088
 C         -0.000  0.001 -0.000    0.000  0.000 -0.000    0.000 -0.001 -0.000
 H          0.002 -0.011 -0.001    0.001 -0.003 -0.000    0.000  0.004 -0.000
 C          0.000  0.000  0.000   -0.000  0.001  0.000    0.000  0.000  0.000
 H          0.001 -0.000  0.000    0.001  0.001  0.000   -0.001 -0.001 -0.000
 O         -0.001 -0.000  0.000   -0.000 -0.000 -0.000   -0.000 -0.000  0.002
 H          0.036  0.873 -0.337    0.002  0.044 -0.015   -0.010 -0.302  0.105
 O         -0.000  0.000 -0.000    0.000 -0.000  0.000   -0.000  0.000  0.001
 H          0.000  0.001 -0.001    0.000 -0.001  0.000    0.001 -0.001  0.001
 H          0.056 -0.007  0.335   -0.006 -0.000 -0.032    0.146  0.015  0.930
 H         -0.002  0.002 -0.006   -0.000 -0.000  0.000    0.005  0.002 -0.016
 O          0.000 -0.000  0.000   -0.000 -0.000 -0.001   -0.000  0.000  0.000
 O         -0.000 -0.000 -0.000   -0.000 -0.000  0.000   -0.000 -0.000  0.000
 TransDip  -0.092 -0.236 -0.005   -0.004 -0.040 -0.056   -0.051  0.056 -0.148

 Mode:                49                     50                     51
 Frequency:      3183.34                3197.46                3205.74
 Force Cnst:      6.4908                 6.5529                 6.6384
 Red. Mass:       1.0871                 1.0879                 1.0964
 IR Active:          YES                    YES                    YES
 IR Intens:        1.417                  8.382                 14.380
 Raman Active:       YES                    YES                    YES
               X      Y      Z        X      Y      Z        X      Y      Z
 H          0.099 -0.054 -0.016    0.580 -0.322 -0.094   -0.006 -0.002  0.000
 C         -0.008  0.004  0.001   -0.049  0.027  0.008    0.003  0.003  0.000
 C         -0.000 -0.005 -0.001   -0.002 -0.052 -0.007   -0.004 -0.046 -0.006
 H          0.003  0.056  0.007    0.032  0.613  0.081    0.028  0.522  0.069
 C          0.000  0.000 -0.000   -0.001 -0.000  0.000   -0.001  0.000  0.001
 H         -0.000 -0.000  0.002    0.002 -0.000 -0.002    0.001 -0.000 -0.005
 C          0.001  0.000  0.001   -0.000  0.000 -0.000    0.001  0.001  0.000
 C          0.000 -0.001  0.000   -0.000  0.000  0.000    0.000 -0.000 -0.000
 C          0.001 -0.075 -0.006   -0.002  0.025  0.002    0.005 -0.035 -0.002
 H          0.011  0.869  0.066   -0.003 -0.278 -0.021    0.003  0.367  0.027
 C          0.032  0.020  0.005    0.024  0.009  0.003   -0.062 -0.027 -0.009
 H         -0.408 -0.213 -0.065   -0.253 -0.128 -0.040    0.669  0.345  0.105
 O         -0.000  0.000  0.000    0.000 -0.000 -0.000   -0.000  0.000  0.000
 H         -0.001  0.010 -0.003    0.001 -0.003  0.001   -0.000  0.003 -0.001
 O         -0.000 -0.000 -0.000   -0.000 -0.000  0.000   -0.000 -0.000 -0.000
 H          0.001 -0.000 -0.000   -0.000  0.000 -0.000    0.001  0.000 -0.000
 H         -0.001 -0.000 -0.001    0.000  0.000 -0.001   -0.000 -0.000  0.000
 H          0.000 -0.000 -0.000   -0.000  0.000  0.000    0.000 -0.000 -0.000
 O          0.000 -0.000  0.000    0.000 -0.000  0.000    0.000 -0.000  0.000
 O         -0.000 -0.000 -0.000   -0.000  0.000 -0.000   -0.000  0.000 -0.000
 TransDip   0.028 -0.025  0.006   -0.014  0.091  0.009   -0.073 -0.096 -0.013

 Mode:                52                     53                     54
 Frequency:      3217.50                3802.75                3821.55
 Force Cnst:      6.7114                 9.0883                 9.1743
 Red. Mass:       1.1003                 1.0667                 1.0662
 IR Active:          YES                    YES                    YES
 IR Intens:       10.494                104.215                120.605
 Raman Active:       YES                    YES                    YES
               X      Y      Z        X      Y      Z        X      Y      Z
 H          0.631 -0.350 -0.102   -0.000  0.000  0.000    0.000 -0.000 -0.000
 C         -0.060  0.028  0.009   -0.000 -0.000 -0.000   -0.000  0.000  0.000
 C          0.008  0.052  0.006    0.000  0.000  0.000   -0.000 -0.000  0.000
 H         -0.033 -0.567 -0.074   -0.000  0.000  0.000    0.000 -0.000 -0.000
 C          0.002 -0.000 -0.001   -0.000 -0.000 -0.000   -0.000  0.000 -0.000
 H         -0.003  0.000  0.009    0.000  0.001 -0.001   -0.000 -0.000  0.000
 C          0.001 -0.000  0.000   -0.001  0.001 -0.000    0.000  0.000  0.000
 C          0.000 -0.000 -0.000    0.000 -0.000 -0.000    0.000  0.000 -0.002
 C          0.002 -0.012 -0.001    0.000  0.000 -0.000   -0.000 -0.000 -0.000
 H          0.000  0.123  0.009   -0.000 -0.001  0.000   -0.000  0.000  0.000
 C         -0.027 -0.015 -0.004   -0.000 -0.000 -0.000    0.000  0.000  0.000
 H          0.300  0.159  0.047   -0.000  0.000  0.001    0.000 -0.000  0.000
 O         -0.000  0.000  0.000   -0.000 -0.000 -0.001   -0.013 -0.003 -0.061
 H         -0.000  0.002 -0.000    0.000 -0.001 -0.000    0.003  0.002  0.000
 O         -0.000  0.000 -0.000   -0.046  0.028  0.032    0.001 -0.001 -0.001
 H          0.001 -0.001  0.001    0.732 -0.451 -0.506   -0.016  0.010  0.011
 H         -0.000 -0.000  0.001    0.000 -0.000 -0.001    0.004 -0.000  0.014
 H          0.000 -0.000 -0.000    0.004  0.001  0.021    0.197  0.035  0.977
 O         -0.000  0.000 -0.000   -0.000 -0.000 -0.000    0.000 -0.000 -0.000
 O          0.000 -0.000  0.000    0.000  0.000 -0.000   -0.000 -0.000 -0.000
 TransDip  -0.101  0.023  0.003    0.197 -0.104 -0.239    0.136  0.025  0.323

 STANDARD THERMODYNAMIC QUANTITIES AT   298.15 K  AND     1.00 ATM

   This Molecule has  0 Imaginary Frequencies
   Zero point vibrational energy:       98.082 kcal/mol

   Atom    1 Element H  Has Mass    1.00783
   Atom    2 Element C  Has Mass   12.00000
   Atom    3 Element C  Has Mass   12.00000
   Atom    4 Element H  Has Mass    1.00783
   Atom    5 Element C  Has Mass   12.00000
   Atom    6 Element H  Has Mass    1.00783
   Atom    7 Element C  Has Mass   12.00000
   Atom    8 Element C  Has Mass   12.00000
   Atom    9 Element C  Has Mass   12.00000
   Atom   10 Element H  Has Mass    1.00783
   Atom   11 Element C  Has Mass   12.00000
   Atom   12 Element H  Has Mass    1.00783
   Atom   13 Element O  Has Mass   15.99491
   Atom   14 Element H  Has Mass    1.00783
   Atom   15 Element O  Has Mass   15.99491
   Atom   16 Element H  Has Mass    1.00783
   Atom   17 Element H  Has Mass    1.00783
   Atom   18 Element H  Has Mass    1.00783
   Atom   19 Element O  Has Mass   15.99491
   Atom   20 Element O  Has Mass   15.99491
   Molecular Mass:   157.050110 amu
   Principal axes and moments of inertia in amu*Bohr^2:
                             1           2           3
    Eigenvalues --     1243.82673  1556.43486  2386.81916
          X               0.99721    -0.07351     0.01315
          Y               0.07292     0.99651     0.04067
          Z              -0.01610    -0.03960     0.99909
   Rotational Symmetry Number is   1
   The Molecule is an Asymmetric Top
   Translational Enthalpy:        0.889 kcal/mol
   Rotational Enthalpy:           0.889 kcal/mol
   Vibrational Enthalpy:        103.028 kcal/mol
   gas constant (RT):             0.592 kcal/mol
   Translational Entropy:        41.063  cal/mol.K
   Rotational Entropy:           29.914  cal/mol.K
   Vibrational Entropy:          29.828  cal/mol.K

   Total Enthalpy:              105.398 kcal/mol
   Total Entropy:               100.806  cal/mol.K
 Total job time:  59726.29s(wall), 461907.80s(cpu) 
 Fri Jan 27 09:49:18 2023

        *************************************************************
        *                                                           *
        *  Thank you very much for using Q-Chem.  Have a nice day.  *
        *                                                           *
        *************************************************************


