
Running Job 1 of 1 Q_in.in
qchem Q_in.in_19169.0 /scratch/ari.fischer/qChem1420604.hpc-mn1/qchem19169/ 0
/usr/local/qchem-5.4.1/exe/qcprog.exe_s Q_in.in_19169.0 /scratch/ari.fischer/qChem1420604.hpc-mn1/qchem19169/
                  Welcome to Q-Chem
     A Quantum Leap Into The Future Of Chemistry


 Q-Chem 5.4, Q-Chem, Inc., Pleasanton, CA (2021)

 License issued to: Nanyang Technological University (site)

 E. Epifanovsky,  A. T. B. Gilbert,  Xintian Feng,  Joonho Lee,  Yuezhi Mao,  
 N. Mardirossian,  P. Pokhilko,  A. White,  M. Wormit,  M. P. Coons,  
 A. L. Dempwolff,  Zhengting Gan,  D. Hait,  P. R. Horn,  L. D. Jacobson,  
 I. Kaliman,  J. Kussmann,  A. W. Lange,  Ka Un Lao,  D. S. Levine,  Jie Liu,  
 S. C. McKenzie,  A. F. Morrison,  K. Nanda,  F. Plasser,  D. R. Rehn,  
 M. L. Vidal,  Zhi-Qiang You,  Ying Zhu,  B. Alam,  B. Albrecht,  
 A. Aldossary,  E. Alguire,  J. H. Andersen,  D. Barton,  K. Begam,  A. Behn,  
 Y. A. Bernard,  E. J. Berquist,  H. Burton,  A. Carreras,  K. Carter-Fenk,  
 R. Chakraborty,  A. D. Chien,  K. D. Closser,  V. Cofer-Shabica,  
 S. Dasgupta,  Jia Deng,  M. de Wergifosse,  M. Diedenhofen,  Hainam Do,  
 S. Ehlert,  Po-Tung Fang,  S. Fatehi,  Qingguo Feng,  T. Friedhoff,  
 J. Gayvert,  Qinghui Ge,  G. Gidofalvi,  M. Goldey,  J. Gomes,  
 C. Gonzalez-Espinoza,  S. Gulania,  A. Gunina,  M. W. D. Hanson-Heine,  
 P. H. P. Harbach,  A. W. Hauser,  M. F. Herbst,  M. Hernandez Vera,  
 M. Hodecker,  Z. C. Holden,  S. Houck,  Xunkun Huang,  Kerwin Hui,  
 B. C. Huynh,  M. Ivanov,  Hyunjun Ji,  Hanjie Jiang,  B. Kaduk,  S. Kaehler,  
 K. Khistyaev,  Jaehoon Kim,  P. Klunzinger,  Z. Koczor-Benda,  
 Joong Hoon Koh,  D. Kosenkov,  L. Koulias,  T. Kowalczyk,  C. M. Krauter,  
 K. Kue,  A. Kunitsa,  T. Kus,  A. Landau,  K. V. Lawler,  D. Lefrancois,  
 S. Lehtola,  Rain Li,  Yi-Pei Li,  Jiashu Liang,  M. Liebenthal,  
 Hung-Hsuan Lin,  You-Sheng Lin,  Fenglai Liu,  Kuan-Yu Liu,  
 M. Loipersberger,  A. Luenser,  A. Manjanath,  P. Manohar,  E. Mansoor,  
 S. F. Manzer,  Shan-Ping Mao,  A. V. Marenich,  T. Markovich,  S. Mason,  
 S. A. Maurer,  P. F. McLaughlin,  M. F. S. J. Menger,  J.-M. Mewes,  
 S. A. Mewes,  P. Morgante,  J. W. Mullinax,  K. J. Oosterbaan,  G. Paran,  
 Alexander C. Paul,  Suranjan K. Paul,  F. Pavosevic,  Zheng Pei,  S. Prager,  
 E. I. Proynov,  E. Ramos,  B. Rana,  A. E. Rask,  A. Rettig,  R. M. Richard,  
 F. Rob,  E. Rossomme,  T. Scheele,  M. Scheurer,  M. Schneider,  
 N. Sergueev,  S. M. Sharada,  W. Skomorowski,  D. W. Small,  C. J. Stein,  
 Yu-Chuan Su,  E. J. Sundstrom,  Zhen Tao,  J. Thirman,  T. Tsuchimochi,  
 N. M. Tubman,  S. P. Veccham,  O. Vydrov,  J. Wenzel,  J. Witte,  A. Yamada,  
 Kun Yao,  S. Yeganeh,  S. R. Yost,  A. Zech,  Igor Ying Zhang,  Xing Zhang,  
 Yu Zhang,  D. Zuev,  A. Aspuru-Guzik,  A. T. Bell,  N. A. Besley,  
 K. B. Bravaya,  B. R. Brooks,  D. Casanova,  Jeng-Da Chai,  S. Coriani,  
 C. J. Cramer,  A. E. DePrince, III,  R. A. DiStasio Jr.,  A. Dreuw,  
 B. D. Dunietz,  T. R. Furlani,  W. A. Goddard III,  S. Grimme,  
 S. Hammes-Schiffer,  T. Head-Gordon,  W. J. Hehre,  Chao-Ping Hsu,  
 T.-C. Jagau,  Yousung Jung,  A. Klamt,  Jing Kong,  D. S. Lambrecht,  
 WanZhen Liang,  N. J. Mayhall,  C. W. McCurdy,  J. B. Neaton,  
 C. Ochsenfeld,  J. A. Parkhill,  R. Peverati,  V. A. Rassolov,  Yihan Shao,  
 L. V. Slipchenko,  T. Stauch,  R. P. Steele,  J. E. Subotnik,  
 A. J. W. Thom,  A. Tkatchenko,  D. G. Truhlar,  T. Van Voorhis,  
 T. A. Wesolowski,  K. B. Whaley,  H. L. Woodcock III,  P. M. Zimmerman,  
 S. Faraji,  P. M. W. Gill,  M. Head-Gordon,  J. M. Herbert,  A. I. Krylov

 Additional authors for Version 5.4.1: 
 S. Kotaru,  Shaozhi Li,  Xiangyuan Li,  F. Matz,  A. Molle,  Haisheng Ren,  
 Yingli Su,  Hung-Yi Tsai,  C. Utku,  Fang Wang

 Contributors to earlier versions of Q-Chem not listed above: 
 R. D. Adamson,  B. Austin,  R. Baer,  J. Baker,  G. J. O. Beran,  
 K. Brandhorst,  S. T. Brown,  E. F. C. Byrd,  A. K. Chakraborty,  
 G. K. L. Chan,  Chun-Min Chang,  Yunqing Chen,  C.-L. Cheng,  
 Siu Hung Chien,  D. M. Chipman,  D. L. Crittenden,  H. Dachsel,  
 R. J. Doerksen,  A. D. Dutoi,  R. G. Edgar,  J. Fosso-Tande,  
 L. Fusti-Molnar,  D. Ghosh,  A. Ghysels,  A. Golubeva-Zadorozhnaya,  
 J. Gonthier,  M. S. Gordon,  S. R. Gwaltney,  G. Hawkins,  J. E. Herr,  
 A. Heyden,  S. Hirata,  E. G. Hohenstein,  G. Kedziora,  F. J. Keil,  
 C. Kelley,  Jihan Kim,  R. A. King,  R. Z. Khaliullin,  P. P. Korambath,  
 W. Kurlancheek,  A. Laurent,  A. M. Lee,  M. S. Lee,  S. V. Levchenko,  
 Ching Yeh Lin,  D. Liotard,  E. Livshits,  R. C. Lochan,  I. Lotan,  
 L. A. Martinez-Martinez,  P. E. Maslen,  N. Nair,  D. P. O'Neill,  
 D. Neuhauser,  E. Neuscamman,  C. M. Oana,  R. Olivares-Amaya,  R. Olson,  
 T. M. Perrine,  B. Peters,  P. A. Pieniazek,  A. Prociuk,  Y. M. Rhee,  
 J. Ritchie,  M. A. Rohrdanz,  E. Rosta,  N. J. Russ,  H. F. Schaefer III,  
 M. W. Schmidt,  N. E. Schultz,  S. Sharma,  N. Shenvi,  C. D. Sherrill,  
 A. C. Simmonett,  A. Sodt,  T. Stein,  D. Stuck,  K. S. Thanthiriwatte,  
 V. Vanovschi,  L. Vogt,  Tao Wang,  A. Warshel,  M. A. Watson,  
 C. F. Williams,  Q. Wu,  X. Xu,  Jun Yang,  W. Zhang,  Yan Zhao

 Please cite Q-Chem as follows:
 Y. Shao et al., Mol. Phys. 113, 184-215 (2015)
 DOI: 10.1080/00268976.2014.952696

 Q-Chem 5.4.1 for Intel X86 EM64T Linux

 Parts of Q-Chem use Armadillo 9.800.1 (Horizon Scraper).
 http://arma.sourceforge.net/

 Q-Chem begins on Thu Jan 26 03:07:51 2023  

 Host: 
0

     Scratch files written to /scratch/ari.fischer/qChem1420604.hpc-mn1/qchem19169//
 Aug1521 |scratch|qcdevops|jenkins|workspace|build_RNUM 8249   
 Processing $rem in /usr/local/qchem-5.4.1/config/preferences:
 Processing $rem in /home/ari.fischer/.qchemrc:
 Symmetry turned off for PCM/SM12/SMD calculation


!!********************************************.
!!******************Warning*******************.
!!Desired Analytical derivatives not available.
!!Finite difference job might take a long time.
!!********************************************.
!!********************************************.


 2-order derivative to be evaluated numerically with 1-order analytical derivatives

 Checking the input file for inconsistencies... 	...done.

--------------------------------------------------------------
User input:
--------------------------------------------------------------
$molecule
0 2
C        -0.3078310227   -0.1644196543    0.8268813898
C        -0.4614953476   -1.4475241448    1.2368322324
C        -1.6342088633   -2.1764041516    0.9313925925
C        -2.6831758041   -1.5459870036    0.2222149615
C        -2.5761197590   -0.2619514340   -0.1983901968
C        -1.3411895213    0.5530839377    0.0102954824
C        -0.7705979294    0.9417319298   -1.3678783904
H         0.5877298026    0.3929082172    1.0755982680
H         0.3194227059   -1.9229921808    1.8159840550
H        -1.7405915389   -3.1993800117    1.2616018488
H        -3.5920840748   -2.0992055524    0.0243966821
H        -3.3853628211    0.2227058277   -0.7303132190
H        -0.4141564047    0.0502950539   -1.8856057985
O         0.2602172607    1.9156834194   -1.2505439927
H        -1.5657596448    1.4003337908   -1.9543855575
H         1.0629493795    1.4816124218   -0.9419391430
O        -1.7283520013    1.7771363819    0.6750258395
H        -1.0042368153    2.4033961530    0.5360118459
$end

$rem
BASIS = 6-311++G(2df,2p)
GUI = 2
JOB_TYPE = Frequency
METHOD = wB97M-V
SOLVENT_METHOD = SMD
SCF_ALGORITHM = DIIS_GDM
MAX_SCF_CYCLES = 400
SCF_CONVERGENCE = 7
THRESH = 12
UNRESTRICTED = 1
SYMMETRY_IGNORE = 1
$end
--------------------------------------------------------------
 ----------------------------------------------------------------
             Standard Nuclear Orientation (Angstroms)
    I     Atom           X                Y                Z
 ----------------------------------------------------------------
    1      C      -0.3078310227    -0.1644196543     0.8268813898
    2      C      -0.4614953476    -1.4475241448     1.2368322324
    3      C      -1.6342088633    -2.1764041516     0.9313925925
    4      C      -2.6831758041    -1.5459870036     0.2222149615
    5      C      -2.5761197590    -0.2619514340    -0.1983901968
    6      C      -1.3411895213     0.5530839377     0.0102954824
    7      C      -0.7705979294     0.9417319298    -1.3678783904
    8      H       0.5877298026     0.3929082172     1.0755982680
    9      H       0.3194227059    -1.9229921808     1.8159840550
   10      H      -1.7405915389    -3.1993800117     1.2616018488
   11      H      -3.5920840748    -2.0992055524     0.0243966821
   12      H      -3.3853628211     0.2227058277    -0.7303132190
   13      H      -0.4141564047     0.0502950539    -1.8856057985
   14      O       0.2602172607     1.9156834194    -1.2505439927
   15      H      -1.5657596448     1.4003337908    -1.9543855575
   16      H       1.0629493795     1.4816124218    -0.9419391430
   17      O      -1.7283520013     1.7771363819     0.6750258395
   18      H      -1.0042368153     2.4033961530     0.5360118459
 ----------------------------------------------------------------
 Nuclear Repulsion Energy =         447.25157844 hartrees
 There are       34 alpha and       33 beta electrons
 Requested basis set is 6-311++G(2df,2p)
 There are 126 shells and 396 basis functions

 Total QAlloc Memory Limit 288000 MB
 Mega-Array Size       188 MB
 MEM_STATIC part       192 MB
 
 Citation of the SMD model:
 Marenich, A.V.; Cramer, C.J.; Truhlar, D.G.
 J. Phys. Chem. B 2009, 113, 6378-6396.
 iSolventCode=           1
 Solvent: water                                                           
 
 vradii
            1           2           3           4           5           6
    1   1.8500000   1.8500000   1.8500000   1.8500000   1.8500000   1.8500000
            7           8           9          10          11          12
    1   1.8500000   1.2000000   1.2000000   1.2000000   1.2000000   1.2000000
           13          14          15          16          17          18
    1   1.2000000   1.5200000   1.2000000   1.2000000   1.5200000   1.2000000
 Changing PCM_VDW_RADII to SMD_RADIUS
 Discretize the solute cavity surface with Lebedev spheres
	Using 110 Lebedev grid points for each H atom
	Using 194 Lebedev grid points for other atoms
	Atomic van der Waals radii will be scaled by 1.20
 Remove points where switching function is < 1.0e-08
 Keep 1306 surface tesserae and discard 1430 interior tesserae
 Molecular Surface Area = 151.693 Angst**2
 A cutoff of  1.0D-12 yielded   7366 shell pairs
 There are     73534 function pairs (     91283 Cartesian)
 Smallest overlap matrix eigenvalue = 7.47E-07
 Linear dependence detected in AO basis
 Tighter screening thresholds may be required for diffuse basis sets
 Use S2THRESH > 14 and THRESH = 14 in case of SCF convergence issues
 Number of orthogonalized atomic orbitals = 395
 Maximum deviation from orthogonality = 5.126E-11
 Guess from superposition of atomic densities
 Warning:  Energy on first SCF cycle will be non-variational
 SAD guess density has 67.000000 electrons

 -----------------------------------------------------------------------
  General SCF calculation program by
  Eric Jon Sundstrom, Paul Horn, Yuezhi Mao, Dmitri Zuev, Alec White,
  David Stuck, Shaama M.S., Shane Yost, Joonho Lee, David Small,
  Daniel Levine, Susi Lehtola, Hugh Burton, Evgeny Epifanovsky,
  Bang C. Huynh
 -----------------------------------------------------------------------
 Exchange:     0.1500 Hartree-Fock + 1.0000 wB97M-V + LR-HF
 Correlation:  1.0000 wB97M-V
 Using SG-2 standard quadrature grid
 Nonlocal Correlation:  VV10 with C = 0.0100 and b = 6.00 and scale = 1.00000
 Grid used for NLC:  SG-1 standard quadrature
 using 8 threads for integral computing
 -------------------------------------------------------
 OpenMP Integral computing Module                
 Release: version 1.0, May 2013, Q-Chem Inc. Pittsburgh 
 -------------------------------------------------------
 
 Citation of the SMD model:
 Marenich, A.V.; Cramer, C.J.; Truhlar, D.G.
 J. Phys. Chem. B 2009, 113, 6378-6396.
 iSolventCode=           1
 Solvent: water                                                           
 
 vradii
            1           2           3           4           5           6
    1   1.8500000   1.8500000   1.8500000   1.8500000   1.8500000   1.8500000
            7           8           9          10          11          12
    1   1.8500000   1.2000000   1.2000000   1.2000000   1.2000000   1.2000000
           13          14          15          16          17          18
    1   1.2000000   1.5200000   1.2000000   1.2000000   1.5200000   1.2000000
 -------------------------------------------------------
 OpenMP BLAS3 based DFT computing Module                
 Release: version 1.0, May 2013, Q-Chem Inc. Pittsburgh 
 -------------------------------------------------------
 A unrestricted SCF calculation will be
 performed using DIIS, GDM
 SCF converges when RMS gradient is below 1.0e-07
 ---------------------------------------
  Cycle       Energy         DIIS error
 ---------------------------------------
    1    -425.1294200492      1.28e-02  
    2    -422.4305909130      1.21e-03  Done DIIS. Switching to GDM
 ---------------------------------------
  Cycle       Energy        RMS Gradient
 ---------------------------------------
    1    -422.4305909130      3.44e-02   Descent step
    2    -422.5220811177      1.76e-02   Normal BFGS step
    3    -422.5341382078      8.99e-03   Normal BFGS step
    4    -422.5360521523      5.85e-03   Normal BFGS step
    5    -422.5365276771      4.05e-03   Normal BFGS step
    6    -422.5366792024      1.12e-03   Normal BFGS step
    7    -422.5366952499      5.66e-04   Normal BFGS step
    8    -422.5367005978      3.74e-04   Normal BFGS step
    9    -422.5367013695      2.82e-04   Normal BFGS step
   10    -422.5367017277      8.07e-05   Normal BFGS step
   11    -422.5367018041      3.58e-05   Normal BFGS step
   12    -422.5367018137      1.66e-05   Normal BFGS step
   13    -422.5367018161      4.25e-06   Normal BFGS step
   14    -422.5367018163      2.82e-06   Normal BFGS step
   15    -422.5367018163      2.26e-06   Normal BFGS step
   16    -422.5367018163      1.04e-06   Normal BFGS step
   17    -422.5367018163      4.38e-07   Normal BFGS step
   18    -422.5367018163      1.59e-07   Normal BFGS step
   19    -422.5367018164      3.98e-08  Convergence criterion met
 ---------------------------------------
 SCF time:   CPU 2090.93s  wall 266.00s 
<S^2> =          0.788752974
(3)  G-ENP(liq) elect-nuc-pol free energy of system     -422.536701816 a.u.
(4)  G-CDS(liq) cavity-dispersion-solvent structure 
     free energy                                                3.5127 kcal/mol
(6)  G-S(liq) free energy of system                     -422.531104050 a.u.
 SCF   energy in the final basis set =     -422.5311040496
 Total energy in the final basis set =     -422.5311040496
 
 --------------------------------------------------------------
 
                    Orbital Energies (a.u.)
 --------------------------------------------------------------
 
 Alpha MOs
 -- Occupied --
-19.3436 -19.3375 -10.4068 -10.3873 -10.3521 -10.3479 -10.3475 -10.3439
-10.3429  -1.1731  -1.1461  -0.9772  -0.8835  -0.8765  -0.7987  -0.7230
 -0.7209  -0.6372  -0.6308  -0.6067  -0.5843  -0.5776  -0.5290  -0.5282
 -0.5240  -0.4845  -0.4682  -0.4635  -0.4420  -0.4382  -0.4103  -0.3869
 -0.3627  -0.2704
 -- Virtual --
  0.0253   0.0349   0.0371   0.0481   0.0543   0.0561   0.0639   0.0730
  0.0791   0.0872   0.1036   0.1133   0.1229   0.1298   0.1416   0.1427
  0.1470   0.1523   0.1548   0.1607   0.1620   0.1648   0.1708   0.1764
  0.1796   0.1877   0.1947   0.2051   0.2062   0.2160   0.2164   0.2195
  0.2204   0.2292   0.2491   0.2523   0.2547   0.2723   0.2770   0.2822
  0.2972   0.3048   0.3118   0.3233   0.3293   0.3355   0.3364   0.3412
  0.3520   0.3590   0.3644   0.3802   0.3871   0.3944   0.3965   0.4138
  0.4206   0.4289   0.4422   0.4623   0.4630   0.4824   0.5258   0.5376
  0.5520   0.5677   0.5878   0.5906   0.5970   0.6018   0.6051   0.6136
  0.6274   0.6317   0.6342   0.6517   0.6561   0.6735   0.6880   0.6967
  0.6977   0.7060   0.7208   0.7232   0.7272   0.7376   0.7417   0.7513
  0.7618   0.7673   0.7811   0.7901   0.8003   0.8223   0.8324   0.8381
  0.8488   0.8575   0.8628   0.8716   0.8856   0.9029   0.9035   0.9189
  0.9619   1.0061   1.0126   1.0282   1.0326   1.0529   1.0760   1.1051
  1.1085   1.1193   1.1265   1.1460   1.1511   1.1598   1.1827   1.1962
  1.2106   1.2195   1.2316   1.2379   1.2622   1.2696   1.2894   1.2963
  1.2988   1.3204   1.3523   1.3695   1.3719   1.3814   1.3949   1.4028
  1.4164   1.4208   1.4276   1.4415   1.4528   1.4765   1.4886   1.4911
  1.5074   1.5133   1.5349   1.5414   1.5540   1.5615   1.5803   1.5837
  1.6035   1.6194   1.6321   1.6699   1.6893   1.7189   1.7222   1.7637
  1.7789   1.8029   1.8275   1.8537   1.8671   1.9082   1.9635   1.9914
  2.0011   2.0566   2.0915   2.0966   2.1093   2.1391   2.2094   2.2558
  2.3228   2.3810   2.4248   2.4423   2.4677   2.5769   2.5943   2.6336
  2.6483   2.6651   2.6901   2.7396   2.7631   2.7803   2.8023   2.8059
  2.8184   2.8293   2.8428   2.8548   2.8693   2.8857   2.8864   2.9067
  2.9213   2.9356   2.9438   2.9602   2.9820   2.9904   2.9988   3.0299
  3.0507   3.0782   3.0873   3.1305   3.1584   3.1873   3.1894   3.2062
  3.2109   3.2329   3.2348   3.2619   3.2727   3.2774   3.2969   3.3145
  3.3218   3.3366   3.3645   3.3855   3.4133   3.4350   3.4418   3.4541
  3.4786   3.4794   3.4907   3.4944   3.5007   3.5216   3.5449   3.5563
  3.5890   3.5962   3.6440   3.6582   3.6677   3.6715   3.7085   3.7265
  3.7343   3.7512   3.7898   3.8014   3.8166   3.8449   3.8530   3.8557
  3.8734   3.8803   3.8993   3.9240   3.9260   3.9447   3.9680   3.9876
  3.9996   4.0088   4.0270   4.0615   4.0831   4.1094   4.1309   4.1619
  4.1676   4.1831   4.1994   4.2130   4.2245   4.2549   4.2571   4.2728
  4.3193   4.3373   4.3431   4.3673   4.3935   4.4249   4.4449   4.4651
  4.4797   4.4879   4.4950   4.5088   4.5341   4.5428   4.5919   4.6318
  4.6537   4.6578   4.6657   4.7045   4.7225   4.7299   4.7893   4.8217
  4.9014   4.9933   5.0486   5.1301   5.1554   5.1601   5.2173   5.2458
  5.2775   5.3157   5.3172   5.3651   5.3896   5.3983   5.4617   5.4843
  5.4967   5.5703   5.5837   5.6017   5.6417   5.6784   5.6970   5.7248
  5.7715   5.7799   5.8474   5.8786   5.9223   5.9556   6.0155   6.0675
  6.1843   6.4525   6.5869   6.6489   7.1196   7.1610   7.2908   7.3189
  7.3389   7.3785   7.4263   7.4984   7.6617   7.6866   7.7921   7.8472
 24.2497  24.6246  24.6958  24.8147  24.8727  25.0983  25.4008  50.6021
 50.6693
 
 Beta MOs
 -- Occupied --
-19.3434 -19.3361 -10.4075 -10.3861 -10.3465 -10.3455 -10.3444 -10.3425
-10.3421  -1.1715  -1.1442  -0.9705  -0.8770  -0.8709  -0.7901  -0.7180
 -0.7152  -0.6336  -0.6275  -0.6044  -0.5783  -0.5741  -0.5264  -0.5254
 -0.5210  -0.4784  -0.4637  -0.4519  -0.4359  -0.4276  -0.4047  -0.3790
 -0.3469
 -- Virtual --
 -0.0234   0.0250   0.0346   0.0368   0.0482   0.0543   0.0559   0.0711
  0.0761   0.0839   0.0876   0.1032   0.1132   0.1221   0.1322   0.1423
  0.1440   0.1462   0.1541   0.1558   0.1607   0.1621   0.1661   0.1708
  0.1767   0.1795   0.1890   0.1984   0.2047   0.2074   0.2161   0.2162
  0.2200   0.2269   0.2301   0.2488   0.2525   0.2538   0.2725   0.2775
  0.2826   0.2982   0.3077   0.3148   0.3247   0.3322   0.3383   0.3406
  0.3421   0.3539   0.3600   0.3664   0.3813   0.3876   0.3955   0.3992
  0.4158   0.4228   0.4303   0.4431   0.4634   0.4653   0.4833   0.5272
  0.5396   0.5548   0.5734   0.5911   0.5945   0.5996   0.6067   0.6093
  0.6174   0.6296   0.6329   0.6385   0.6546   0.6600   0.6769   0.6913
  0.7001   0.7013   0.7097   0.7242   0.7277   0.7296   0.7401   0.7478
  0.7561   0.7633   0.7700   0.7840   0.7946   0.8028   0.8256   0.8361
  0.8374   0.8536   0.8619   0.8668   0.8748   0.8904   0.9069   0.9074
  0.9202   0.9636   1.0083   1.0143   1.0304   1.0346   1.0534   1.0781
  1.1062   1.1103   1.1203   1.1275   1.1479   1.1531   1.1624   1.1860
  1.1997   1.2116   1.2195   1.2327   1.2389   1.2641   1.2712   1.2919
  1.2975   1.3007   1.3233   1.3546   1.3712   1.3768   1.3848   1.3975
  1.4075   1.4191   1.4255   1.4322   1.4448   1.4566   1.4793   1.4902
  1.4964   1.5100   1.5152   1.5390   1.5456   1.5568   1.5678   1.5845
  1.5872   1.6057   1.6214   1.6343   1.6729   1.6912   1.7231   1.7261
  1.7675   1.7837   1.8072   1.8358   1.8592   1.8704   1.9125   1.9677
  1.9947   2.0045   2.0640   2.0952   2.1012   2.1116   2.1423   2.2111
  2.2592   2.3247   2.3822   2.4265   2.4434   2.4695   2.5851   2.6008
  2.6462   2.6561   2.6700   2.6995   2.7489   2.7674   2.7937   2.8118
  2.8192   2.8281   2.8357   2.8496   2.8637   2.8802   2.8974   2.8999
  2.9163   2.9365   2.9541   2.9609   2.9697   2.9989   2.9996   3.0146
  3.0510   3.0645   3.0918   3.1048   3.1389   3.1666   3.1951   3.1987
  3.2129   3.2181   3.2415   3.2426   3.2727   3.2818   3.2867   3.3009
  3.3191   3.3322   3.3475   3.3809   3.3958   3.4222   3.4419   3.4515
  3.4593   3.4864   3.4887   3.5011   3.5036   3.5118   3.5330   3.5530
  3.5690   3.6022   3.6083   3.6548   3.6727   3.6781   3.6835   3.7132
  3.7359   3.7430   3.7633   3.7990   3.8088   3.8241   3.8506   3.8611
  3.8634   3.8817   3.8898   3.9072   3.9319   3.9335   3.9562   3.9779
  3.9952   4.0094   4.0185   4.0367   4.0690   4.0917   4.1171   4.1365
  4.1680   4.1746   4.1891   4.2035   4.2219   4.2318   4.2603   4.2629
  4.2802   4.3252   4.3467   4.3491   4.3748   4.3989   4.4300   4.4504
  4.4770   4.4889   4.4966   4.5043   4.5185   4.5424   4.5535   4.6014
  4.6419   4.6606   4.6707   4.6796   4.7134   4.7345   4.7402   4.7987
  4.8318   4.9116   5.0083   5.0617   5.1397   5.1680   5.1713   5.2296
  5.2551   5.2795   5.3169   5.3192   5.3697   5.3935   5.4061   5.4672
  5.4866   5.5017   5.5780   5.5873   5.6058   5.6500   5.6800   5.7048
  5.7275   5.7796   5.7824   5.8646   5.8915   5.9266   5.9632   6.0191
  6.0693   6.1978   6.4627   6.5904   6.6503   7.1205   7.1633   7.2929
  7.3194   7.3403   7.3803   7.4296   7.5014   7.6627   7.6899   7.7931
  7.8515  24.2516  24.6264  24.6967  24.8179  24.8756  25.0999  25.4034
 50.6026  50.6703
 --------------------------------------------------------------
 
          Ground-State Mulliken Net Atomic Charges

     Atom                 Charge (a.u.)    Spin (a.u.)
  --------------------------------------------------------
      1 C                    -0.145024       0.383984
      2 C                    -0.391335      -0.156083
      3 C                    -0.459639       0.529335
      4 C                    -0.311699      -0.153112
      5 C                    -0.171677       0.377003
      6 C                     0.200000      -0.023630
      7 C                    -0.498852       0.026618
      8 H                     0.278717      -0.008156
      9 H                     0.293440       0.004638
     10 H                     0.283922      -0.009276
     11 H                     0.294420       0.004731
     12 H                     0.297385      -0.007708
     13 H                     0.224598       0.002901
     14 O                    -0.422157       0.006535
     15 H                     0.240763       0.002036
     16 H                     0.334558      -0.000403
     17 O                    -0.399746       0.018747
     18 H                     0.352326       0.001839
  --------------------------------------------------------
  Sum of atomic charges =     0.000000
  Sum of spin   charges =     1.000000

 -----------------------------------------------------------------
                    Cartesian Multipole Moments
 -----------------------------------------------------------------
    Charge (ESU x 10^10)
                 0.0000
    Dipole Moment (Debye)
         X       2.4056      Y      -2.8211      Z      -0.9280
       Tot       3.8219
    Quadrupole Moments (Debye-Ang)
        XX     -53.8961     XY       6.7418     YY     -55.9497
        XZ       6.3214     YZ      -1.0719     ZZ     -57.6303
    Octopole Moments (Debye-Ang^2)
       XXX     201.1540    XXY     -14.0770    XYY      65.3914
       YYY     -16.9992    XXZ     -21.3085    XYZ       8.7538
       YYZ      10.5195    XZZ      73.0562    YZZ      -6.2167
       ZZZ     -19.9742
    Hexadecapole Moments (Debye-Ang^3)
      XXXX    -871.0234   XXXY     -33.2379   XXYY    -266.8462
      XYYY     -59.3028   YYYY    -713.9977   XXXZ      80.5097
      XXYZ      22.9284   XYYZ      18.8763   YYYZ     129.5337
      XXZZ    -222.5354   XYZZ     -38.6683   YYZZ    -193.0078
      XZZZ      59.3759   YZZZ     132.1838   ZZZZ    -373.5775
 -----------------------------------------------------------------
 Calculating analytic gradient of the SCF energy
 Gradient of CDS energy
            1           2           3           4           5           6
    1   0.0001339   0.0003998  -0.0000483  -0.0004297  -0.0002270   0.0000063
    2   0.0002202  -0.0001082  -0.0005539  -0.0001489   0.0001992   0.0002170
    3   0.0001695   0.0002372   0.0001597  -0.0001443   0.0000108  -0.0000188
            7           8           9          10          11          12
    1   0.0001699   0.0000634   0.0001507  -0.0000198  -0.0001753  -0.0000927
    2   0.0001555   0.0000659  -0.0000917  -0.0001904  -0.0001067   0.0001745
    3  -0.0010089   0.0000048   0.0001117   0.0000615  -0.0000382  -0.0001141
           13          14          15          16          17          18
    1   0.0000407  -0.0002317  -0.0002177   0.0004819  -0.0000434   0.0000392
    2  -0.0002198  -0.0001013   0.0001388   0.0001606  -0.0002730   0.0004623
    3   0.0001953   0.0001995   0.0001700  -0.0000707  -0.0001176   0.0001926
 Gradient of SCF Energy
            1           2           3           4           5           6
    1  -0.0085729  -0.0041578  -0.0007945   0.0045154   0.0041843  -0.0036744
    2  -0.0030013  -0.0014643   0.0077409   0.0023271  -0.0022575   0.0021422
    3  -0.0035606  -0.0012600  -0.0015139   0.0002051   0.0018266  -0.0005867
            7           8           9          10          11          12
    1   0.0023191   0.0089923   0.0051944  -0.0005229  -0.0039515  -0.0013334
    2   0.0040947   0.0050177  -0.0031015  -0.0060813  -0.0029718   0.0002980
    3   0.0077049   0.0006565   0.0033182   0.0018405  -0.0010287  -0.0021962
           13          14          15          16          17          18
    1   0.0033592  -0.0133245  -0.0031600   0.0124400  -0.0075165   0.0060036
    2  -0.0055261   0.0102338  -0.0002290  -0.0086566   0.0000503   0.0013849
    3  -0.0031637  -0.0097856  -0.0022852   0.0068431   0.0036155  -0.0006298
 Max gradient component =       1.332E-02
 RMS gradient           =       5.069E-03
 Computing fast CPCM-SWIG gradient
 Updating gradient with PCM contributions...
 -- total gradient after adding PCM contribution --
---------------------------------------------------
  Atom         X              Y              Z     
---------------------------------------------------
   1      -0.000003      -0.000034       0.000017
   2      -0.000003       0.000009      -0.000017
   3      -0.000004       0.000015       0.000000
   4       0.000002       0.000029       0.000007
   5      -0.000041      -0.000031       0.000001
   6       0.000039       0.000049       0.000004
   7       0.000067       0.000083       0.000035
   8       0.000010       0.000001      -0.000010
   9      -0.000000      -0.000015      -0.000001
  10      -0.000010       0.000002       0.000006
  11      -0.000016       0.000008       0.000013
  12      -0.000000       0.000018       0.000011
  13      -0.000017      -0.000035      -0.000019
  14      -0.000081      -0.000065      -0.000071
  15      -0.000008       0.000012       0.000001
  16       0.000021      -0.000023       0.000021
  17       0.000011      -0.000041       0.000005
  18       0.000034       0.000018      -0.000004
---------------------------------------------------
 Number of fixed atoms: 0
 Gradient time:  CPU 322.32 s  wall 46.99 s
 ######################################################
 ######################################################
 # Starting finite difference calculation for IDERIV  #
 Finite diff step size:  1.88973e-03 a.u.
 ----------------------------------------------------------------
             Standard Nuclear Orientation (Angstroms)
    I     Atom           X                Y                Z
 ----------------------------------------------------------------
    1      C      -0.3068310227    -0.1644196543     0.8268813898
    2      C      -0.4614953476    -1.4475241448     1.2368322324
    3      C      -1.6342088633    -2.1764041516     0.9313925925
    4      C      -2.6831758041    -1.5459870036     0.2222149615
    5      C      -2.5761197590    -0.2619514340    -0.1983901968
    6      C      -1.3411895213     0.5530839377     0.0102954824
    7      C      -0.7705979294     0.9417319298    -1.3678783904
    8      H       0.5877298026     0.3929082172     1.0755982680
    9      H       0.3194227059    -1.9229921808     1.8159840550
   10      H      -1.7405915389    -3.1993800117     1.2616018488
   11      H      -3.5920840748    -2.0992055524     0.0243966821
   12      H      -3.3853628211     0.2227058277    -0.7303132190
   13      H      -0.4141564047     0.0502950539    -1.8856057985
   14      O       0.2602172607     1.9156834194    -1.2505439927
   15      H      -1.5657596448     1.4003337908    -1.9543855575
   16      H       1.0629493795     1.4816124218    -0.9419391430
   17      O      -1.7283520013     1.7771363819     0.6750258395
   18      H      -1.0042368153     2.4033961530     0.5360118459
 ----------------------------------------------------------------
 Nuclear Repulsion Energy =         447.23722799 hartrees
 There are       34 alpha and       33 beta electrons
 Discretize the solute cavity surface with Lebedev spheres
	Using 110 Lebedev grid points for each H atom
	Using 194 Lebedev grid points for other atoms
	Atomic van der Waals radii will be scaled by 1.20
 Remove points where switching function is < 1.0e-08
 Keep 1306 surface tesserae and discard 1430 interior tesserae
 Molecular Surface Area = 151.692 Angst**2
 Requested basis set is 6-311++G(2df,2p)
 There are 126 shells and 396 basis functions
 A cutoff of  1.0D-12 yielded   7366 shell pairs
 There are     73534 function pairs (     91283 Cartesian)
 Smallest overlap matrix eigenvalue = 7.47E-07
 Linear dependence detected in AO basis
 Tighter screening thresholds may be required for diffuse basis sets
 Use S2THRESH > 14 and THRESH = 14 in case of SCF convergence issues
 Number of orthogonalized atomic orbitals = 395
 Maximum deviation from orthogonality = 3.110E-11
 Guess MOs from SCF MO coefficient file

 -----------------------------------------------------------------------
  General SCF calculation program by
  Eric Jon Sundstrom, Paul Horn, Yuezhi Mao, Dmitri Zuev, Alec White,
  David Stuck, Shaama M.S., Shane Yost, Joonho Lee, David Small,
  Daniel Levine, Susi Lehtola, Hugh Burton, Evgeny Epifanovsky,
  Bang C. Huynh
 -----------------------------------------------------------------------
 Exchange:     0.1500 Hartree-Fock + 1.0000 wB97M-V + LR-HF
 Correlation:  1.0000 wB97M-V
 Using SG-2 standard quadrature grid
 Nonlocal Correlation:  VV10 with C = 0.0100 and b = 6.00 and scale = 1.00000
 Grid used for NLC:  SG-1 standard quadrature
 
 Citation of the SMD model:
 Marenich, A.V.; Cramer, C.J.; Truhlar, D.G.
 J. Phys. Chem. B 2009, 113, 6378-6396.
 iSolventCode=           1
 Solvent: water                                                           
 
 vradii
            1           2           3           4           5           6
    1   1.8500000   1.8500000   1.8500000   1.8500000   1.8500000   1.8500000
            7           8           9          10          11          12
    1   1.8500000   1.2000000   1.2000000   1.2000000   1.2000000   1.2000000
           13          14          15          16          17          18
    1   1.2000000   1.5200000   1.2000000   1.2000000   1.5200000   1.2000000
 -------------------------------------------------------
 OpenMP BLAS3 based DFT computing Module                
 Release: version 1.0, May 2013, Q-Chem Inc. Pittsburgh 
 -------------------------------------------------------
 A unrestricted SCF calculation will be
 performed using Roothaan-Hall, DIIS, GDM
 SCF converges when RMS gradient is below 1.0e-07
 ---------------------------------------
  Cycle       Energy         DIIS error
 ---------------------------------------
    1    -422.5095340003      1.90e-04  Roothaan Step
 ---------------------------------------
  Cycle       Energy         DIIS error
 ---------------------------------------
    1    -422.5313316616      2.14e-04  
    2    -422.5351795468      1.62e-04  Done DIIS. Switching to GDM
 ---------------------------------------
  Cycle       Energy        RMS Gradient
 ---------------------------------------
    1    -422.5351795468      4.71e-03   Normal BFGS step
    2    -422.5353467594      6.17e-03   Normal BFGS step
    3    -422.5366790393      7.91e-04   Normal BFGS step
    4    -422.5366940766      3.78e-04   Normal BFGS step
    5    -422.5367006942      2.41e-04   Normal BFGS step
    6    -422.5367010276      8.41e-05   Normal BFGS step
    7    -422.5367011193      7.54e-05   Normal BFGS step
    8    -422.5367011396      4.40e-05   Normal BFGS step
    9    -422.5367011446      1.05e-05   Normal BFGS step
   10    -422.5367011457      7.68e-06   Normal BFGS step
   11    -422.5367011461      5.58e-06   Normal BFGS step
   12    -422.5367011463      2.95e-06   Normal BFGS step
   13    -422.5367011463      1.24e-06   Normal BFGS step
   14    -422.5367011463      4.79e-07   Normal BFGS step
   15    -422.5367011463      2.07e-07   Normal BFGS step
   16    -422.5367011463      1.04e-07   Normal BFGS step
   17    -422.5367011463      5.84e-08  Convergence criterion met
 ---------------------------------------
 SCF time:   CPU 2015.54s  wall 256.00s 
<S^2> =          0.788778428
(3)  G-ENP(liq) elect-nuc-pol free energy of system     -422.536701146 a.u.
(4)  G-CDS(liq) cavity-dispersion-solvent structure 
     free energy                                                3.5128 kcal/mol
(6)  G-S(liq) free energy of system                     -422.531103125 a.u.
 SCF   energy in the final basis set =     -422.5311031247
 Total energy in the final basis set =     -422.5311031247
 
 --------------------------------------------------------------
 
                    Orbital Energies (a.u.)
 --------------------------------------------------------------
 
 Alpha MOs
 -- Occupied --
-19.3436 -19.3375 -10.4068 -10.3872 -10.3521 -10.3479 -10.3475 -10.3439
-10.3429  -1.1731  -1.1461  -0.9771  -0.8835  -0.8765  -0.7987  -0.7230
 -0.7209  -0.6372  -0.6308  -0.6067  -0.5844  -0.5776  -0.5291  -0.5282
 -0.5240  -0.4845  -0.4682  -0.4635  -0.4420  -0.4382  -0.4103  -0.3869
 -0.3627  -0.2704
 -- Virtual --
  0.0253   0.0349   0.0371   0.0481   0.0543   0.0561   0.0639   0.0730
  0.0791   0.0872   0.1036   0.1133   0.1229   0.1299   0.1416   0.1427
  0.1470   0.1523   0.1548   0.1607   0.1620   0.1648   0.1708   0.1764
  0.1796   0.1877   0.1947   0.2051   0.2062   0.2160   0.2164   0.2195
  0.2204   0.2292   0.2491   0.2523   0.2547   0.2723   0.2770   0.2823
  0.2972   0.3048   0.3118   0.3233   0.3292   0.3354   0.3365   0.3411
  0.3520   0.3590   0.3644   0.3802   0.3871   0.3944   0.3965   0.4137
  0.4205   0.4289   0.4421   0.4623   0.4630   0.4824   0.5258   0.5376
  0.5520   0.5676   0.5878   0.5906   0.5970   0.6017   0.6051   0.6136
  0.6274   0.6318   0.6342   0.6517   0.6561   0.6735   0.6880   0.6967
  0.6977   0.7060   0.7208   0.7232   0.7272   0.7376   0.7417   0.7512
  0.7618   0.7672   0.7811   0.7901   0.8003   0.8223   0.8324   0.8381
  0.8488   0.8575   0.8628   0.8716   0.8855   0.9028   0.9035   0.9189
  0.9619   1.0061   1.0126   1.0283   1.0326   1.0529   1.0761   1.1051
  1.1085   1.1193   1.1265   1.1460   1.1511   1.1599   1.1827   1.1962
  1.2106   1.2195   1.2316   1.2379   1.2622   1.2696   1.2894   1.2963
  1.2988   1.3204   1.3523   1.3695   1.3718   1.3813   1.3949   1.4028
  1.4164   1.4207   1.4276   1.4415   1.4528   1.4765   1.4885   1.4911
  1.5073   1.5133   1.5349   1.5414   1.5541   1.5617   1.5802   1.5838
  1.6034   1.6194   1.6322   1.6698   1.6894   1.7189   1.7222   1.7637
  1.7788   1.8029   1.8275   1.8535   1.8671   1.9081   1.9633   1.9913
  2.0011   2.0566   2.0916   2.0965   2.1091   2.1391   2.2094   2.2558
  2.3229   2.3809   2.4249   2.4423   2.4676   2.5768   2.5942   2.6336
  2.6484   2.6649   2.6900   2.7396   2.7631   2.7803   2.8024   2.8058
  2.8182   2.8293   2.8429   2.8548   2.8692   2.8858   2.8863   2.9068
  2.9213   2.9356   2.9438   2.9603   2.9819   2.9904   2.9988   3.0299
  3.0506   3.0781   3.0872   3.1304   3.1584   3.1872   3.1894   3.2061
  3.2108   3.2329   3.2346   3.2620   3.2726   3.2774   3.2970   3.3145
  3.3218   3.3366   3.3645   3.3856   3.4132   3.4348   3.4417   3.4542
  3.4785   3.4794   3.4906   3.4946   3.5005   3.5216   3.5449   3.5563
  3.5890   3.5962   3.6440   3.6583   3.6678   3.6714   3.7083   3.7265
  3.7343   3.7512   3.7897   3.8013   3.8165   3.8450   3.8531   3.8557
  3.8733   3.8802   3.8992   3.9239   3.9258   3.9446   3.9681   3.9876
  3.9995   4.0085   4.0271   4.0613   4.0829   4.1095   4.1309   4.1619
  4.1675   4.1832   4.1996   4.2130   4.2245   4.2548   4.2571   4.2726
  4.3192   4.3375   4.3430   4.3673   4.3935   4.4249   4.4448   4.4653
  4.4796   4.4878   4.4950   4.5090   4.5341   4.5429   4.5919   4.6318
  4.6536   4.6576   4.6656   4.7045   4.7225   4.7300   4.7891   4.8213
  4.9014   4.9931   5.0485   5.1301   5.1555   5.1603   5.2173   5.2456
  5.2775   5.3157   5.3172   5.3651   5.3895   5.3983   5.4616   5.4843
  5.4969   5.5705   5.5837   5.6017   5.6418   5.6783   5.6969   5.7248
  5.7715   5.7799   5.8473   5.8786   5.9224   5.9557   6.0155   6.0675
  6.1847   6.4522   6.5868   6.6489   7.1196   7.1610   7.2907   7.3189
  7.3389   7.3785   7.4262   7.4983   7.6617   7.6865   7.7921   7.8472
 24.2499  24.6247  24.6957  24.8142  24.8726  25.0980  25.4007  50.6021
 50.6693
 
 Beta MOs
 -- Occupied --
-19.3434 -19.3361 -10.4075 -10.3861 -10.3465 -10.3455 -10.3444 -10.3425
-10.3421  -1.1715  -1.1442  -0.9704  -0.8770  -0.8709  -0.7901  -0.7181
 -0.7151  -0.6336  -0.6275  -0.6044  -0.5784  -0.5741  -0.5264  -0.5254
 -0.5210  -0.4784  -0.4637  -0.4519  -0.4359  -0.4276  -0.4046  -0.3789
 -0.3469
 -- Virtual --
 -0.0234   0.0250   0.0346   0.0368   0.0482   0.0543   0.0559   0.0711
  0.0761   0.0838   0.0876   0.1032   0.1132   0.1221   0.1322   0.1423
  0.1440   0.1462   0.1541   0.1558   0.1607   0.1621   0.1661   0.1708
  0.1767   0.1795   0.1890   0.1984   0.2046   0.2074   0.2161   0.2162
  0.2200   0.2269   0.2301   0.2488   0.2525   0.2538   0.2724   0.2776
  0.2827   0.2982   0.3077   0.3148   0.3247   0.3321   0.3383   0.3405
  0.3421   0.3539   0.3600   0.3664   0.3813   0.3876   0.3955   0.3991
  0.4158   0.4227   0.4303   0.4431   0.4634   0.4652   0.4833   0.5272
  0.5396   0.5548   0.5733   0.5911   0.5944   0.5995   0.6067   0.6093
  0.6174   0.6296   0.6329   0.6385   0.6547   0.6600   0.6769   0.6913
  0.7000   0.7013   0.7097   0.7242   0.7276   0.7295   0.7401   0.7478
  0.7560   0.7634   0.7700   0.7840   0.7947   0.8028   0.8255   0.8361
  0.8374   0.8536   0.8620   0.8668   0.8748   0.8903   0.9069   0.9073
  0.9203   0.9636   1.0084   1.0143   1.0304   1.0347   1.0534   1.0781
  1.1062   1.1103   1.1202   1.1275   1.1479   1.1530   1.1624   1.1860
  1.1997   1.2116   1.2194   1.2327   1.2388   1.2641   1.2712   1.2919
  1.2975   1.3008   1.3233   1.3545   1.3712   1.3768   1.3848   1.3974
  1.4075   1.4192   1.4254   1.4321   1.4447   1.4567   1.4793   1.4902
  1.4963   1.5099   1.5152   1.5390   1.5456   1.5568   1.5681   1.5844
  1.5872   1.6056   1.6214   1.6344   1.6728   1.6912   1.7231   1.7261
  1.7675   1.7836   1.8072   1.8358   1.8589   1.8704   1.9124   1.9675
  1.9947   2.0046   2.0640   2.0952   2.1011   2.1115   2.1423   2.2111
  2.2592   2.3248   2.3822   2.4266   2.4434   2.4695   2.5850   2.6008
  2.6462   2.6561   2.6698   2.6994   2.7488   2.7674   2.7937   2.8119
  2.8191   2.8281   2.8356   2.8496   2.8637   2.8801   2.8974   2.9000
  2.9164   2.9364   2.9542   2.9609   2.9697   2.9988   2.9995   3.0146
  3.0510   3.0644   3.0917   3.1047   3.1389   3.1665   3.1950   3.1985
  3.2128   3.2180   3.2413   3.2426   3.2728   3.2817   3.2867   3.3010
  3.3191   3.3323   3.3474   3.3809   3.3958   3.4220   3.4418   3.4514
  3.4594   3.4863   3.4887   3.5012   3.5035   3.5117   3.5330   3.5530
  3.5689   3.6022   3.6083   3.6548   3.6727   3.6782   3.6834   3.7130
  3.7359   3.7430   3.7632   3.7989   3.8087   3.8240   3.8507   3.8612
  3.8634   3.8816   3.8898   3.9071   3.9318   3.9334   3.9561   3.9780
  3.9953   4.0094   4.0182   4.0367   4.0688   4.0916   4.1171   4.1364
  4.1680   4.1745   4.1893   4.2036   4.2219   4.2318   4.2602   4.2629
  4.2801   4.3251   4.3467   4.3491   4.3749   4.3989   4.4300   4.4502
  4.4773   4.4888   4.4964   4.5044   4.5188   4.5424   4.5535   4.6014
  4.6419   4.6606   4.6705   4.6794   4.7134   4.7345   4.7404   4.7985
  4.8315   4.9116   5.0081   5.0616   5.1398   5.1681   5.1716   5.2296
  5.2549   5.2795   5.3169   5.3192   5.3697   5.3934   5.4060   5.4671
  5.4866   5.5018   5.5781   5.5874   5.6058   5.6500   5.6800   5.7047
  5.7275   5.7795   5.7825   5.8644   5.8917   5.9267   5.9634   6.0191
  6.0692   6.1983   6.4625   6.5903   6.6503   7.1205   7.1632   7.2929
  7.3194   7.3403   7.3803   7.4296   7.5013   7.6627   7.6898   7.7931
  7.8515  24.2518  24.6264  24.6965  24.8174  24.8755  25.0996  25.4033
 50.6026  50.6703
 --------------------------------------------------------------
 
          Ground-State Mulliken Net Atomic Charges

     Atom                 Charge (a.u.)    Spin (a.u.)
  --------------------------------------------------------
      1 C                    -0.145558       0.384147
      2 C                    -0.390050      -0.156166
      3 C                    -0.460179       0.529333
      4 C                    -0.311325      -0.153143
      5 C                    -0.171723       0.377017
      6 C                     0.199129      -0.023628
      7 C                    -0.498946       0.026561
      8 H                     0.279226      -0.008129
      9 H                     0.293395       0.004637
     10 H                     0.283907      -0.009275
     11 H                     0.294441       0.004730
     12 H                     0.297355      -0.007711
     13 H                     0.224607       0.002905
     14 O                    -0.422165       0.006529
     15 H                     0.240753       0.002036
     16 H                     0.334547      -0.000404
     17 O                    -0.399723       0.018722
     18 H                     0.352309       0.001839
  --------------------------------------------------------
  Sum of atomic charges =     0.000000
  Sum of spin   charges =     1.000000

 -----------------------------------------------------------------
                    Cartesian Multipole Moments
 -----------------------------------------------------------------
    Charge (ESU x 10^10)
                 0.0000
    Dipole Moment (Debye)
         X       2.4050      Y      -2.8204      Z      -0.9273
       Tot       3.8208
    Quadrupole Moments (Debye-Ang)
        XX     -53.8929     XY       6.7449     YY     -55.9498
        XZ       6.3212     YZ      -1.0691     ZZ     -57.6315
    Octopole Moments (Debye-Ang^2)
       XXX     201.1283    XXY     -14.0808    XYY      65.3809
       YYY     -16.9999    XXZ     -21.3074    XYZ       8.7555
       YYZ      10.5196    XZZ      73.0515    YZZ      -6.2134
       ZZZ     -19.9716
    Hexadecapole Moments (Debye-Ang^3)
      XXXX    -870.9634   XXXY     -33.2219   XXYY    -266.8329
      XYYY     -59.2782   YYYY    -713.9882   XXXZ      80.4987
      XXYZ      22.9280   XYYZ      18.8653   YYYZ     129.5432
      XXZZ    -222.5300   XYZZ     -38.6609   YYZZ    -193.0152
      XZZZ      59.3596   YZZZ     132.1993   ZZZZ    -373.5870
 -----------------------------------------------------------------
 Calculating analytic gradient of the SCF energy
 Gradient of CDS energy
            1           2           3           4           5           6
    1   0.0001357   0.0003992  -0.0000482  -0.0004297  -0.0002270   0.0000058
    2   0.0002203  -0.0001085  -0.0005539  -0.0001489   0.0001991   0.0002173
    3   0.0001702   0.0002373   0.0001597  -0.0001443   0.0000108  -0.0000192
            7           8           9          10          11          12
    1   0.0001698   0.0000626   0.0001507  -0.0000198  -0.0001753  -0.0000927
    2   0.0001556   0.0000657  -0.0000917  -0.0001904  -0.0001067   0.0001745
    3  -0.0010090   0.0000043   0.0001117   0.0000615  -0.0000382  -0.0001141
           13          14          15          16          17          18
    1   0.0000407  -0.0002317  -0.0002177   0.0004819  -0.0000434   0.0000392
    2  -0.0002198  -0.0001013   0.0001388   0.0001606  -0.0002730   0.0004623
    3   0.0001954   0.0001995   0.0001700  -0.0000707  -0.0001176   0.0001926
 Gradient of SCF Energy
            1           2           3           4           5           6
    1  -0.0075894  -0.0043585  -0.0008055   0.0045253   0.0041402  -0.0039632
    2  -0.0027503  -0.0015517   0.0076751   0.0023237  -0.0022435   0.0021905
    3  -0.0032838  -0.0012799  -0.0015013   0.0002121   0.0017889  -0.0006888
            7           8           9          10          11          12
    1   0.0023456   0.0085353   0.0052036  -0.0005309  -0.0039526  -0.0013397
    2   0.0040928   0.0048017  -0.0030533  -0.0060872  -0.0029718   0.0002930
    3   0.0077048   0.0005369   0.0032988   0.0018351  -0.0010282  -0.0021991
           13          14          15          16          17          18
    1   0.0033588  -0.0133268  -0.0031608   0.0124393  -0.0075276   0.0060068
    2  -0.0055243   0.0102318  -0.0002330  -0.0086565   0.0000762   0.0013866
    3  -0.0031622  -0.0097903  -0.0022764   0.0068463   0.0036154  -0.0006283
 Max gradient component =       1.333E-02
 RMS gradient           =       5.020E-03
 Computing fast CPCM-SWIG gradient
 Updating gradient with PCM contributions...
 -- total gradient after adding PCM contribution --
---------------------------------------------------
  Atom         X              Y              Z     
---------------------------------------------------
   1       0.000984       0.000220       0.000295
   2      -0.000202      -0.000074      -0.000034
   3      -0.000015      -0.000049       0.000012
   4       0.000005       0.000027       0.000012
   5      -0.000086      -0.000010      -0.000034
   6      -0.000251       0.000094      -0.000102
   7       0.000095       0.000082       0.000036
   8      -0.000454      -0.000227      -0.000131
   9       0.000013       0.000028      -0.000017
  10      -0.000017      -0.000003       0.000001
  11      -0.000016       0.000009       0.000014
  12      -0.000005       0.000013       0.000008
  13      -0.000016      -0.000036      -0.000019
  14      -0.000083      -0.000066      -0.000073
  15      -0.000010       0.000008       0.000009
  16       0.000020      -0.000023       0.000022
  17       0.000002      -0.000012       0.000005
  18       0.000036       0.000019      -0.000003
---------------------------------------------------
 Number of fixed atoms: 0
 Gradient time:  CPU 326.60 s  wall 46.79 s
 ----------------------------------------------------------------
             Standard Nuclear Orientation (Angstroms)
    I     Atom           X                Y                Z
 ----------------------------------------------------------------
    1      C      -0.3088310227    -0.1644196543     0.8268813898
    2      C      -0.4614953476    -1.4475241448     1.2368322324
    3      C      -1.6342088633    -2.1764041516     0.9313925925
    4      C      -2.6831758041    -1.5459870036     0.2222149615
    5      C      -2.5761197590    -0.2619514340    -0.1983901968
    6      C      -1.3411895213     0.5530839377     0.0102954824
    7      C      -0.7705979294     0.9417319298    -1.3678783904
    8      H       0.5877298026     0.3929082172     1.0755982680
    9      H       0.3194227059    -1.9229921808     1.8159840550
   10      H      -1.7405915389    -3.1993800117     1.2616018488
   11      H      -3.5920840748    -2.0992055524     0.0243966821
   12      H      -3.3853628211     0.2227058277    -0.7303132190
   13      H      -0.4141564047     0.0502950539    -1.8856057985
   14      O       0.2602172607     1.9156834194    -1.2505439927
   15      H      -1.5657596448     1.4003337908    -1.9543855575
   16      H       1.0629493795     1.4816124218    -0.9419391430
   17      O      -1.7283520013     1.7771363819     0.6750258395
   18      H      -1.0042368153     2.4033961530     0.5360118459
 ----------------------------------------------------------------
 Nuclear Repulsion Energy =         447.26592687 hartrees
 There are       34 alpha and       33 beta electrons
 Discretize the solute cavity surface with Lebedev spheres
	Using 110 Lebedev grid points for each H atom
	Using 194 Lebedev grid points for other atoms
	Atomic van der Waals radii will be scaled by 1.20
 Remove points where switching function is < 1.0e-08
 Keep 1306 surface tesserae and discard 1430 interior tesserae
 Molecular Surface Area = 151.694 Angst**2
 Requested basis set is 6-311++G(2df,2p)
 There are 126 shells and 396 basis functions
 A cutoff of  1.0D-12 yielded   7366 shell pairs
 There are     73534 function pairs (     91283 Cartesian)
 Smallest overlap matrix eigenvalue = 7.46E-07
 Linear dependence detected in AO basis
 Tighter screening thresholds may be required for diffuse basis sets
 Use S2THRESH > 14 and THRESH = 14 in case of SCF convergence issues
 Number of orthogonalized atomic orbitals = 395
 Maximum deviation from orthogonality = 3.830E-11
 Guess MOs from SCF MO coefficient file

 -----------------------------------------------------------------------
  General SCF calculation program by
  Eric Jon Sundstrom, Paul Horn, Yuezhi Mao, Dmitri Zuev, Alec White,
  David Stuck, Shaama M.S., Shane Yost, Joonho Lee, David Small,
  Daniel Levine, Susi Lehtola, Hugh Burton, Evgeny Epifanovsky,
  Bang C. Huynh
 -----------------------------------------------------------------------
 Exchange:     0.1500 Hartree-Fock + 1.0000 wB97M-V + LR-HF
 Correlation:  1.0000 wB97M-V
 Using SG-2 standard quadrature grid
 Nonlocal Correlation:  VV10 with C = 0.0100 and b = 6.00 and scale = 1.00000
 Grid used for NLC:  SG-1 standard quadrature
 
 Citation of the SMD model:
 Marenich, A.V.; Cramer, C.J.; Truhlar, D.G.
 J. Phys. Chem. B 2009, 113, 6378-6396.
 iSolventCode=           1
 Solvent: water                                                           
 
 vradii
            1           2           3           4           5           6
    1   1.8500000   1.8500000   1.8500000   1.8500000   1.8500000   1.8500000
            7           8           9          10          11          12
    1   1.8500000   1.2000000   1.2000000   1.2000000   1.2000000   1.2000000
           13          14          15          16          17          18
    1   1.2000000   1.5200000   1.2000000   1.2000000   1.5200000   1.2000000
 -------------------------------------------------------
 OpenMP BLAS3 based DFT computing Module                
 Release: version 1.0, May 2013, Q-Chem Inc. Pittsburgh 
 -------------------------------------------------------
 A unrestricted SCF calculation will be
 performed using Roothaan-Hall, DIIS, GDM
 SCF converges when RMS gradient is below 1.0e-07
 ---------------------------------------
  Cycle       Energy         DIIS error
 ---------------------------------------
    1    -422.5095197852      1.90e-04  Roothaan Step
 ---------------------------------------
  Cycle       Energy         DIIS error
 ---------------------------------------
    1    -422.5313304501      2.14e-04  
    2    -422.5351767338      1.62e-04  Done DIIS. Switching to GDM
 ---------------------------------------
  Cycle       Energy        RMS Gradient
 ---------------------------------------
    1    -422.5351767338      4.74e-03   Normal BFGS step
    2    -422.5353421122      6.19e-03   Normal BFGS step
    3    -422.5366785121      7.82e-04   Normal BFGS step
    4    -422.5366935717      3.80e-04   Normal BFGS step
    5    -422.5367001743      2.37e-04   Normal BFGS step
    6    -422.5367005086      8.17e-05   Normal BFGS step
    7    -422.5367006003      7.32e-05   Normal BFGS step
    8    -422.5367006206      4.25e-05   Normal BFGS step
    9    -422.5367006256      9.75e-06   Normal BFGS step
   10    -422.5367006266      7.08e-06   Normal BFGS step
   11    -422.5367006270      5.18e-06   Normal BFGS step
   12    -422.5367006271      2.87e-06   Normal BFGS step
   13    -422.5367006271      1.26e-06   Normal BFGS step
   14    -422.5367006272      4.94e-07   Normal BFGS step
   15    -422.5367006272      2.11e-07   Normal BFGS step
   16    -422.5367006272      1.05e-07   Normal BFGS step
   17    -422.5367006271      5.78e-08  Convergence criterion met
 ---------------------------------------
 SCF time:   CPU 2009.82s  wall 255.00s 
<S^2> =          0.788727595
(3)  G-ENP(liq) elect-nuc-pol free energy of system     -422.536700627 a.u.
(4)  G-CDS(liq) cavity-dispersion-solvent structure 
     free energy                                                3.5125 kcal/mol
(6)  G-S(liq) free energy of system                     -422.531103111 a.u.
 SCF   energy in the final basis set =     -422.5311031115
 Total energy in the final basis set =     -422.5311031115
 
 --------------------------------------------------------------
 
                    Orbital Energies (a.u.)
 --------------------------------------------------------------
 
 Alpha MOs
 -- Occupied --
-19.3436 -19.3375 -10.4068 -10.3873 -10.3521 -10.3479 -10.3475 -10.3439
-10.3429  -1.1731  -1.1461  -0.9772  -0.8835  -0.8765  -0.7987  -0.7229
 -0.7210  -0.6372  -0.6308  -0.6067  -0.5843  -0.5777  -0.5290  -0.5282
 -0.5240  -0.4845  -0.4682  -0.4635  -0.4420  -0.4382  -0.4103  -0.3869
 -0.3627  -0.2704
 -- Virtual --
  0.0253   0.0349   0.0371   0.0481   0.0543   0.0561   0.0639   0.0730
  0.0791   0.0872   0.1036   0.1133   0.1229   0.1298   0.1416   0.1427
  0.1470   0.1523   0.1548   0.1607   0.1620   0.1648   0.1708   0.1764
  0.1796   0.1877   0.1947   0.2052   0.2062   0.2160   0.2164   0.2195
  0.2204   0.2291   0.2491   0.2522   0.2548   0.2723   0.2770   0.2822
  0.2972   0.3049   0.3119   0.3234   0.3293   0.3356   0.3364   0.3412
  0.3519   0.3590   0.3644   0.3802   0.3871   0.3943   0.3965   0.4138
  0.4206   0.4289   0.4422   0.4623   0.4630   0.4824   0.5258   0.5376
  0.5520   0.5678   0.5878   0.5907   0.5971   0.6018   0.6051   0.6137
  0.6274   0.6317   0.6343   0.6516   0.6561   0.6735   0.6880   0.6968
  0.6977   0.7060   0.7208   0.7232   0.7273   0.7377   0.7417   0.7513
  0.7618   0.7673   0.7811   0.7901   0.8002   0.8224   0.8324   0.8381
  0.8487   0.8575   0.8628   0.8717   0.8856   0.9029   0.9035   0.9189
  0.9619   1.0060   1.0126   1.0282   1.0325   1.0528   1.0760   1.1051
  1.1085   1.1193   1.1265   1.1460   1.1511   1.1598   1.1828   1.1962
  1.2106   1.2195   1.2316   1.2379   1.2622   1.2697   1.2894   1.2963
  1.2988   1.3203   1.3523   1.3695   1.3719   1.3814   1.3950   1.4028
  1.4163   1.4208   1.4276   1.4416   1.4527   1.4765   1.4886   1.4912
  1.5074   1.5133   1.5348   1.5414   1.5540   1.5613   1.5804   1.5837
  1.6036   1.6194   1.6320   1.6699   1.6893   1.7189   1.7222   1.7637
  1.7790   1.8030   1.8276   1.8539   1.8671   1.9083   1.9637   1.9915
  2.0010   2.0566   2.0914   2.0967   2.1094   2.1391   2.2094   2.2558
  2.3228   2.3810   2.4248   2.4423   2.4677   2.5770   2.5943   2.6336
  2.6483   2.6653   2.6903   2.7396   2.7631   2.7803   2.8022   2.8060
  2.8186   2.8293   2.8428   2.8548   2.8693   2.8857   2.8865   2.9067
  2.9213   2.9355   2.9438   2.9602   2.9821   2.9904   2.9988   3.0299
  3.0507   3.0783   3.0874   3.1305   3.1585   3.1874   3.1895   3.2063
  3.2109   3.2329   3.2350   3.2619   3.2728   3.2774   3.2968   3.3145
  3.3218   3.3367   3.3645   3.3854   3.4134   3.4351   3.4419   3.4540
  3.4786   3.4794   3.4908   3.4942   3.5009   3.5215   3.5449   3.5564
  3.5890   3.5962   3.6441   3.6581   3.6676   3.6716   3.7086   3.7264
  3.7344   3.7513   3.7898   3.8015   3.8167   3.8449   3.8529   3.8556
  3.8734   3.8803   3.8994   3.9241   3.9262   3.9448   3.9679   3.9875
  3.9996   4.0090   4.0270   4.0617   4.0832   4.1094   4.1309   4.1619
  4.1676   4.1830   4.1993   4.2129   4.2245   4.2550   4.2571   4.2729
  4.3194   4.3372   4.3432   4.3673   4.3935   4.4249   4.4451   4.4650
  4.4797   4.4881   4.4950   4.5085   4.5341   4.5427   4.5919   4.6319
  4.6537   4.6581   4.6659   4.7045   4.7224   4.7298   4.7895   4.8220
  4.9014   4.9935   5.0487   5.1300   5.1552   5.1599   5.2173   5.2460
  5.2775   5.3157   5.3171   5.3651   5.3898   5.3983   5.4617   5.4843
  5.4966   5.5700   5.5837   5.6017   5.6417   5.6784   5.6971   5.7249
  5.7714   5.7798   5.8475   5.8785   5.9221   5.9555   6.0155   6.0675
  6.1839   6.4528   6.5870   6.6489   7.1197   7.1610   7.2908   7.3189
  7.3390   7.3785   7.4263   7.4984   7.6617   7.6866   7.7921   7.8473
 24.2494  24.6246  24.6960  24.8151  24.8728  25.0985  25.4009  50.6021
 50.6694
 
 Beta MOs
 -- Occupied --
-19.3434 -19.3361 -10.4075 -10.3861 -10.3465 -10.3455 -10.3444 -10.3425
-10.3421  -1.1715  -1.1442  -0.9705  -0.8770  -0.8710  -0.7901  -0.7180
 -0.7152  -0.6336  -0.6275  -0.6044  -0.5783  -0.5741  -0.5264  -0.5253
 -0.5210  -0.4784  -0.4637  -0.4519  -0.4358  -0.4276  -0.4047  -0.3790
 -0.3469
 -- Virtual --
 -0.0234   0.0250   0.0346   0.0368   0.0482   0.0543   0.0559   0.0711
  0.0761   0.0839   0.0876   0.1032   0.1132   0.1221   0.1322   0.1423
  0.1440   0.1462   0.1541   0.1558   0.1607   0.1621   0.1661   0.1708
  0.1767   0.1796   0.1890   0.1984   0.2047   0.2074   0.2161   0.2162
  0.2200   0.2269   0.2301   0.2488   0.2525   0.2539   0.2725   0.2775
  0.2825   0.2982   0.3078   0.3148   0.3248   0.3322   0.3382   0.3406
  0.3422   0.3539   0.3600   0.3664   0.3813   0.3876   0.3955   0.3992
  0.4158   0.4228   0.4304   0.4431   0.4634   0.4653   0.4834   0.5272
  0.5396   0.5548   0.5735   0.5911   0.5945   0.5996   0.6068   0.6093
  0.6174   0.6296   0.6329   0.6385   0.6546   0.6601   0.6769   0.6913
  0.7001   0.7013   0.7097   0.7242   0.7277   0.7296   0.7401   0.7478
  0.7561   0.7633   0.7701   0.7840   0.7946   0.8028   0.8256   0.8361
  0.8374   0.8536   0.8618   0.8669   0.8749   0.8904   0.9069   0.9075
  0.9202   0.9637   1.0083   1.0143   1.0304   1.0346   1.0533   1.0780
  1.1063   1.1102   1.1203   1.1275   1.1479   1.1531   1.1623   1.1861
  1.1997   1.2116   1.2195   1.2327   1.2389   1.2642   1.2712   1.2919
  1.2975   1.3007   1.3232   1.3546   1.3712   1.3769   1.3849   1.3975
  1.4075   1.4191   1.4256   1.4322   1.4448   1.4566   1.4794   1.4902
  1.4964   1.5100   1.5152   1.5389   1.5456   1.5567   1.5676   1.5846
  1.5872   1.6058   1.6215   1.6342   1.6729   1.6912   1.7232   1.7262
  1.7675   1.7838   1.8073   1.8359   1.8594   1.8705   1.9126   1.9679
  1.9948   2.0045   2.0640   2.0951   2.1012   2.1117   2.1423   2.2111
  2.2592   2.3247   2.3822   2.4264   2.4434   2.4696   2.5852   2.6008
  2.6462   2.6561   2.6702   2.6997   2.7489   2.7674   2.7937   2.8117
  2.8194   2.8281   2.8359   2.8495   2.8637   2.8802   2.8975   2.8999
  2.9163   2.9365   2.9541   2.9609   2.9696   2.9989   2.9997   3.0146
  3.0509   3.0646   3.0919   3.1050   3.1390   3.1666   3.1951   3.1989
  3.2130   3.2182   3.2417   3.2426   3.2726   3.2819   3.2867   3.3008
  3.3192   3.3322   3.3475   3.3808   3.3957   3.4223   3.4420   3.4517
  3.4593   3.4864   3.4886   3.5010   3.5038   3.5120   3.5330   3.5530
  3.5690   3.6021   3.6082   3.6549   3.6727   3.6780   3.6835   3.7133
  3.7358   3.7431   3.7633   3.7990   3.8089   3.8243   3.8506   3.8610
  3.8634   3.8817   3.8899   3.9073   3.9320   3.9337   3.9563   3.9778
  3.9951   4.0094   4.0187   4.0367   4.0692   4.0919   4.1170   4.1365
  4.1680   4.1747   4.1890   4.2034   4.2219   4.2318   4.2605   4.2629
  4.2804   4.3254   4.3466   4.3491   4.3747   4.3989   4.4300   4.4505
  4.4768   4.4890   4.4968   4.5043   4.5182   4.5423   4.5535   4.6014
  4.6419   4.6606   4.6709   4.6798   4.7134   4.7344   4.7401   4.7989
  4.8321   4.9116   5.0084   5.0618   5.1395   5.1679   5.1711   5.2296
  5.2553   5.2795   5.3169   5.3191   5.3697   5.3936   5.4061   5.4672
  5.4866   5.5015   5.5779   5.5873   5.6058   5.6499   5.6800   5.7049
  5.7275   5.7796   5.7824   5.8648   5.8913   5.9266   5.9630   6.0191
  6.0693   6.1974   6.4630   6.5905   6.6503   7.1205   7.1633   7.2929
  7.3194   7.3404   7.3803   7.4297   7.5014   7.6627   7.6900   7.7931
  7.8515  24.2513  24.6264  24.6969  24.8184  24.8756  25.1001  25.4035
 50.6026  50.6703
 --------------------------------------------------------------
 
          Ground-State Mulliken Net Atomic Charges

     Atom                 Charge (a.u.)    Spin (a.u.)
  --------------------------------------------------------
      1 C                    -0.144489       0.383822
      2 C                    -0.392623      -0.156000
      3 C                    -0.459096       0.529335
      4 C                    -0.312074      -0.153080
      5 C                    -0.171630       0.376988
      6 C                     0.200870      -0.023631
      7 C                    -0.498757       0.026675
      8 H                     0.278206      -0.008183
      9 H                     0.293486       0.004640
     10 H                     0.283936      -0.009277
     11 H                     0.294399       0.004732
     12 H                     0.297415      -0.007705
     13 H                     0.224590       0.002897
     14 O                    -0.422149       0.006541
     15 H                     0.240773       0.002036
     16 H                     0.334569      -0.000403
     17 O                    -0.399769       0.018773
     18 H                     0.352343       0.001840
  --------------------------------------------------------
  Sum of atomic charges =     0.000000
  Sum of spin   charges =     1.000000

 -----------------------------------------------------------------
                    Cartesian Multipole Moments
 -----------------------------------------------------------------
    Charge (ESU x 10^10)
                 0.0000
    Dipole Moment (Debye)
         X       2.4063      Y      -2.8218      Z      -0.9287
       Tot       3.8230
    Quadrupole Moments (Debye-Ang)
        XX     -53.8994     XY       6.7387     YY     -55.9496
        XZ       6.3217     YZ      -1.0747     ZZ     -57.6292
    Octopole Moments (Debye-Ang^2)
       XXX     201.1796    XXY     -14.0732    XYY      65.4019
       YYY     -16.9985    XXZ     -21.3096    XYZ       8.7520
       YYZ      10.5195    XZZ      73.0609    YZZ      -6.2200
       ZZZ     -19.9768
    Hexadecapole Moments (Debye-Ang^3)
      XXXX    -871.0832   XXXY     -33.2539   XXYY    -266.8595
      XYYY     -59.3273   YYYY    -714.0071   XXXZ      80.5207
      XXYZ      22.9287   XYYZ      18.8873   YYYZ     129.5242
      XXZZ    -222.5409   XYZZ     -38.6758   YYZZ    -193.0003
      XZZZ      59.3922   YZZZ     132.1683   ZZZZ    -373.5680
 -----------------------------------------------------------------
 Calculating analytic gradient of the SCF energy
 Gradient of CDS energy
            1           2           3           4           5           6
    1   0.0001320   0.0004003  -0.0000484  -0.0004297  -0.0002270   0.0000068
    2   0.0002202  -0.0001078  -0.0005540  -0.0001489   0.0001992   0.0002166
    3   0.0001687   0.0002371   0.0001597  -0.0001443   0.0000107  -0.0000184
            7           8           9          10          11          12
    1   0.0001699   0.0000643   0.0001507  -0.0000198  -0.0001753  -0.0000927
    2   0.0001554   0.0000661  -0.0000917  -0.0001904  -0.0001067   0.0001745
    3  -0.0010089   0.0000053   0.0001117   0.0000615  -0.0000382  -0.0001141
           13          14          15          16          17          18
    1   0.0000406  -0.0002317  -0.0002177   0.0004819  -0.0000434   0.0000392
    2  -0.0002198  -0.0001013   0.0001388   0.0001606  -0.0002730   0.0004623
    3   0.0001953   0.0001995   0.0001700  -0.0000707  -0.0001176   0.0001926
 Gradient of SCF Energy
            1           2           3           4           5           6
    1  -0.0095551  -0.0039572  -0.0007836   0.0045055   0.0042285  -0.0033849
    2  -0.0032498  -0.0013772   0.0078068   0.0023304  -0.0022716   0.0020932
    3  -0.0038376  -0.0012398  -0.0015266   0.0001980   0.0018643  -0.0004840
            7           8           9          10          11          12
    1   0.0022925   0.0094474   0.0051853  -0.0005149  -0.0039504  -0.0013271
    2   0.0040967   0.0052319  -0.0031498  -0.0060753  -0.0029717   0.0003030
    3   0.0077051   0.0007754   0.0033376   0.0018458  -0.0010291  -0.0021933
           13          14          15          16          17          18
    1   0.0033596  -0.0133221  -0.0031592   0.0124406  -0.0075053   0.0060003
    2  -0.0055280   0.0102358  -0.0002251  -0.0086567   0.0000243   0.0013831
    3  -0.0031652  -0.0097808  -0.0022941   0.0068398   0.0036157  -0.0006312
 Max gradient component =       1.332E-02
 RMS gradient           =       5.122E-03
 Computing fast CPCM-SWIG gradient
 Updating gradient with PCM contributions...
 -- total gradient after adding PCM contribution --
---------------------------------------------------
  Atom         X              Y              Z     
---------------------------------------------------
   1      -0.000988      -0.000285      -0.000262
   2       0.000196       0.000092       0.000000
   3       0.000007       0.000080      -0.000011
   4      -0.000001       0.000032       0.000002
   5       0.000004      -0.000051       0.000036
   6       0.000330       0.000003       0.000111
   7       0.000040       0.000083       0.000035
   8       0.000471       0.000227       0.000111
   9      -0.000013      -0.000058       0.000014
  10      -0.000004       0.000007       0.000011
  11      -0.000016       0.000007       0.000013
  12       0.000004       0.000023       0.000013
  13      -0.000018      -0.000035      -0.000020
  14      -0.000080      -0.000064      -0.000068
  15      -0.000006       0.000015      -0.000006
  16       0.000021      -0.000022       0.000020
  17       0.000020      -0.000070       0.000006
  18       0.000032       0.000018      -0.000005
---------------------------------------------------
 Number of fixed atoms: 0
 Gradient time:  CPU 324.34 s  wall 46.82 s
 ----------------------------------------------------------------
             Standard Nuclear Orientation (Angstroms)
    I     Atom           X                Y                Z
 ----------------------------------------------------------------
    1      C      -0.3078310227    -0.1634196543     0.8268813898
    2      C      -0.4614953476    -1.4475241448     1.2368322324
    3      C      -1.6342088633    -2.1764041516     0.9313925925
    4      C      -2.6831758041    -1.5459870036     0.2222149615
    5      C      -2.5761197590    -0.2619514340    -0.1983901968
    6      C      -1.3411895213     0.5530839377     0.0102954824
    7      C      -0.7705979294     0.9417319298    -1.3678783904
    8      H       0.5877298026     0.3929082172     1.0755982680
    9      H       0.3194227059    -1.9229921808     1.8159840550
   10      H      -1.7405915389    -3.1993800117     1.2616018488
   11      H      -3.5920840748    -2.0992055524     0.0243966821
   12      H      -3.3853628211     0.2227058277    -0.7303132190
   13      H      -0.4141564047     0.0502950539    -1.8856057985
   14      O       0.2602172607     1.9156834194    -1.2505439927
   15      H      -1.5657596448     1.4003337908    -1.9543855575
   16      H       1.0629493795     1.4816124218    -0.9419391430
   17      O      -1.7283520013     1.7771363819     0.6750258395
   18      H      -1.0042368153     2.4033961530     0.5360118459
 ----------------------------------------------------------------
 Nuclear Repulsion Energy =         447.24993154 hartrees
 There are       34 alpha and       33 beta electrons
 Discretize the solute cavity surface with Lebedev spheres
	Using 110 Lebedev grid points for each H atom
	Using 194 Lebedev grid points for other atoms
	Atomic van der Waals radii will be scaled by 1.20
 Remove points where switching function is < 1.0e-08
 Keep 1306 surface tesserae and discard 1430 interior tesserae
 Molecular Surface Area = 151.691 Angst**2
 Requested basis set is 6-311++G(2df,2p)
 There are 126 shells and 396 basis functions
 A cutoff of  1.0D-12 yielded   7366 shell pairs
 There are     73534 function pairs (     91283 Cartesian)
 Smallest overlap matrix eigenvalue = 7.47E-07
 Linear dependence detected in AO basis
 Tighter screening thresholds may be required for diffuse basis sets
 Use S2THRESH > 14 and THRESH = 14 in case of SCF convergence issues
 Number of orthogonalized atomic orbitals = 395
 Maximum deviation from orthogonality = 2.319E-11
 Guess MOs from SCF MO coefficient file

 -----------------------------------------------------------------------
  General SCF calculation program by
  Eric Jon Sundstrom, Paul Horn, Yuezhi Mao, Dmitri Zuev, Alec White,
  David Stuck, Shaama M.S., Shane Yost, Joonho Lee, David Small,
  Daniel Levine, Susi Lehtola, Hugh Burton, Evgeny Epifanovsky,
  Bang C. Huynh
 -----------------------------------------------------------------------
 Exchange:     0.1500 Hartree-Fock + 1.0000 wB97M-V + LR-HF
 Correlation:  1.0000 wB97M-V
 Using SG-2 standard quadrature grid
 Nonlocal Correlation:  VV10 with C = 0.0100 and b = 6.00 and scale = 1.00000
 Grid used for NLC:  SG-1 standard quadrature
 
 Citation of the SMD model:
 Marenich, A.V.; Cramer, C.J.; Truhlar, D.G.
 J. Phys. Chem. B 2009, 113, 6378-6396.
 iSolventCode=           1
 Solvent: water                                                           
 
 vradii
            1           2           3           4           5           6
    1   1.8500000   1.8500000   1.8500000   1.8500000   1.8500000   1.8500000
            7           8           9          10          11          12
    1   1.8500000   1.2000000   1.2000000   1.2000000   1.2000000   1.2000000
           13          14          15          16          17          18
    1   1.2000000   1.5200000   1.2000000   1.2000000   1.5200000   1.2000000
 -------------------------------------------------------
 OpenMP BLAS3 based DFT computing Module                
 Release: version 1.0, May 2013, Q-Chem Inc. Pittsburgh 
 -------------------------------------------------------
 A unrestricted SCF calculation will be
 performed using Roothaan-Hall, DIIS, GDM
 SCF converges when RMS gradient is below 1.0e-07
 ---------------------------------------
  Cycle       Energy         DIIS error
 ---------------------------------------
    1    -422.5095338583      1.90e-04  Roothaan Step
 ---------------------------------------
  Cycle       Energy         DIIS error
 ---------------------------------------
    1    -422.5313242249      2.14e-04  
    2    -422.5351751647      1.62e-04  Done DIIS. Switching to GDM
 ---------------------------------------
  Cycle       Energy        RMS Gradient
 ---------------------------------------
    1    -422.5351751647      4.73e-03   Normal BFGS step
    2    -422.5353421634      6.19e-03   Normal BFGS step
    3    -422.5366789011      8.28e-04   Normal BFGS step
    4    -422.5366939807      3.80e-04   Normal BFGS step
    5    -422.5367006160      2.65e-04   Normal BFGS step
    6    -422.5367009544      1.01e-04   Normal BFGS step
    7    -422.5367010489      8.76e-05   Normal BFGS step
    8    -422.5367010712      5.17e-05   Normal BFGS step
    9    -422.5367010773      1.33e-05   Normal BFGS step
   10    -422.5367010788      1.12e-05   Normal BFGS step
   11    -422.5367010794      7.65e-06   Normal BFGS step
   12    -422.5367010797      3.21e-06   Normal BFGS step
   13    -422.5367010797      1.04e-06   Normal BFGS step
   14    -422.5367010797      4.45e-07   Normal BFGS step
   15    -422.5367010797      1.89e-07   Normal BFGS step
   16    -422.5367010797      1.02e-07   Normal BFGS step
   17    -422.5367010797      5.93e-08  Convergence criterion met
 ---------------------------------------
 SCF time:   CPU 2013.04s  wall 256.00s 
<S^2> =          0.788857536
(3)  G-ENP(liq) elect-nuc-pol free energy of system     -422.536701080 a.u.
(4)  G-CDS(liq) cavity-dispersion-solvent structure 
     free energy                                                3.5129 kcal/mol
(6)  G-S(liq) free energy of system                     -422.531102896 a.u.
 SCF   energy in the final basis set =     -422.5311028955
 Total energy in the final basis set =     -422.5311028955
 
 --------------------------------------------------------------
 
                    Orbital Energies (a.u.)
 --------------------------------------------------------------
 
 Alpha MOs
 -- Occupied --
-19.3436 -19.3374 -10.4068 -10.3873 -10.3521 -10.3479 -10.3476 -10.3439
-10.3430  -1.1731  -1.1461  -0.9771  -0.8834  -0.8765  -0.7987  -0.7230
 -0.7210  -0.6372  -0.6308  -0.6067  -0.5844  -0.5776  -0.5290  -0.5283
 -0.5240  -0.4845  -0.4682  -0.4635  -0.4420  -0.4382  -0.4104  -0.3869
 -0.3626  -0.2704
 -- Virtual --
  0.0253   0.0349   0.0371   0.0481   0.0543   0.0561   0.0638   0.0730
  0.0791   0.0872   0.1036   0.1133   0.1229   0.1298   0.1416   0.1427
  0.1470   0.1523   0.1548   0.1607   0.1620   0.1648   0.1708   0.1764
  0.1796   0.1877   0.1947   0.2051   0.2062   0.2160   0.2164   0.2195
  0.2204   0.2291   0.2491   0.2522   0.2548   0.2723   0.2770   0.2822
  0.2972   0.3049   0.3118   0.3233   0.3293   0.3356   0.3365   0.3412
  0.3520   0.3590   0.3644   0.3802   0.3871   0.3943   0.3965   0.4138
  0.4206   0.4289   0.4421   0.4623   0.4630   0.4825   0.5258   0.5376
  0.5520   0.5677   0.5878   0.5906   0.5970   0.6017   0.6052   0.6136
  0.6274   0.6317   0.6342   0.6516   0.6560   0.6735   0.6880   0.6967
  0.6977   0.7060   0.7208   0.7232   0.7272   0.7376   0.7417   0.7512
  0.7618   0.7673   0.7810   0.7900   0.8003   0.8224   0.8324   0.8382
  0.8487   0.8575   0.8628   0.8716   0.8854   0.9028   0.9035   0.9189
  0.9619   1.0061   1.0126   1.0282   1.0326   1.0529   1.0760   1.1051
  1.1085   1.1193   1.1265   1.1460   1.1511   1.1598   1.1828   1.1961
  1.2106   1.2195   1.2316   1.2379   1.2622   1.2696   1.2894   1.2964
  1.2988   1.3203   1.3522   1.3695   1.3718   1.3813   1.3949   1.4028
  1.4163   1.4208   1.4276   1.4415   1.4527   1.4765   1.4886   1.4911
  1.5074   1.5133   1.5349   1.5415   1.5540   1.5616   1.5803   1.5837
  1.6036   1.6194   1.6321   1.6699   1.6893   1.7189   1.7222   1.7637
  1.7788   1.8029   1.8274   1.8537   1.8671   1.9083   1.9636   1.9914
  2.0011   2.0565   2.0915   2.0966   2.1092   2.1391   2.2094   2.2558
  2.3225   2.3809   2.4248   2.4423   2.4676   2.5769   2.5942   2.6336
  2.6483   2.6649   2.6901   2.7396   2.7632   2.7802   2.8022   2.8059
  2.8183   2.8293   2.8428   2.8548   2.8693   2.8857   2.8865   2.9067
  2.9213   2.9355   2.9439   2.9603   2.9819   2.9902   2.9988   3.0298
  3.0508   3.0783   3.0875   3.1306   3.1583   3.1873   3.1895   3.2062
  3.2109   3.2328   3.2347   3.2619   3.2728   3.2776   3.2968   3.3146
  3.3219   3.3367   3.3645   3.3857   3.4134   3.4351   3.4418   3.4540
  3.4786   3.4794   3.4905   3.4945   3.5008   3.5215   3.5447   3.5563
  3.5891   3.5962   3.6441   3.6581   3.6677   3.6715   3.7086   3.7264
  3.7343   3.7512   3.7897   3.8013   3.8166   3.8449   3.8530   3.8557
  3.8735   3.8803   3.8992   3.9240   3.9259   3.9447   3.9679   3.9875
  3.9997   4.0087   4.0269   4.0612   4.0831   4.1094   4.1309   4.1618
  4.1677   4.1828   4.1994   4.2129   4.2245   4.2547   4.2571   4.2729
  4.3194   4.3375   4.3431   4.3673   4.3936   4.4249   4.4449   4.4651
  4.4797   4.4880   4.4951   4.5089   4.5339   4.5424   4.5919   4.6317
  4.6535   4.6576   4.6653   4.7045   4.7226   4.7297   4.7886   4.8211
  4.9013   4.9928   5.0488   5.1304   5.1553   5.1598   5.2172   5.2459
  5.2775   5.3157   5.3172   5.3651   5.3897   5.3982   5.4617   5.4843
  5.4963   5.5705   5.5838   5.6019   5.6420   5.6784   5.6970   5.7249
  5.7714   5.7799   5.8473   5.8782   5.9222   5.9554   6.0155   6.0675
  6.1841   6.4520   6.5869   6.6489   7.1196   7.1610   7.2908   7.3189
  7.3389   7.3785   7.4263   7.4984   7.6617   7.6866   7.7921   7.8473
 24.2500  24.6252  24.6959  24.8151  24.8723  25.0968  25.3999  50.6021
 50.6694
 
 Beta MOs
 -- Occupied --
-19.3434 -19.3361 -10.4075 -10.3861 -10.3465 -10.3456 -10.3444 -10.3425
-10.3422  -1.1715  -1.1442  -0.9704  -0.8770  -0.8709  -0.7901  -0.7181
 -0.7152  -0.6336  -0.6275  -0.6044  -0.5784  -0.5741  -0.5264  -0.5255
 -0.5210  -0.4784  -0.4636  -0.4519  -0.4359  -0.4276  -0.4047  -0.3790
 -0.3468
 -- Virtual --
 -0.0234   0.0250   0.0346   0.0368   0.0482   0.0543   0.0559   0.0711
  0.0761   0.0838   0.0876   0.1032   0.1132   0.1221   0.1322   0.1423
  0.1440   0.1462   0.1541   0.1558   0.1607   0.1621   0.1661   0.1708
  0.1767   0.1795   0.1890   0.1984   0.2047   0.2073   0.2161   0.2162
  0.2200   0.2268   0.2300   0.2488   0.2525   0.2538   0.2725   0.2775
  0.2825   0.2982   0.3078   0.3147   0.3247   0.3322   0.3383   0.3406
  0.3422   0.3539   0.3600   0.3664   0.3813   0.3876   0.3954   0.3992
  0.4158   0.4228   0.4303   0.4431   0.4634   0.4653   0.4834   0.5272
  0.5396   0.5548   0.5734   0.5911   0.5945   0.5995   0.6067   0.6094
  0.6174   0.6297   0.6329   0.6385   0.6546   0.6600   0.6769   0.6913
  0.7000   0.7014   0.7097   0.7242   0.7277   0.7296   0.7401   0.7478
  0.7560   0.7633   0.7700   0.7839   0.7946   0.8028   0.8256   0.8361
  0.8374   0.8536   0.8619   0.8668   0.8748   0.8902   0.9069   0.9073
  0.9202   0.9637   1.0083   1.0143   1.0304   1.0347   1.0534   1.0781
  1.1062   1.1102   1.1203   1.1275   1.1479   1.1531   1.1624   1.1860
  1.1996   1.2116   1.2194   1.2327   1.2389   1.2641   1.2712   1.2919
  1.2975   1.3007   1.3232   1.3545   1.3712   1.3768   1.3848   1.3975
  1.4075   1.4190   1.4255   1.4322   1.4447   1.4566   1.4793   1.4903
  1.4964   1.5100   1.5151   1.5390   1.5456   1.5568   1.5679   1.5845
  1.5872   1.6057   1.6214   1.6342   1.6729   1.6912   1.7231   1.7262
  1.7675   1.7837   1.8072   1.8358   1.8591   1.8704   1.9125   1.9678
  1.9948   2.0045   2.0639   2.0951   2.1011   2.1115   2.1423   2.2111
  2.2592   2.3245   2.3822   2.4265   2.4434   2.4695   2.5852   2.6008
  2.6462   2.6561   2.6698   2.6995   2.7489   2.7674   2.7936   2.8117
  2.8191   2.8280   2.8357   2.8495   2.8637   2.8803   2.8975   2.8999
  2.9163   2.9364   2.9541   2.9610   2.9698   2.9986   2.9996   3.0146
  3.0509   3.0646   3.0918   3.1050   3.1390   3.1665   3.1951   3.1987
  3.2129   3.2181   3.2414   3.2426   3.2726   3.2819   3.2869   3.3008
  3.3193   3.3323   3.3476   3.3808   3.3959   3.4223   3.4419   3.4515
[...]
 C         -0.013  0.023  0.063    0.027  0.017 -0.053    0.068 -0.048 -0.002
 C          0.010 -0.002 -0.024   -0.170 -0.181  0.194   -0.134  0.263  0.169
 C         -0.014  0.010  0.012   -0.114 -0.124 -0.131    0.067 -0.086 -0.096
 H          0.119 -0.077 -0.290    0.021  0.263 -0.066   -0.020  0.036 -0.008
 H         -0.153  0.218  0.453   -0.115  0.079  0.090   -0.021 -0.046  0.153
 H          0.086 -0.090 -0.189   -0.113 -0.158 -0.087   -0.184  0.020 -0.151
 H         -0.299  0.246  0.492   -0.054  0.340  0.031   -0.106  0.073  0.106
 H          0.167 -0.094 -0.320    0.035  0.101  0.028   -0.104 -0.256  0.067
 H          0.011 -0.007  0.058    0.044 -0.004 -0.216   -0.344 -0.125 -0.307
 O          0.003  0.000 -0.000    0.128  0.120  0.008   -0.020 -0.004  0.020
 H         -0.001 -0.024 -0.030   -0.066 -0.046 -0.127    0.165  0.363  0.108
 H         -0.012 -0.020  0.009    0.021 -0.065  0.046    0.230  0.420 -0.046
 O          0.001 -0.000  0.000   -0.043  0.035  0.031    0.037 -0.104 -0.050
 H         -0.010  0.013  0.009    0.323 -0.444 -0.311   -0.033 -0.007  0.031
 TransDip  -0.023 -0.016  0.016   -0.145 -0.276 -0.026   -0.017  0.474  0.102

 Mode:                25                     26                     27
 Frequency:      1077.78                1089.70                1117.93
 Force Cnst:      1.9265                 1.7549                 1.0141
 Red. Mass:       2.8148                 2.5083                 1.3773
 IR Active:          YES                    YES                    YES
 IR Intens:       63.571                 88.975                  9.288
 Raman Active:       YES                    YES                    YES
               X      Y      Z        X      Y      Z        X      Y      Z
 C          0.080  0.061  0.020   -0.010 -0.037 -0.026    0.027  0.028  0.017
 C          0.043  0.010  0.018   -0.082 -0.001 -0.041   -0.031 -0.058  0.004
 C         -0.115 -0.027 -0.044    0.119 -0.011  0.060    0.069  0.009  0.031
 C          0.083  0.020  0.028   -0.047  0.014 -0.032   -0.035  0.048 -0.032
 C          0.040 -0.026  0.046   -0.023  0.041 -0.043    0.031 -0.026  0.030
 C         -0.095 -0.091 -0.041   -0.048 -0.011  0.195   -0.046  0.002 -0.099
 C          0.151  0.184  0.046    0.126  0.135 -0.071   -0.016 -0.025  0.036
 H         -0.044  0.356 -0.161    0.041 -0.199  0.132   -0.022  0.155 -0.084
 H         -0.041 -0.146  0.015   -0.126  0.037  0.040   -0.255 -0.426  0.008
 H         -0.492 -0.042 -0.211    0.627 -0.002  0.251    0.457  0.029  0.216
 H          0.024  0.155 -0.044   -0.088  0.032  0.078   -0.185  0.384 -0.275
 H         -0.098 -0.279  0.041    0.165  0.327 -0.077   -0.089 -0.208  0.049
 H          0.177  0.154  0.101    0.236  0.170 -0.066   -0.160 -0.090  0.049
 O         -0.117 -0.131 -0.035   -0.084 -0.084 -0.018    0.007  0.003  0.002
 H          0.221  0.142 -0.093    0.116  0.076 -0.112    0.081  0.094 -0.004
 H         -0.006  0.098 -0.027   -0.094 -0.096 -0.019    0.121  0.205 -0.014
 O         -0.016  0.020  0.016   -0.004 -0.026 -0.021   -0.005  0.009  0.014
 H          0.172 -0.230 -0.176    0.092 -0.150 -0.105    0.059 -0.078 -0.057
 TransDip   0.214  0.086 -0.110    0.187  0.232  0.049    0.039 -0.055 -0.071

 Mode:                28                     29                     30
 Frequency:      1179.43                1183.99                1269.06
 Force Cnst:      0.9215                 0.9434                 1.4609
 Red. Mass:       1.1243                 1.1422                 1.5396
 IR Active:          YES                    YES                    YES
 IR Intens:       52.124                 19.489                 29.113
 Raman Active:       YES                    YES                    YES
               X      Y      Z        X      Y      Z        X      Y      Z
 C          0.010 -0.002  0.019    0.001  0.054 -0.021    0.017  0.024 -0.004
 C         -0.007  0.004 -0.004   -0.015 -0.048  0.009    0.027 -0.006  0.016
 C          0.001 -0.008  0.005   -0.005 -0.030  0.009   -0.003 -0.007  0.001
 C          0.000 -0.033  0.009    0.011 -0.031  0.016   -0.014 -0.033  0.005
 C          0.016  0.038  0.004   -0.005  0.034 -0.018    0.032  0.025  0.017
 C         -0.027 -0.013 -0.063    0.017  0.021  0.026   -0.093  0.110 -0.105
 C         -0.031  0.004  0.008   -0.002 -0.002 -0.007    0.057 -0.050  0.047
 H          0.066 -0.127  0.096   -0.192  0.514 -0.336    0.120 -0.191  0.143
 H          0.024  0.014 -0.037   -0.273 -0.428  0.051   -0.075 -0.174  0.026
 H         -0.029 -0.008 -0.002    0.002 -0.034  0.008   -0.019 -0.009 -0.001
 H          0.115 -0.273  0.145    0.127 -0.286  0.177    0.022 -0.109  0.040
 H          0.287  0.419 -0.066    0.162  0.288 -0.050    0.164  0.205 -0.029
 H         -0.288 -0.200  0.175    0.036  0.018 -0.016    0.181  0.174 -0.236
 O         -0.001 -0.014  0.007    0.003  0.004  0.003   -0.001  0.024 -0.015
 H          0.234  0.209 -0.194   -0.051 -0.045  0.027   -0.219 -0.135  0.351
 H          0.232  0.394 -0.038   -0.041 -0.063  0.021   -0.220 -0.373  0.017
 O         -0.019  0.008  0.013    0.018 -0.010 -0.014   -0.029 -0.010  0.029
 H          0.146 -0.209 -0.146   -0.118  0.170  0.127    0.242 -0.367 -0.265
 TransDip   0.198 -0.053 -0.106   -0.082  0.091  0.070   -0.029 -0.139 -0.099

 Mode:                31                     32                     33
 Frequency:      1320.60                1333.10                1371.06
 Force Cnst:      2.8134                 1.4483                 1.4251
 Red. Mass:       2.7381                 1.3832                 1.2867
 IR Active:          YES                    YES                    YES
 IR Intens:        0.672                 56.657                  6.539
 Raman Active:       YES                    YES                    YES
               X      Y      Z        X      Y      Z        X      Y      Z
 C          0.008 -0.152  0.065   -0.015 -0.002 -0.009    0.010 -0.002  0.008
 C          0.094  0.116  0.003   -0.013 -0.030  0.004   -0.022 -0.036  0.002
 C         -0.217 -0.011 -0.099   -0.006 -0.007  0.000    0.000 -0.002  0.001
 C          0.079 -0.104  0.073   -0.033  0.019 -0.022   -0.033  0.026 -0.025
 C          0.039  0.150 -0.039   -0.004  0.037 -0.003    0.025  0.020  0.003
 C         -0.044 -0.010 -0.024    0.132  0.036  0.032    0.033  0.047 -0.003
 C         -0.007 -0.006  0.005    0.039  0.025 -0.054   -0.099 -0.012  0.040
 H         -0.111  0.108 -0.101   -0.106  0.212 -0.149   -0.042  0.115 -0.063
 H          0.030  0.004 -0.002    0.060  0.090  0.004    0.095  0.138 -0.010
 H          0.798  0.035  0.367    0.090 -0.004  0.047    0.083  0.000  0.040
 H          0.020  0.014  0.016    0.086 -0.229  0.103    0.084 -0.219  0.115
 H         -0.127 -0.098 -0.018   -0.235 -0.318  0.018   -0.102 -0.167  0.026
 H          0.000  0.012 -0.021   -0.266 -0.279  0.248    0.494  0.435 -0.291
 O          0.001  0.004 -0.001   -0.004  0.011  0.013    0.021 -0.055 -0.002
 H          0.013  0.005 -0.011   -0.156 -0.070  0.144   -0.030 -0.112 -0.144
 H         -0.017 -0.025  0.002   -0.050 -0.079  0.015    0.253  0.398  0.005
 O         -0.001  0.001 -0.003   -0.052  0.000  0.019   -0.016 -0.004  0.008
 H         -0.042  0.056  0.038    0.285 -0.436 -0.315    0.089 -0.139 -0.103
 TransDip   0.013 -0.008  0.021    0.136 -0.135 -0.146    0.061  0.049 -0.025

 Mode:                34                     35                     36
 Frequency:      1395.81                1423.61                1457.00
 Force Cnst:      1.5450                 2.0392                 2.0927
 Red. Mass:       1.3460                 1.7078                 1.6732
 IR Active:          YES                    YES                    YES
 IR Intens:       37.045                 43.352                 33.278
 Raman Active:       YES                    YES                    YES
               X      Y      Z        X      Y      Z        X      Y      Z
 C          0.045 -0.012  0.031   -0.077  0.003 -0.040    0.047 -0.068  0.051
 C         -0.056 -0.057 -0.007    0.062  0.066  0.005   -0.081 -0.061 -0.018
 C          0.006  0.006  0.001    0.001 -0.006  0.003    0.008  0.070 -0.021
 C         -0.032  0.049 -0.032    0.030 -0.058  0.034    0.077 -0.067  0.059
 C          0.041 -0.003  0.018   -0.065  0.008 -0.025   -0.084 -0.070 -0.005
 C         -0.033 -0.003 -0.023    0.156  0.030  0.050    0.034  0.083 -0.018
 C          0.019 -0.060  0.068   -0.042 -0.050  0.057    0.013  0.011  0.011
 H         -0.040  0.193 -0.108   -0.034 -0.104  0.019   -0.138  0.365 -0.230
 H          0.187  0.312 -0.033   -0.215 -0.356  0.028    0.199  0.383 -0.047
 H          0.101  0.012  0.044   -0.140 -0.013 -0.060   -0.010  0.083 -0.033
 H          0.105 -0.229  0.130   -0.113  0.234 -0.150   -0.150  0.421 -0.228
 H         -0.026 -0.109  0.033   -0.054  0.031 -0.031    0.209  0.370 -0.064
 H         -0.098  0.025 -0.171    0.069  0.147 -0.208   -0.103  0.040 -0.124
 O         -0.025  0.046 -0.021   -0.017  0.013 -0.014    0.000 -0.006  0.004
 H          0.478  0.354 -0.222    0.463  0.297 -0.346   -0.066 -0.188 -0.051
 H         -0.264 -0.402 -0.014   -0.106 -0.154 -0.014    0.011  0.020  0.010
 O          0.007  0.002 -0.001   -0.032  0.001  0.009   -0.013 -0.003  0.006
 H         -0.033  0.053  0.040    0.151 -0.233 -0.170    0.083 -0.127 -0.091
 TransDip  -0.111 -0.156  0.036   -0.054 -0.194 -0.063    0.034  0.159 -0.087

 Mode:                37                     38                     39
 Frequency:      1470.40                1559.03                1621.61
 Force Cnst:      1.4023                 5.1403                 8.7084
 Red. Mass:       1.1008                 3.5895                 5.6208
 IR Active:          YES                    YES                    YES
 IR Intens:        4.851                  0.945                  1.291
 Raman Active:       YES                    YES                    YES
               X      Y      Z        X      Y      Z        X      Y      Z
 C          0.008 -0.008  0.009    0.048 -0.210  0.107    0.001  0.279 -0.107
 C         -0.014 -0.014 -0.001   -0.066  0.154 -0.092   -0.078 -0.289  0.072
 C         -0.000  0.012 -0.004    0.213  0.006  0.099    0.019  0.102 -0.030
 C          0.013 -0.013  0.011   -0.101 -0.141  0.006    0.011 -0.302  0.117
 C         -0.014 -0.010 -0.002    0.093  0.200 -0.034    0.072  0.307 -0.083
 C          0.010  0.013 -0.011   -0.062 -0.003 -0.032   -0.022 -0.102  0.032
 C         -0.040 -0.041 -0.056   -0.003 -0.002 -0.002   -0.009 -0.005  0.013
 H         -0.019  0.056 -0.036   -0.171  0.232 -0.183    0.229 -0.180  0.202
 H          0.039  0.065 -0.009   -0.220 -0.042 -0.100    0.280  0.235  0.054
 H          0.005  0.015 -0.003   -0.600 -0.031 -0.272   -0.012  0.108 -0.048
 H         -0.025  0.069 -0.038   -0.203  0.004 -0.087   -0.264  0.217 -0.188
 H          0.031  0.060 -0.010   -0.214 -0.237 -0.003   -0.305 -0.219 -0.037
 H          0.529 -0.074  0.428    0.013 -0.000  0.008   -0.026  0.001 -0.010
 O         -0.006 -0.004 -0.007    0.001  0.001 -0.000    0.003  0.005 -0.002
 H          0.015  0.590  0.389   -0.029 -0.004  0.030    0.047 -0.002 -0.052
 H         -0.009 -0.006 -0.009   -0.002 -0.001  0.005   -0.003 -0.008 -0.001
 O         -0.003  0.001  0.003   -0.002  0.001 -0.002    0.006 -0.011 -0.005
 H          0.008 -0.010 -0.004   -0.019  0.021  0.014   -0.036  0.043  0.032
 TransDip  -0.011  0.018  0.067   -0.030 -0.002 -0.009    0.016  0.026 -0.020

 Mode:                40                     41                     42
 Frequency:      3064.68                3123.85                3173.23
 Force Cnst:      5.8561                 6.3739                 6.4466
 Red. Mass:       1.0582                 1.1086                 1.0866
 IR Active:          YES                    YES                    YES
 IR Intens:       45.084                 36.665                  8.546
 Raman Active:       YES                    YES                    YES
               X      Y      Z        X      Y      Z        X      Y      Z
 C         -0.000 -0.000  0.000   -0.000 -0.000  0.000   -0.063 -0.040 -0.017
 C         -0.000  0.000 -0.000   -0.000 -0.000 -0.000    0.027 -0.014  0.019
 C          0.000  0.000 -0.000    0.000  0.000  0.000    0.001  0.004 -0.001
 C          0.000  0.000 -0.000   -0.000  0.000 -0.000   -0.002 -0.001 -0.001
 C          0.000 -0.001  0.000    0.001 -0.001  0.001   -0.001  0.001 -0.001
 C         -0.000 -0.000  0.000   -0.001  0.001 -0.000    0.001 -0.001  0.000
 C         -0.011 -0.033 -0.058   -0.066  0.068 -0.014   -0.000 -0.000  0.000
 H          0.003  0.002  0.000    0.004  0.003  0.001    0.739  0.458  0.206
 H          0.001 -0.000  0.001    0.001 -0.000  0.000   -0.317  0.190 -0.233
 H          0.000 -0.000  0.000    0.000  0.000 -0.000   -0.005 -0.052  0.017
 H         -0.000  0.000  0.000    0.001  0.001  0.000    0.019  0.011  0.004
 H         -0.003  0.003 -0.003   -0.012  0.008 -0.008    0.013 -0.009  0.009
 H         -0.281  0.661  0.379    0.193 -0.460 -0.277   -0.000  0.001  0.000
 O         -0.001 -0.001  0.000    0.001 -0.001  0.001    0.000 -0.000  0.000
 H          0.424 -0.253  0.302    0.591 -0.347  0.442   -0.003  0.003 -0.004
 H         -0.006  0.004 -0.001   -0.006  0.013 -0.008    0.000  0.002 -0.002
 O         -0.000  0.000  0.000    0.000 -0.000 -0.000   -0.000  0.000  0.000
 H         -0.001  0.001  0.002   -0.000 -0.000 -0.002   -0.000  0.002 -0.000
 TransDip  -0.082 -0.100 -0.172   -0.120  0.149 -0.032   -0.031 -0.087  0.013

 Mode:                43                     44                     45
 Frequency:      3181.72                3193.47                3197.67
 Force Cnst:      6.4771                 6.5689                 6.5949
 Red. Mass:       1.0859                 1.0932                 1.0947
 IR Active:          YES                    YES                    YES
 IR Intens:        6.830                 13.047                 29.253
 Raman Active:       YES                    YES                    YES
               X      Y      Z        X      Y      Z        X      Y      Z
 C         -0.002 -0.002 -0.001   -0.031 -0.023 -0.007   -0.004 -0.004 -0.001
 C         -0.004  0.002 -0.003   -0.052  0.035 -0.039   -0.014  0.008 -0.010
 C         -0.001 -0.009  0.003   -0.000 -0.023  0.008    0.005  0.017 -0.004
 C          0.045  0.026  0.010    0.003  0.003  0.000   -0.053 -0.035 -0.010
 C         -0.049  0.029 -0.032    0.011 -0.007  0.007   -0.039  0.027 -0.027
 C          0.000  0.001 -0.000    0.001 -0.001  0.000    0.001  0.001  0.000
 C         -0.001  0.001 -0.001    0.000 -0.000  0.000   -0.001  0.000 -0.000
 H          0.029  0.019  0.008    0.352  0.220  0.098    0.048  0.031  0.013
 H          0.041 -0.025  0.031    0.599 -0.367  0.445    0.153 -0.093  0.113
 H          0.012  0.112 -0.036    0.026  0.281 -0.092   -0.025 -0.211  0.066
 H         -0.528 -0.319 -0.116   -0.040 -0.025 -0.008    0.606  0.371  0.131
 H          0.571 -0.339  0.373   -0.126  0.074 -0.082    0.456 -0.273  0.299
 H          0.002 -0.004 -0.002   -0.000  0.001  0.000    0.001 -0.002 -0.001
 O         -0.000 -0.000  0.000    0.000  0.000  0.000   -0.000 -0.000  0.000
 H          0.009 -0.006  0.008   -0.004  0.003 -0.004    0.005 -0.004  0.005
 H         -0.000  0.001 -0.000    0.000  0.001 -0.001   -0.000  0.001 -0.000
 O         -0.000 -0.000 -0.000   -0.000  0.000  0.000   -0.000 -0.000 -0.000
 H          0.001 -0.000 -0.000    0.000  0.002 -0.000    0.000 -0.001 -0.000
 TransDip   0.001  0.079 -0.027   -0.103 -0.022 -0.048   -0.153  0.025 -0.077

 Mode:                46                     47                     48
 Frequency:      3219.90                3762.59                3827.34
 Force Cnst:      6.6866                 8.8884                 9.2049
 Red. Mass:       1.0946                 1.0656                 1.0665
 IR Active:          YES                    YES                    YES
 IR Intens:       17.901                154.424                111.193
 Raman Active:       YES                    YES                    YES
               X      Y      Z        X      Y      Z        X      Y      Z
 C          0.006  0.005  0.001    0.000  0.000  0.000   -0.000 -0.000  0.000
 C          0.018 -0.009  0.012   -0.000  0.000 -0.000    0.000  0.000  0.000
 C         -0.008 -0.077  0.025    0.000 -0.000  0.000    0.000 -0.000 -0.000
 C         -0.022 -0.012 -0.005   -0.000  0.000 -0.000    0.000  0.000  0.000
 C         -0.007  0.006 -0.005    0.000 -0.000  0.000   -0.000 -0.000 -0.000
 C          0.000  0.001 -0.000   -0.001 -0.001  0.000    0.000  0.000  0.000
 C         -0.000  0.000 -0.000    0.000  0.000  0.000   -0.001  0.002 -0.001
 H         -0.060 -0.039 -0.016   -0.001 -0.001 -0.000    0.002  0.002 -0.001
 H         -0.181  0.106 -0.133   -0.000  0.000 -0.001   -0.000  0.000 -0.000
 H          0.090  0.869 -0.281    0.000  0.000 -0.000    0.000  0.000 -0.000
 H          0.228  0.135  0.051    0.000  0.000 -0.000    0.000  0.000  0.000
 H          0.077 -0.047  0.051    0.000  0.000  0.000    0.000 -0.000  0.000
 H         -0.000  0.000  0.000   -0.002 -0.001  0.001    0.004  0.000 -0.001
 O         -0.000 -0.000  0.000   -0.001  0.001 -0.001   -0.053  0.027 -0.020
 H          0.001 -0.001  0.002    0.000 -0.000 -0.000    0.011 -0.005  0.006
 H         -0.000  0.000 -0.000    0.019 -0.010  0.007    0.837 -0.441  0.317
 O          0.000 -0.000 -0.000   -0.046 -0.041  0.008    0.001  0.001 -0.000
 H         -0.000 -0.001 -0.000    0.736  0.661 -0.129   -0.018 -0.014  0.004
 TransDip  -0.021 -0.127  0.042    0.269  0.285 -0.069    0.320 -0.072  0.083

 STANDARD THERMODYNAMIC QUANTITIES AT   298.15 K  AND     1.00 ATM

   This Molecule has  0 Imaginary Frequencies
   Zero point vibrational energy:       92.067 kcal/mol

   Atom    1 Element C  Has Mass   12.00000
   Atom    2 Element C  Has Mass   12.00000
   Atom    3 Element C  Has Mass   12.00000
   Atom    4 Element C  Has Mass   12.00000
   Atom    5 Element C  Has Mass   12.00000
   Atom    6 Element C  Has Mass   12.00000
   Atom    7 Element C  Has Mass   12.00000
   Atom    8 Element H  Has Mass    1.00783
   Atom    9 Element H  Has Mass    1.00783
   Atom   10 Element H  Has Mass    1.00783
   Atom   11 Element H  Has Mass    1.00783
   Atom   12 Element H  Has Mass    1.00783
   Atom   13 Element H  Has Mass    1.00783
   Atom   14 Element O  Has Mass   15.99491
   Atom   15 Element H  Has Mass    1.00783
   Atom   16 Element H  Has Mass    1.00783
   Atom   17 Element O  Has Mass   15.99491
   Atom   18 Element H  Has Mass    1.00783
   Molecular Mass:   125.060290 amu
   Principal axes and moments of inertia in amu*Bohr^2:
                             1           2           3
    Eigenvalues --      591.48520  1414.21136  1576.72199
          X               0.33826     0.92869    -0.15204
          Y               0.85331    -0.23458     0.46565
          Z              -0.39678     0.28725     0.87181
   Rotational Symmetry Number is   1
   The Molecule is an Asymmetric Top
   Translational Enthalpy:        0.889 kcal/mol
   Rotational Enthalpy:           0.889 kcal/mol
   Vibrational Enthalpy:         95.701 kcal/mol
   gas constant (RT):             0.592 kcal/mol
   Translational Entropy:        40.384  cal/mol.K
   Rotational Entropy:           28.668  cal/mol.K
   Vibrational Entropy:          20.972  cal/mol.K

   Total Enthalpy:               98.071 kcal/mol
   Total Entropy:                90.025  cal/mol.K
 Total job time:  31426.45s(wall), 243273.34s(cpu) 
 Thu Jan 26 11:51:38 2023

        *************************************************************
        *                                                           *
        *  Thank you very much for using Q-Chem.  Have a nice day.  *
        *                                                           *
        *************************************************************


