
Running Job 1 of 1 Q_in.in
qchem Q_in.in_347376.0 /scratch/ari.fischer/qChem1353051.hpc-mn1/qchem347376/ 0
/usr/local/qchem-5.4.1/exe/qcprog.exe_s Q_in.in_347376.0 /scratch/ari.fischer/qChem1353051.hpc-mn1/qchem347376/
                  Welcome to Q-Chem
     A Quantum Leap Into The Future Of Chemistry


 Q-Chem 5.4, Q-Chem, Inc., Pleasanton, CA (2021)

 License issued to: Nanyang Technological University (site)

 E. Epifanovsky,  A. T. B. Gilbert,  Xintian Feng,  Joonho Lee,  Yuezhi Mao,  
 N. Mardirossian,  P. Pokhilko,  A. White,  M. Wormit,  M. P. Coons,  
 A. L. Dempwolff,  Zhengting Gan,  D. Hait,  P. R. Horn,  L. D. Jacobson,  
 I. Kaliman,  J. Kussmann,  A. W. Lange,  Ka Un Lao,  D. S. Levine,  Jie Liu,  
 S. C. McKenzie,  A. F. Morrison,  K. Nanda,  F. Plasser,  D. R. Rehn,  
 M. L. Vidal,  Zhi-Qiang You,  Ying Zhu,  B. Alam,  B. Albrecht,  
 A. Aldossary,  E. Alguire,  J. H. Andersen,  D. Barton,  K. Begam,  A. Behn,  
 Y. A. Bernard,  E. J. Berquist,  H. Burton,  A. Carreras,  K. Carter-Fenk,  
 R. Chakraborty,  A. D. Chien,  K. D. Closser,  V. Cofer-Shabica,  
 S. Dasgupta,  Jia Deng,  M. de Wergifosse,  M. Diedenhofen,  Hainam Do,  
 S. Ehlert,  Po-Tung Fang,  S. Fatehi,  Qingguo Feng,  T. Friedhoff,  
 J. Gayvert,  Qinghui Ge,  G. Gidofalvi,  M. Goldey,  J. Gomes,  
 C. Gonzalez-Espinoza,  S. Gulania,  A. Gunina,  M. W. D. Hanson-Heine,  
 P. H. P. Harbach,  A. W. Hauser,  M. F. Herbst,  M. Hernandez Vera,  
 M. Hodecker,  Z. C. Holden,  S. Houck,  Xunkun Huang,  Kerwin Hui,  
 B. C. Huynh,  M. Ivanov,  Hyunjun Ji,  Hanjie Jiang,  B. Kaduk,  S. Kaehler,  
 K. Khistyaev,  Jaehoon Kim,  P. Klunzinger,  Z. Koczor-Benda,  
 Joong Hoon Koh,  D. Kosenkov,  L. Koulias,  T. Kowalczyk,  C. M. Krauter,  
 K. Kue,  A. Kunitsa,  T. Kus,  A. Landau,  K. V. Lawler,  D. Lefrancois,  
 S. Lehtola,  Rain Li,  Yi-Pei Li,  Jiashu Liang,  M. Liebenthal,  
 Hung-Hsuan Lin,  You-Sheng Lin,  Fenglai Liu,  Kuan-Yu Liu,  
 M. Loipersberger,  A. Luenser,  A. Manjanath,  P. Manohar,  E. Mansoor,  
 S. F. Manzer,  Shan-Ping Mao,  A. V. Marenich,  T. Markovich,  S. Mason,  
 S. A. Maurer,  P. F. McLaughlin,  M. F. S. J. Menger,  J.-M. Mewes,  
 S. A. Mewes,  P. Morgante,  J. W. Mullinax,  K. J. Oosterbaan,  G. Paran,  
 Alexander C. Paul,  Suranjan K. Paul,  F. Pavosevic,  Zheng Pei,  S. Prager,  
 E. I. Proynov,  E. Ramos,  B. Rana,  A. E. Rask,  A. Rettig,  R. M. Richard,  
 F. Rob,  E. Rossomme,  T. Scheele,  M. Scheurer,  M. Schneider,  
 N. Sergueev,  S. M. Sharada,  W. Skomorowski,  D. W. Small,  C. J. Stein,  
 Yu-Chuan Su,  E. J. Sundstrom,  Zhen Tao,  J. Thirman,  T. Tsuchimochi,  
 N. M. Tubman,  S. P. Veccham,  O. Vydrov,  J. Wenzel,  J. Witte,  A. Yamada,  
 Kun Yao,  S. Yeganeh,  S. R. Yost,  A. Zech,  Igor Ying Zhang,  Xing Zhang,  
 Yu Zhang,  D. Zuev,  A. Aspuru-Guzik,  A. T. Bell,  N. A. Besley,  
 K. B. Bravaya,  B. R. Brooks,  D. Casanova,  Jeng-Da Chai,  S. Coriani,  
 C. J. Cramer,  A. E. DePrince, III,  R. A. DiStasio Jr.,  A. Dreuw,  
 B. D. Dunietz,  T. R. Furlani,  W. A. Goddard III,  S. Grimme,  
 S. Hammes-Schiffer,  T. Head-Gordon,  W. J. Hehre,  Chao-Ping Hsu,  
 T.-C. Jagau,  Yousung Jung,  A. Klamt,  Jing Kong,  D. S. Lambrecht,  
 WanZhen Liang,  N. J. Mayhall,  C. W. McCurdy,  J. B. Neaton,  
 C. Ochsenfeld,  J. A. Parkhill,  R. Peverati,  V. A. Rassolov,  Yihan Shao,  
 L. V. Slipchenko,  T. Stauch,  R. P. Steele,  J. E. Subotnik,  
 A. J. W. Thom,  A. Tkatchenko,  D. G. Truhlar,  T. Van Voorhis,  
 T. A. Wesolowski,  K. B. Whaley,  H. L. Woodcock III,  P. M. Zimmerman,  
 S. Faraji,  P. M. W. Gill,  M. Head-Gordon,  J. M. Herbert,  A. I. Krylov

 Additional authors for Version 5.4.1: 
 S. Kotaru,  Shaozhi Li,  Xiangyuan Li,  F. Matz,  A. Molle,  Haisheng Ren,  
 Yingli Su,  Hung-Yi Tsai,  C. Utku,  Fang Wang

 Contributors to earlier versions of Q-Chem not listed above: 
 R. D. Adamson,  B. Austin,  R. Baer,  J. Baker,  G. J. O. Beran,  
 K. Brandhorst,  S. T. Brown,  E. F. C. Byrd,  A. K. Chakraborty,  
 G. K. L. Chan,  Chun-Min Chang,  Yunqing Chen,  C.-L. Cheng,  
 Siu Hung Chien,  D. M. Chipman,  D. L. Crittenden,  H. Dachsel,  
 R. J. Doerksen,  A. D. Dutoi,  R. G. Edgar,  J. Fosso-Tande,  
 L. Fusti-Molnar,  D. Ghosh,  A. Ghysels,  A. Golubeva-Zadorozhnaya,  
 J. Gonthier,  M. S. Gordon,  S. R. Gwaltney,  G. Hawkins,  J. E. Herr,  
 A. Heyden,  S. Hirata,  E. G. Hohenstein,  G. Kedziora,  F. J. Keil,  
 C. Kelley,  Jihan Kim,  R. A. King,  R. Z. Khaliullin,  P. P. Korambath,  
 W. Kurlancheek,  A. Laurent,  A. M. Lee,  M. S. Lee,  S. V. Levchenko,  
 Ching Yeh Lin,  D. Liotard,  E. Livshits,  R. C. Lochan,  I. Lotan,  
 L. A. Martinez-Martinez,  P. E. Maslen,  N. Nair,  D. P. O'Neill,  
 D. Neuhauser,  E. Neuscamman,  C. M. Oana,  R. Olivares-Amaya,  R. Olson,  
 T. M. Perrine,  B. Peters,  P. A. Pieniazek,  A. Prociuk,  Y. M. Rhee,  
 J. Ritchie,  M. A. Rohrdanz,  E. Rosta,  N. J. Russ,  H. F. Schaefer III,  
 M. W. Schmidt,  N. E. Schultz,  S. Sharma,  N. Shenvi,  C. D. Sherrill,  
 A. C. Simmonett,  A. Sodt,  T. Stein,  D. Stuck,  K. S. Thanthiriwatte,  
 V. Vanovschi,  L. Vogt,  Tao Wang,  A. Warshel,  M. A. Watson,  
 C. F. Williams,  Q. Wu,  X. Xu,  Jun Yang,  W. Zhang,  Yan Zhao

 Please cite Q-Chem as follows:
 Y. Shao et al., Mol. Phys. 113, 184-215 (2015)
 DOI: 10.1080/00268976.2014.952696

 Q-Chem 5.4.1 for Intel X86 EM64T Linux

 Parts of Q-Chem use Armadillo 9.800.1 (Horizon Scraper).
 http://arma.sourceforge.net/

 Q-Chem begins on Wed Dec 14 19:17:42 2022  

 Host: 
0

     Scratch files written to /scratch/ari.fischer/qChem1353051.hpc-mn1/qchem347376//
 Aug1521 |scratch|qcdevops|jenkins|workspace|build_RNUM 8249   
 Processing $rem in /usr/local/qchem-5.4.1/config/preferences:
 Processing $rem in /home/ari.fischer/.qchemrc:
 Symmetry turned off for PCM/SM12/SMD calculation

 Checking the input file for inconsistencies... 	...done.

--------------------------------------------------------------
User input:
--------------------------------------------------------------
$molecule
0 2
C        -0.3007674927   -0.1802444109    0.8231948056
C        -0.4596137950   -1.4681811946    1.2359244491
C        -1.6434300797   -2.1911855966    0.9375353575
C        -2.6957695360   -1.5508453758    0.2335354838
C        -2.5819775660   -0.2609377067   -0.1878366670
C        -1.3369087483    0.5486264084    0.0108095731
C        -0.7614866139    0.9459294142   -1.3686498193
H         0.6034237767    0.3741003482    1.0682158781
H         0.3248744770   -1.9513164369    1.8129852797
H        -1.7555143691   -3.2178922081    1.2698721059
H        -3.6149635185   -2.0991770760    0.0434544134
H        -3.3968320383    0.2334510635   -0.7115980484
H        -0.3635496306    0.0664077941   -1.8868562366
O         0.2262137213    1.9637349226   -1.2256187576
H        -1.5645738549    1.3816693162   -1.9710158561
H         1.0342687396    1.5438825970   -0.8877580826
O        -1.7014812471    1.7821469863    0.6681267320
H        -0.9867546242    2.4008541552    0.4228582893
$end

$rem
BASIS = 6-311++G(2df,2p)
GUI = 2
JOB_TYPE = Optimization
METHOD = wB97M-V
SCF_ALGORITHM = DIIS_GDM
MAX_SCF_CYCLES = 400
GEOM_OPT_MAX_CYCLES = 150
SCF_CONVERGENCE = 7
THRESH = 12
UNRESTRICTED = 1
Solvent_method = SMD
$end
--------------------------------------------------------------
 ----------------------------------------------------------------
             Standard Nuclear Orientation (Angstroms)
    I     Atom           X                Y                Z
 ----------------------------------------------------------------
    1      C      -0.3007674927    -0.1802444109     0.8231948056
    2      C      -0.4596137950    -1.4681811946     1.2359244491
    3      C      -1.6434300797    -2.1911855966     0.9375353575
    4      C      -2.6957695360    -1.5508453758     0.2335354838
    5      C      -2.5819775660    -0.2609377067    -0.1878366670
    6      C      -1.3369087483     0.5486264084     0.0108095731
    7      C      -0.7614866139     0.9459294142    -1.3686498193
    8      H       0.6034237767     0.3741003482     1.0682158781
    9      H       0.3248744770    -1.9513164369     1.8129852797
   10      H      -1.7555143691    -3.2178922081     1.2698721059
   11      H      -3.6149635185    -2.0991770760     0.0434544134
   12      H      -3.3968320383     0.2334510635    -0.7115980484
   13      H      -0.3635496306     0.0664077941    -1.8868562366
   14      O       0.2262137213     1.9637349226    -1.2256187576
   15      H      -1.5645738549     1.3816693162    -1.9710158561
   16      H       1.0342687396     1.5438825970    -0.8877580826
   17      O      -1.7014812471     1.7821469863     0.6681267320
   18      H      -0.9867546242     2.4008541552     0.4228582893
 ----------------------------------------------------------------
 Nuclear Repulsion Energy =         446.34307168 hartrees
 There are       34 alpha and       33 beta electrons
 Requested basis set is 6-311++G(2df,2p)
 There are 126 shells and 396 basis functions

 Total QAlloc Memory Limit 288000 MB
 Mega-Array Size       188 MB
 MEM_STATIC part       192 MB
 
 Citation of the SMD model:
 Marenich, A.V.; Cramer, C.J.; Truhlar, D.G.
 J. Phys. Chem. B 2009, 113, 6378-6396.
 iSolventCode=           1
 Solvent: water                                                           
 
 vradii
            1           2           3           4           5           6
    1   1.8500000   1.8500000   1.8500000   1.8500000   1.8500000   1.8500000
            7           8           9          10          11          12
    1   1.8500000   1.2000000   1.2000000   1.2000000   1.2000000   1.2000000
           13          14          15          16          17          18
    1   1.2000000   1.5200000   1.2000000   1.2000000   1.5200000   1.2000000
 Changing PCM_VDW_RADII to SMD_RADIUS
 Discretize the solute cavity surface with Lebedev spheres
	Using 110 Lebedev grid points for each H atom
	Using 194 Lebedev grid points for other atoms
	Atomic van der Waals radii will be scaled by 1.20
 Remove points where switching function is < 1.0e-08
 Keep 1299 surface tesserae and discard 1437 interior tesserae
 Molecular Surface Area = 151.730 Angst**2
 A cutoff of  1.0D-12 yielded   7354 shell pairs
 There are     73331 function pairs (     90976 Cartesian)
 Smallest overlap matrix eigenvalue = 7.58E-07
 Linear dependence detected in AO basis
 Tighter screening thresholds may be required for diffuse basis sets
 Use S2THRESH > 14 and THRESH = 14 in case of SCF convergence issues
 Number of orthogonalized atomic orbitals = 395
 Maximum deviation from orthogonality = 3.533E-11

 Scale SEOQF with 1.000000e-01/1.000000e-01/1.000000e-01

 Standard Electronic Orientation quadrupole field applied
 Nucleus-field energy     =     0.0000000103 hartrees
 Guess from superposition of atomic densities
 Warning:  Energy on first SCF cycle will be non-variational
 SAD guess density has 67.000000 electrons

 -----------------------------------------------------------------------
  General SCF calculation program by
  Eric Jon Sundstrom, Paul Horn, Yuezhi Mao, Dmitri Zuev, Alec White,
  David Stuck, Shaama M.S., Shane Yost, Joonho Lee, David Small,
  Daniel Levine, Susi Lehtola, Hugh Burton, Evgeny Epifanovsky,
  Bang C. Huynh
 -----------------------------------------------------------------------
 Exchange:     0.1500 Hartree-Fock + 1.0000 wB97M-V + LR-HF
 Correlation:  1.0000 wB97M-V
 Using SG-2 standard quadrature grid
 Nonlocal Correlation:  VV10 with C = 0.0100 and b = 6.00 and scale = 1.00000
 Grid used for NLC:  SG-1 standard quadrature
 
 Citation of the SMD model:
 Marenich, A.V.; Cramer, C.J.; Truhlar, D.G.
 J. Phys. Chem. B 2009, 113, 6378-6396.
 iSolventCode=           1
 Solvent: water                                                           
 
 vradii
            1           2           3           4           5           6
    1   1.8500000   1.8500000   1.8500000   1.8500000   1.8500000   1.8500000
            7           8           9          10          11          12
    1   1.8500000   1.2000000   1.2000000   1.2000000   1.2000000   1.2000000
           13          14          15          16          17          18
    1   1.2000000   1.5200000   1.2000000   1.2000000   1.5200000   1.2000000
 using 8 threads for integral computing
 -------------------------------------------------------
 OpenMP Integral computing Module                
 Release: version 1.0, May 2013, Q-Chem Inc. Pittsburgh 
 -------------------------------------------------------
 -------------------------------------------------------
 OpenMP BLAS3 based DFT computing Module                
 Release: version 1.0, May 2013, Q-Chem Inc. Pittsburgh 
 -------------------------------------------------------
 A unrestricted SCF calculation will be
 performed using DIIS, GDM
 SCF converges when RMS gradient is below 1.0e-07
 ---------------------------------------
  Cycle       Energy         DIIS error
 ---------------------------------------
    1    -425.0539865312      1.27e-02  
    2    -422.4316576243      1.20e-03  Done DIIS. Switching to GDM
 ---------------------------------------
  Cycle       Energy        RMS Gradient
 ---------------------------------------
    1    -422.4316576243      3.51e-02   Descent step
    2    -422.5213174762      1.77e-02   Normal BFGS step
    3    -422.5334550618      9.11e-03   Normal BFGS step
    4    -422.5353526683      5.99e-03   Normal BFGS step
    5    -422.5358400854      4.17e-03   Normal BFGS step
    6    -422.5359977329      1.10e-03   Normal BFGS step
    7    -422.5360145157      6.17e-04   Normal BFGS step
    8    -422.5360202045      3.94e-04   Normal BFGS step
    9    -422.5360210493      2.95e-04   Normal BFGS step
   10    -422.5360214472      9.20e-05   Normal BFGS step
   11    -422.5360215329      4.02e-05   Normal BFGS step
   12    -422.5360215435      1.74e-05   Normal BFGS step
   13    -422.5360215463      5.01e-06   Normal BFGS step
   14    -422.5360215465      3.31e-06   Normal BFGS step
   15    -422.5360215466      2.54e-06   Normal BFGS step
   16    -422.5360215466      1.17e-06   Normal BFGS step
   17    -422.5360215466      4.64e-07   Normal BFGS step
   18    -422.5360215466      1.62e-07   Normal BFGS step
   19    -422.5360215467      4.45e-08  Convergence criterion met
 ---------------------------------------
 SCF time:   CPU 2056.09s  wall 261.00s 
<S^2> =          0.790055092
(3)  G-ENP(liq) elect-nuc-pol free energy of system     -422.536021547 a.u.
(4)  G-CDS(liq) cavity-dispersion-solvent structure 
     free energy                                                3.5127 kcal/mol
(6)  G-S(liq) free energy of system                     -422.530423629 a.u.
 SCF   energy in the final basis set =     -422.5304236286
 Total energy in the final basis set =     -422.5304236286
 
 --------------------------------------------------------------
 
                    Orbital Energies (a.u.)
 --------------------------------------------------------------
 
 Alpha MOs
 -- Occupied --
-19.3468 -19.3374 -10.4081 -10.3895 -10.3539 -10.3498 -10.3494 -10.3459
-10.3449  -1.1751  -1.1444  -0.9745  -0.8809  -0.8747  -0.7976  -0.7208
 -0.7197  -0.6336  -0.6287  -0.6093  -0.5839  -0.5779  -0.5288  -0.5270
 -0.5224  -0.4826  -0.4676  -0.4629  -0.4429  -0.4395  -0.4096  -0.3891
 -0.3612  -0.2706
 -- Virtual --
  0.0255   0.0349   0.0371   0.0485   0.0540   0.0559   0.0631   0.0735
  0.0792   0.0868   0.1033   0.1137   0.1215   0.1295   0.1415   0.1419
  0.1470   0.1525   0.1543   0.1605   0.1618   0.1643   0.1711   0.1764
  0.1794   0.1869   0.1958   0.2051   0.2066   0.2154   0.2164   0.2192
  0.2200   0.2295   0.2477   0.2517   0.2562   0.2719   0.2773   0.2824
  0.2945   0.3039   0.3117   0.3220   0.3286   0.3318   0.3346   0.3398
  0.3501   0.3591   0.3618   0.3770   0.3853   0.3947   0.3951   0.4112
  0.4196   0.4273   0.4405   0.4626   0.4656   0.4884   0.5243   0.5363
  0.5519   0.5660   0.5860   0.5896   0.5939   0.6005   0.6042   0.6134
  0.6269   0.6289   0.6332   0.6475   0.6539   0.6692   0.6819   0.6955
  0.6981   0.7042   0.7143   0.7233   0.7242   0.7371   0.7398   0.7520
  0.7640   0.7672   0.7810   0.7839   0.7985   0.8179   0.8328   0.8386
  0.8468   0.8592   0.8602   0.8695   0.8822   0.8977   0.9075   0.9218
  0.9597   0.9992   1.0065   1.0285   1.0327   1.0495   1.0759   1.1021
  1.1063   1.1197   1.1304   1.1442   1.1499   1.1564   1.1805   1.1947
  1.2015   1.2152   1.2269   1.2385   1.2596   1.2695   1.2804   1.2920
  1.2998   1.3169   1.3457   1.3634   1.3693   1.3765   1.3959   1.4013
  1.4146   1.4182   1.4268   1.4380   1.4501   1.4745   1.4881   1.4914
  1.4984   1.5166   1.5274   1.5405   1.5501   1.5582   1.5795   1.5817
  1.5968   1.6181   1.6266   1.6750   1.6883   1.7071   1.7191   1.7628
  1.7757   1.7991   1.8281   1.8523   1.8668   1.9161   1.9593   1.9818
  1.9987   2.0484   2.0862   2.0935   2.1068   2.1392   2.2050   2.2756
  2.3257   2.3788   2.4271   2.4576   2.4827   2.5782   2.5973   2.6303
  2.6493   2.6677   2.6911   2.7355   2.7512   2.7794   2.7953   2.8012
  2.8164   2.8288   2.8402   2.8545   2.8677   2.8853   2.8863   2.9067
  2.9198   2.9353   2.9432   2.9604   2.9786   2.9840   2.9963   3.0266
  3.0446   3.0712   3.0838   3.1211   3.1535   3.1858   3.1891   3.1964
  3.2077   3.2296   3.2323   3.2596   3.2736   3.2767   3.2947   3.3149
  3.3226   3.3324   3.3575   3.3824   3.4082   3.4303   3.4397   3.4475
  3.4739   3.4803   3.4877   3.4909   3.4993   3.5216   3.5407   3.5603
  3.5835   3.5897   3.6363   3.6581   3.6626   3.6689   3.7023   3.7208
  3.7288   3.7465   3.7820   3.8010   3.8131   3.8385   3.8470   3.8520
  3.8738   3.8778   3.8917   3.9151   3.9187   3.9333   3.9596   3.9749
  3.9992   4.0017   4.0184   4.0530   4.0758   4.1033   4.1303   4.1527
  4.1616   4.1757   4.1904   4.2079   4.2147   4.2366   4.2494   4.2637
  4.3091   4.3266   4.3378   4.3557   4.3765   4.4129   4.4417   4.4520
  4.4658   4.4799   4.4831   4.4942   4.5243   4.5336   4.5842   4.6170
  4.6406   4.6440   4.6568   4.6876   4.7102   4.7148   4.7727   4.8096
  4.8895   4.9738   5.0361   5.1193   5.1391   5.1489   5.2067   5.2308
  5.2731   5.3084   5.3176   5.3622   5.3866   5.4019   5.4570   5.4757
  5.4769   5.5589   5.5738   5.5909   5.6355   5.6703   5.6746   5.7069
  5.7524   5.7865   5.8271   5.8642   5.9094   5.9459   5.9895   6.0438
  6.1495   6.4216   6.5870   6.6353   7.1136   7.1610   7.2573   7.2796
  7.3451   7.3830   7.4291   7.5367   7.6360   7.6631   7.7896   7.8552
 24.2417  24.6133  24.6802  24.7914  24.8511  25.0656  25.3629  50.5986
 50.6661
 
 Beta MOs
 -- Occupied --
-19.3466 -19.3361 -10.4088 -10.3883 -10.3485 -10.3475 -10.3462 -10.3444
-10.3440  -1.1735  -1.1424  -0.9677  -0.8744  -0.8691  -0.7891  -0.7162
 -0.7136  -0.6299  -0.6253  -0.6073  -0.5778  -0.5743  -0.5263  -0.5241
 -0.5193  -0.4764  -0.4632  -0.4522  -0.4372  -0.4282  -0.4036  -0.3807
 -0.3456
 -- Virtual --
 -0.0239   0.0251   0.0346   0.0367   0.0486   0.0541   0.0557   0.0715
  0.0760   0.0836   0.0871   0.1029   0.1137   0.1205   0.1324   0.1417
  0.1435   0.1463   0.1536   0.1562   0.1605   0.1619   0.1654   0.1711
  0.1767   0.1793   0.1883   0.1998   0.2048   0.2077   0.2153   0.2163
  0.2197   0.2260   0.2300   0.2477   0.2516   0.2549   0.2719   0.2782
  0.2827   0.2956   0.3066   0.3148   0.3233   0.3310   0.3359   0.3383
  0.3408   0.3517   0.3602   0.3636   0.3783   0.3860   0.3952   0.3981
  0.4132   0.4217   0.4287   0.4413   0.4643   0.4674   0.4891   0.5257
  0.5383   0.5548   0.5718   0.5909   0.5912   0.5964   0.6057   0.6088
  0.6174   0.6280   0.6306   0.6378   0.6501   0.6575   0.6713   0.6868
  0.6986   0.7022   0.7072   0.7185   0.7262   0.7276   0.7396   0.7458
  0.7568   0.7654   0.7706   0.7846   0.7877   0.8007   0.8225   0.8351
  0.8393   0.8519   0.8631   0.8641   0.8730   0.8864   0.9017   0.9113
  0.9230   0.9613   1.0011   1.0085   1.0308   1.0347   1.0501   1.0781
  1.1025   1.1085   1.1210   1.1318   1.1455   1.1517   1.1590   1.1835
  1.1980   1.2028   1.2154   1.2277   1.2394   1.2615   1.2709   1.2832
  1.2936   1.3013   1.3197   1.3484   1.3651   1.3742   1.3802   1.3994
  1.4043   1.4192   1.4224   1.4308   1.4414   1.4536   1.4772   1.4910
  1.4948   1.5013   1.5184   1.5318   1.5438   1.5539   1.5650   1.5822
  1.5859   1.5990   1.6208   1.6279   1.6783   1.6903   1.7109   1.7235
  1.7664   1.7803   1.8029   1.8377   1.8575   1.8700   1.9199   1.9633
  1.9862   2.0012   2.0559   2.0907   2.0970   2.1090   2.1423   2.2067
  2.2790   2.3275   2.3801   2.4291   2.4586   2.4846   2.5862   2.6038
  2.6431   2.6565   2.6733   2.7005   2.7437   2.7554   2.7925   2.8062
  2.8138   2.8261   2.8338   2.8475   2.8643   2.8781   2.8963   2.9009
  2.9162   2.9343   2.9538   2.9612   2.9694   2.9915   2.9971   3.0129
  3.0482   3.0583   3.0852   3.1009   3.1291   3.1617   3.1922   3.1983
  3.2043   3.2152   3.2364   3.2421   3.2696   3.2841   3.2859   3.3000
  3.3188   3.3333   3.3422   3.3735   3.3921   3.4175   3.4384   3.4484
  3.4528   3.4807   3.4906   3.4957   3.5033   3.5105   3.5347   3.5483
  3.5713   3.5959   3.6012   3.6486   3.6740   3.6757   3.6777   3.7068
  3.7302   3.7374   3.7584   3.7919   3.8088   3.8202   3.8455   3.8561
  3.8591   3.8806   3.8879   3.8993   3.9230   3.9265   3.9452   3.9691
  3.9825   4.0083   4.0118   4.0271   4.0603   4.0842   4.1111   4.1362
  4.1592   4.1673   4.1822   4.1968   4.2150   4.2219   4.2415   4.2540
  4.2719   4.3144   4.3365   4.3442   4.3629   4.3821   4.4180   4.4477
  4.4634   4.4761   4.4882   4.4926   4.5028   4.5336   4.5432   4.5931
  4.6271   4.6536   4.6578   4.6635   4.6966   4.7218   4.7255   4.7824
  4.8191   4.9000   4.9887   5.0494   5.1297   5.1517   5.1593   5.2191
  5.2412   5.2748   5.3092   5.3199   5.3666   5.3931   5.4065   5.4629
  5.4785   5.4815   5.5681   5.5760   5.5942   5.6443   5.6725   5.6821
  5.7088   5.7614   5.7878   5.8488   5.8729   5.9136   5.9534   5.9929
  6.0456   6.1629   6.4316   6.5904   6.6368   7.1146   7.1631   7.2597
  7.2803   7.3463   7.3845   7.4327   7.5394   7.6378   7.6659   7.7906
  7.8594  24.2436  24.6150  24.6811  24.7948  24.8538  25.0671  25.3655
 50.5990  50.6670
 --------------------------------------------------------------
 
          Ground-State Mulliken Net Atomic Charges

     Atom                 Charge (a.u.)    Spin (a.u.)
  --------------------------------------------------------
      1 C                    -0.122327       0.387019
      2 C                    -0.401562      -0.158530
      3 C                    -0.461368       0.530162
      4 C                    -0.316487      -0.156867
      5 C                    -0.172100       0.379862
      6 C                     0.162815      -0.025084
      7 C                    -0.478615       0.027763
      8 H                     0.276168      -0.008388
      9 H                     0.293676       0.004655
     10 H                     0.283864      -0.009568
     11 H                     0.293911       0.004797
     12 H                     0.297755      -0.007869
     13 H                     0.221773       0.002887
     14 O                    -0.409782       0.006846
     15 H                     0.238676       0.001921
     16 H                     0.335635      -0.000348
     17 O                    -0.391228       0.019135
     18 H                     0.349196       0.001609
  --------------------------------------------------------
  Sum of atomic charges =     0.000000
  Sum of spin   charges =     1.000000

 -----------------------------------------------------------------
                    Cartesian Multipole Moments
 -----------------------------------------------------------------
    Charge (ESU x 10^10)
                 0.0000
    Dipole Moment (Debye)
         X       2.4481      Y      -2.8193      Z      -1.1491
       Tot       3.9067
    Quadrupole Moments (Debye-Ang)
        XX     -53.7215     XY       6.9393     YY     -56.2117
        XZ       6.3632     YZ      -1.7272     ZZ     -57.8134
    Octopole Moments (Debye-Ang^2)
       XXX     200.2752    XXY     -13.6423    XYY      66.1472
       YYY     -18.1552    XXZ     -21.0366    XYZ       9.1313
       YYZ       9.1742    XZZ      73.3568    YZZ      -6.5758
       ZZZ     -21.3939
    Hexadecapole Moments (Debye-Ang^3)
      XXXX    -868.6017   XXXY     -35.8699   XXYY    -267.8829
      XYYY     -58.7934   YYYY    -730.1447   XXXZ      79.6693
      XXYZ      23.3990   XYYZ      19.2754   YYYZ     128.0495
      XXZZ    -222.6722   XYZZ     -39.0361   YYZZ    -196.2009
      XZZZ      59.4463   YZZZ     133.9002   ZZZZ    -370.4340
 -----------------------------------------------------------------
 Calculating analytic gradient of the SCF energy
 Gradient of CDS energy
            1           2           3           4           5           6
    1   0.0001436   0.0004038  -0.0000518  -0.0004343  -0.0002301   0.0000077
    2   0.0002248  -0.0001136  -0.0005568  -0.0001505   0.0002052   0.0002267
    3   0.0001653   0.0002363   0.0001605  -0.0001424   0.0000138  -0.0000182
            7           8           9          10          11          12
    1   0.0001812   0.0000652   0.0001548  -0.0000214  -0.0001813  -0.0000964
    2   0.0001335   0.0000664  -0.0000953  -0.0001957  -0.0001082   0.0001781
    3  -0.0010082   0.0000096   0.0001139   0.0000634  -0.0000375  -0.0001154
           13          14          15          16          17          18
    1   0.0000562  -0.0002428  -0.0002236   0.0004728  -0.0000510   0.0000472
    2  -0.0002226  -0.0001104   0.0001453   0.0001794  -0.0002677   0.0004615
    3   0.0001906   0.0001802   0.0001621  -0.0000485  -0.0001025   0.0001772
 Gradient of SCF Energy
            1           2           3           4           5           6
    1  -0.0084244  -0.0034109  -0.0009322   0.0036508   0.0043985  -0.0036129
    2  -0.0006766  -0.0038666   0.0066781  -0.0004325   0.0005759   0.0066167
    3  -0.0054180  -0.0003024  -0.0011580   0.0005332   0.0020944   0.0002951
            7           8           9          10          11          12
    1   0.0062214   0.0116312   0.0074395  -0.0008897  -0.0067033  -0.0036622
    2   0.0047046   0.0067660  -0.0047277  -0.0091397  -0.0046731   0.0018650
    3   0.0109676   0.0011020   0.0050554   0.0028284  -0.0014951  -0.0036075
           13          14          15          16          17          18
    1   0.0044820  -0.0204554  -0.0054650   0.0176363  -0.0135789   0.0116750
    2  -0.0085623   0.0163705   0.0016776  -0.0132057  -0.0028951   0.0029248
    3  -0.0055703  -0.0123361  -0.0046028   0.0100113   0.0066855  -0.0050828
 Max gradient component =       2.046E-02
 RMS gradient           =       7.376E-03
 Computing fast CPCM-SWIG gradient
 Updating gradient with PCM contributions...
 -- total gradient after adding PCM contribution --
---------------------------------------------------
  Atom         X              Y              Z     
---------------------------------------------------
   1      -0.000156       0.002534      -0.001302
   2       0.000628      -0.002407       0.001066
   3      -0.000216      -0.000994       0.000374
   4      -0.000759      -0.002577       0.000272
   5       0.000315       0.002928      -0.000097
   6       0.000951       0.004040       0.000403
   7       0.003464       0.000459       0.002517
   8       0.002549       0.001777       0.000620
   9       0.002334      -0.001632       0.001829
  10      -0.000350      -0.003122       0.001013
  11      -0.002791      -0.001760      -0.000502
  12      -0.002342       0.001574      -0.001402
  13       0.000749      -0.002854      -0.002194
  14      -0.006712       0.006512      -0.001978
  15      -0.001988       0.001727      -0.001990
  16       0.004905      -0.004755       0.002617
  17      -0.006967      -0.003545       0.002615
  18       0.006384       0.002095      -0.003862
---------------------------------------------------
 Number of fixed atoms: 0
 Gradient time:  CPU 320.42 s  wall 46.06 s
 Geometry Optimization Parameters
   NAtoms,    NIC,     NZ,  NCons,   NDum,   NFix, NCnnct, MaxDiis
       18     126       0       0       0       0       0       0


** GEOMETRY OPTIMIZATION IN DELOCALIZED INTERNAL COORDINATES **
   Searching for a Minimum

   Optimization Cycle:   1

                       Coordinates (Angstroms)
     ATOM                X               Y               Z
      1  C        -0.3007674927   -0.1802444109    0.8231948056
      2  C        -0.4596137950   -1.4681811946    1.2359244491
      3  C        -1.6434300797   -2.1911855966    0.9375353575
      4  C        -2.6957695360   -1.5508453758    0.2335354838
      5  C        -2.5819775660   -0.2609377067   -0.1878366670
      6  C        -1.3369087483    0.5486264084    0.0108095731
      7  C        -0.7614866139    0.9459294142   -1.3686498193
      8  H         0.6034237767    0.3741003482    1.0682158781
      9  H         0.3248744770   -1.9513164369    1.8129852797
     10  H        -1.7555143691   -3.2178922081    1.2698721059
     11  H        -3.6149635185   -2.0991770760    0.0434544134
     12  H        -3.3968320383    0.2334510635   -0.7115980484
     13  H        -0.3635496306    0.0664077941   -1.8868562366
     14  O         0.2262137213    1.9637349226   -1.2256187576
     15  H        -1.5645738549    1.3816693162   -1.9710158561
     16  H         1.0342687396    1.5438825970   -0.8877580826
     17  O        -1.7014812471    1.7821469863    0.6681267320
     18  H        -0.9867546242    2.4008541552    0.4228582893
   Point Group: c1    Number of degrees of freedom:    48


   Energy is   -422.530423629


 Attempting to generate delocalized internal coordinates
 Initial Hessian constructed with Jon Baker's OPTIMIZE code

 48 Hessian modes will be used to form the next step
  Hessian Eigenvalues:
     0.003019    0.009760    0.010450    0.012277    0.015620    0.017140
     0.019924    0.020647    0.022088    0.023905    0.024377    0.049426
     0.056157    0.058669    0.071868    0.086319    0.113878    0.138056
     0.153198    0.159922    0.159980    0.159984    0.159994    0.160000
     0.160000    0.160003    0.185545    0.219827    0.219973    0.220703
     0.279451    0.307659    0.318401    0.341677    0.343116    0.349832
     0.350990    0.351470    0.351537    0.354017    0.389759    0.406295
     0.416485    0.418023    0.494639    0.520466    0.525943    0.531169

 Minimum search - taking simple RFO step
 Searching for Lamda that Minimizes Along All modes
 Value Taken    Lamda =  -0.00127241
 Step Taken.  Stepsize is  0.115454

                             Maximum     Tolerance    Cnvgd?
         Gradient           0.009342      0.000300      NO
         Displacement       0.049758      0.001200      NO
         Energy change     *********      0.000001      NO


 New Cartesian Coordinates Obtained by Inverse Iteration

 Displacement from previous Coordinates is:  0.231995
 ----------------------------------------------------------------
             Standard Nuclear Orientation (Angstroms)
    I     Atom           X                Y                Z
 ----------------------------------------------------------------
    1      C      -0.3064303693    -0.1724470565     0.8267560231
    2      C      -0.4615284192    -1.4558738277     1.2332325377
    3      C      -1.6367854657    -2.1803345187     0.9295002249
    4      C      -2.6858365639    -1.5451744806     0.2263533340
    5      C      -2.5759185151    -0.2607035469    -0.1911949805
    6      C      -1.3396575714     0.5513262780     0.0149939156
    7      C      -0.7673917228     0.9392601592    -1.3656322232
    8      H       0.5917466346     0.3808675385     1.0750816611
    9      H       0.3200719493    -1.9347897433     1.8081908203
   10      H      -1.7451152668    -3.2037302522     1.2572432690
   11      H      -3.5976605650    -2.0941858718     0.0313505823
   12      H      -3.3866424541     0.2277659412    -0.7171303716
   13      H      -0.3941920238     0.0527347006    -1.8785759603
   14      O       0.2528991210     1.9271131551    -1.2440122423
   15      H      -1.5653200422     1.3845109403    -1.9588101572
   16      H       1.0590879547     1.5055494327    -0.9243655209
   17      O      -1.7170710209     1.7782999527     0.6821571569
   18      H      -1.0190980591     2.4208341996     0.4820408309
 ----------------------------------------------------------------
 Nuclear Repulsion Energy =         447.17314724 hartrees
 There are       34 alpha and       33 beta electrons
 Discretize the solute cavity surface with Lebedev spheres
	Using 110 Lebedev grid points for each H atom
	Using 194 Lebedev grid points for other atoms
	Atomic van der Waals radii will be scaled by 1.20
 Remove points where switching function is < 1.0e-08
 Keep 1302 surface tesserae and discard 1434 interior tesserae
 Molecular Surface Area = 151.651 Angst**2
 Applying Cartesian multipole field
    Component          Value
    ---------          -----
     (2,0,0)        1.00000E-11
     (0,2,0)        2.00000E-11
     (0,0,2)       -3.00000E-11
 Nucleus-field energy     =     0.0000000101 hartrees
 Requested basis set is 6-311++G(2df,2p)
 There are 126 shells and 396 basis functions
 A cutoff of  1.0D-12 yielded   7367 shell pairs
 There are     73549 function pairs (     91301 Cartesian)
 Smallest overlap matrix eigenvalue = 7.35E-07
 Linear dependence detected in AO basis
 Tighter screening thresholds may be required for diffuse basis sets
 Use S2THRESH > 14 and THRESH = 14 in case of SCF convergence issues
 Number of orthogonalized atomic orbitals = 395
 Maximum deviation from orthogonality = 5.003E-11
 Guess MOs from SCF MO coefficient file

 -----------------------------------------------------------------------
  General SCF calculation program by
  Eric Jon Sundstrom, Paul Horn, Yuezhi Mao, Dmitri Zuev, Alec White,
  David Stuck, Shaama M.S., Shane Yost, Joonho Lee, David Small,
  Daniel Levine, Susi Lehtola, Hugh Burton, Evgeny Epifanovsky,
  Bang C. Huynh
 -----------------------------------------------------------------------
 Exchange:     0.1500 Hartree-Fock + 1.0000 wB97M-V + LR-HF
 Correlation:  1.0000 wB97M-V
 Using SG-2 standard quadrature grid
 Nonlocal Correlation:  VV10 with C = 0.0100 and b = 6.00 and scale = 1.00000
 Grid used for NLC:  SG-1 standard quadrature
 
 Citation of the SMD model:
 Marenich, A.V.; Cramer, C.J.; Truhlar, D.G.
 J. Phys. Chem. B 2009, 113, 6378-6396.
 iSolventCode=           1
 Solvent: water                                                           
 
 vradii
            1           2           3           4           5           6
    1   1.8500000   1.8500000   1.8500000   1.8500000   1.8500000   1.8500000
            7           8           9          10          11          12
    1   1.8500000   1.2000000   1.2000000   1.2000000   1.2000000   1.2000000
           13          14          15          16          17          18
    1   1.2000000   1.5200000   1.2000000   1.2000000   1.5200000   1.2000000
 -------------------------------------------------------
 OpenMP BLAS3 based DFT computing Module                
 Release: version 1.0, May 2013, Q-Chem Inc. Pittsburgh 
 -------------------------------------------------------
 A unrestricted SCF calculation will be
 performed using Roothaan-Hall, DIIS, GDM
 SCF converges when RMS gradient is below 1.0e-07
 ---------------------------------------
  Cycle       Energy         DIIS error
 ---------------------------------------
    1    -422.5087839433      2.14e-04  Roothaan Step
 ---------------------------------------
  Cycle       Energy         DIIS error
 ---------------------------------------
    1    -422.5313445534      2.10e-04  
    2    -422.5352064508      1.56e-04  Done DIIS. Switching to GDM
 ---------------------------------------
  Cycle       Energy        RMS Gradient
 ---------------------------------------
    1    -422.5352064508      4.58e-03   Normal BFGS step
    2    -422.5353772684      5.97e-03   Normal BFGS step
    3    -422.5366227439      8.24e-04   Normal BFGS step
    4    -422.5366382458      3.73e-04   Normal BFGS step
    5    -422.5366444812      2.55e-04   Normal BFGS step
    6    -422.5366448190      9.70e-05   Normal BFGS step
    7    -422.5366449241      7.73e-05   Normal BFGS step
    8    -422.5366449517      4.09e-05   Normal BFGS step
    9    -422.5366449581      1.22e-05   Normal BFGS step
   10    -422.5366449596      1.00e-05   Normal BFGS step
   11    -422.5366449602      6.54e-06   Normal BFGS step
   12    -422.5366449603      3.09e-06   Normal BFGS step
   13    -422.5366449604      1.05e-06   Normal BFGS step
   14    -422.5366449604      4.34e-07   Normal BFGS step
   15    -422.5366449603      4.02e-07   Normal BFGS step
   16    -422.5366449604      2.00e-07   Normal BFGS step
   17    -422.5366449604      6.18e-08  Convergence criterion met
 ---------------------------------------
 SCF time:   CPU 1980.00s  wall 251.00s 
<S^2> =          0.788564020
(3)  G-ENP(liq) elect-nuc-pol free energy of system     -422.536644960 a.u.
(4)  G-CDS(liq) cavity-dispersion-solvent structure 
     free energy                                                3.5076 kcal/mol
(6)  G-S(liq) free energy of system                     -422.531055284 a.u.
 SCF   energy in the final basis set =     -422.5310552842
 Total energy in the final basis set =     -422.5310552842
 
 --------------------------------------------------------------
 
                    Orbital Energies (a.u.)
 --------------------------------------------------------------
 
 Alpha MOs
 -- Occupied --
-19.3442 -19.3374 -10.4071 -10.3881 -10.3518 -10.3477 -10.3473 -10.3436
-10.3425  -1.1729  -1.1452  -0.9773  -0.8833  -0.8765  -0.7989  -0.7226
 -0.7210  -0.6365  -0.6307  -0.6073  -0.5840  -0.5786  -0.5289  -0.5278
 -0.5240  -0.4830  -0.4679  -0.4636  -0.4424  -0.4394  -0.4094  -0.3882
 -0.3621  -0.2703
 -- Virtual --
  0.0254   0.0349   0.0371   0.0483   0.0542   0.0560   0.0642   0.0733
  0.0791   0.0870   0.1036   0.1137   0.1222   0.1299   0.1416   0.1423
  0.1471   0.1527   0.1545   0.1607   0.1622   0.1647   0.1710   0.1766
  0.1797   0.1874   0.1950   0.2052   0.2066   0.2159   0.2165   0.2197
  0.2205   0.2293   0.2486   0.2521   0.2556   0.2722   0.2771   0.2824
  0.2963   0.3055   0.3117   0.3231   0.3294   0.3340   0.3362   0.3408
  0.3522   0.3596   0.3639   0.3793   0.3868   0.3949   0.3961   0.4131
  0.4205   0.4288   0.4425   0.4622   0.4641   0.4855   0.5255   0.5377
  0.5527   0.5678   0.5880   0.5903   0.5971   0.6022   0.6052   0.6135
  0.6281   0.6309   0.6339   0.6514   0.6561   0.6721   0.6847   0.6968
  0.6975   0.7060   0.7181   0.7239   0.7274   0.7381   0.7413   0.7532
  0.7645   0.7682   0.7818   0.7875   0.8001   0.8199   0.8336   0.8385
  0.8495   0.8586   0.8619   0.8723   0.8858   0.8986   0.9044   0.9210
  0.9615   1.0043   1.0103   1.0279   1.0337   1.0522   1.0758   1.1054
  1.1082   1.1208   1.1303   1.1456   1.1531   1.1591   1.1834   1.1969
  1.2079   1.2183   1.2304   1.2389   1.2607   1.2696   1.2875   1.2958
  1.3006   1.3198   1.3494   1.3688   1.3726   1.3814   1.3971   1.4029
  1.4175   1.4193   1.4281   1.4420   1.4541   1.4771   1.4889   1.4943
  1.5030   1.5139   1.5331   1.5408   1.5515   1.5622   1.5820   1.5843
  1.6025   1.6209   1.6280   1.6702   1.6922   1.7154   1.7223   1.7638
  1.7792   1.8039   1.8287   1.8516   1.8662   1.9123   1.9674   1.9853
  1.9997   2.0565   2.0914   2.0940   2.1087   2.1392   2.2053   2.2620
  2.3244   2.3803   2.4238   2.4505   2.4693   2.5772   2.5950   2.6338
  2.6485   2.6663   2.6895   2.7355   2.7598   2.7806   2.8019   2.8066
  2.8165   2.8289   2.8423   2.8558   2.8696   2.8855   2.8866   2.9065
  2.9208   2.9366   2.9425   2.9601   2.9816   2.9889   2.9947   3.0305
  3.0481   3.0786   3.0871   3.1285   3.1566   3.1874   3.1876   3.2023
  3.2103   3.2332   3.2356   3.2608   3.2732   3.2790   3.2976   3.3142
  3.3223   3.3364   3.3647   3.3859   3.4115   3.4346   3.4429   3.4520
  3.4784   3.4796   3.4922   3.4945   3.5003   3.5232   3.5458   3.5582
  3.5894   3.5963   3.6432   3.6594   3.6688   3.6695   3.7078   3.7253
  3.7341   3.7516   3.7903   3.8024   3.8162   3.8446   3.8511   3.8565
  3.8758   3.8787   3.8993   3.9235   3.9253   3.9442   3.9672   3.9871
  4.0004   4.0100   4.0263   4.0613   4.0835   4.1121   4.1306   4.1606
  4.1670   4.1822   4.1985   4.2114   4.2229   4.2512   4.2545   4.2742
  4.3206   4.3383   4.3437   4.3662   4.3904   4.4234   4.4487   4.4655
  4.4796   4.4884   4.4941   4.5094   4.5359   4.5450   4.5926   4.6319
  4.6586   4.6593   4.6639   4.7028   4.7224   4.7300   4.7899   4.8228
  4.9030   4.9945   5.0492   5.1322   5.1545   5.1626   5.2196   5.2463
  5.2758   5.3136   5.3177   5.3669   5.3906   5.3988   5.4586   5.4790
  5.4957   5.5701   5.5795   5.5978   5.6444   5.6802   5.6911   5.7213
  5.7731   5.7820   5.8476   5.8778   5.9195   5.9545   6.0136   6.0626
  6.1860   6.4557   6.5830   6.6401   7.1193   7.1591   7.2820   7.3134
  7.3389   7.3775   7.4278   7.5080   7.6570   7.6834   7.7898   7.8478
 24.2488  24.6257  24.6940  24.8131  24.8712  25.1009  25.4033  50.6016
 50.6673
 
 Beta MOs
 -- Occupied --
-19.3440 -19.3361 -10.4078 -10.3869 -10.3462 -10.3451 -10.3441 -10.3423
-10.3419  -1.1713  -1.1432  -0.9706  -0.8768  -0.8710  -0.7903  -0.7175
 -0.7153  -0.6328  -0.6274  -0.6051  -0.5780  -0.5750  -0.5263  -0.5250
 -0.5210  -0.4767  -0.4635  -0.4521  -0.4372  -0.4281  -0.4037  -0.3801
 -0.3466
 -- Virtual --
 -0.0234   0.0250   0.0346   0.0367   0.0483   0.0543   0.0557   0.0715
  0.0762   0.0841   0.0874   0.1031   0.1136   0.1213   0.1324   0.1421
  0.1438   0.1463   0.1540   0.1560   0.1607   0.1622   0.1660   0.1710
  0.1769   0.1796   0.1887   0.1989   0.2048   0.2076   0.2159   0.2164
  0.2201   0.2268   0.2302   0.2483   0.2524   0.2545   0.2723   0.2777
  0.2827   0.2973   0.3083   0.3148   0.3244   0.3322   0.3379   0.3394
  0.3417   0.3540   0.3606   0.3658   0.3805   0.3873   0.3958   0.3989
  0.4150   0.4228   0.4302   0.4434   0.4638   0.4659   0.4865   0.5268
  0.5396   0.5555   0.5736   0.5916   0.5936   0.5996   0.6072   0.6098
  0.6174   0.6295   0.6321   0.6387   0.6541   0.6600   0.6747   0.6888
  0.7000   0.7013   0.7097   0.7216   0.7283   0.7295   0.7406   0.7474
  0.7580   0.7660   0.7712   0.7848   0.7919   0.8025   0.8238   0.8359
  0.8390   0.8547   0.8625   0.8660   0.8757   0.8904   0.9023   0.9088
  0.9223   0.9632   1.0061   1.0125   1.0301   1.0359   1.0527   1.0779
  1.1061   1.1104   1.1220   1.1312   1.1473   1.1551   1.1617   1.1867
  1.2002   1.2093   1.2183   1.2313   1.2398   1.2627   1.2710   1.2904
  1.2975   1.3019   1.3226   1.3518   1.3704   1.3776   1.3849   1.3995
  1.4074   1.4207   1.4242   1.4325   1.4450   1.4579   1.4802   1.4907
  1.4987   1.5059   1.5159   1.5374   1.5446   1.5547   1.5686   1.5854
  1.5884   1.6047   1.6232   1.6298   1.6732   1.6941   1.7198   1.7261
  1.7676   1.7840   1.8078   1.8375   1.8572   1.8693   1.9163   1.9716
  1.9885   2.0033   2.0638   2.0955   2.0982   2.1112   2.1424   2.2070
  2.2653   2.3263   2.3816   2.4256   2.4515   2.4711   2.5854   2.6015
  2.6464   2.6559   2.6717   2.6989   2.7446   2.7639   2.7941   2.8121
  2.8180   2.8279   2.8347   2.8491   2.8650   2.8802   2.8975   2.8999
  2.9159   2.9362   2.9543   2.9599   2.9691   2.9959   3.0001   3.0121
  3.0518   3.0619   3.0919   3.1044   3.1367   3.1647   3.1934   3.1990
  3.2088   3.2177   3.2418   3.2441   3.2711   3.2831   3.2873   3.3021
  3.3185   3.3332   3.3463   3.3813   3.3959   3.4211   3.4417   3.4520
  3.4576   3.4863   3.4892   3.5015   3.5045   3.5117   3.5353   3.5537
  3.5703   3.6022   3.6084   3.6534   3.6757   3.6771   3.6828   3.7125
  3.7348   3.7425   3.7634   3.7998   3.8100   3.8236   3.8498   3.8603
  3.8638   3.8825   3.8895   3.9075   3.9305   3.9330   3.9565   3.9769
  3.9946   4.0100   4.0198   4.0360   4.0688   4.0921   4.1197   4.1364
  4.1665   4.1737   4.1883   4.2031   4.2205   4.2301   4.2571   4.2591
  4.2818   4.3266   4.3473   4.3497   4.3739   4.3958   4.4286   4.4543
  4.4769   4.4895   4.4965   4.5037   4.5187   4.5441   4.5559   4.6019
  4.6421   4.6651   4.6720   4.6777   4.7122   4.7340   4.7407   4.7995
  4.8328   4.9132   5.0095   5.0623   5.1418   5.1672   5.1737   5.2317
  5.2558   5.2777   5.3143   5.3202   5.3713   5.3955   5.4055   5.4642
  5.4815   5.5007   5.5762   5.5845   5.6018   5.6523   5.6820   5.6993
  5.7235   5.7807   5.7853   5.8636   5.8912   5.9238   5.9629   6.0172
  6.0644   6.1995   6.4659   6.5865   6.6416   7.1201   7.1613   7.2843
  7.3140   7.3401   7.3792   7.4314   7.5109   7.6582   7.6866   7.7908
  7.8521  24.2507  24.6275  24.6949  24.8160  24.8744  25.1025  25.4059
 50.6020  50.6682
 --------------------------------------------------------------
 
          Ground-State Mulliken Net Atomic Charges

     Atom                 Charge (a.u.)    Spin (a.u.)
  --------------------------------------------------------
      1 C                    -0.140426       0.383164
      2 C                    -0.399337      -0.155344
      3 C                    -0.466411       0.528715
      4 C                    -0.312394      -0.153141
      5 C                    -0.163967       0.376590
      6 C                     0.193557      -0.023264
      7 C                    -0.490536       0.027293
      8 H                     0.278634      -0.008189
      9 H                     0.293857       0.004606
     10 H                     0.283683      -0.009257
     11 H                     0.294367       0.004733
     12 H                     0.298055      -0.007707
     13 H                     0.225169       0.002887
     14 O                    -0.421081       0.006758
     15 H                     0.241162       0.002000
     16 H                     0.334950      -0.000386
     17 O                    -0.399530       0.018650
     18 H                     0.350247       0.001894
  --------------------------------------------------------
  Sum of atomic charges =     0.000000
  Sum of spin   charges =     1.000000

 -----------------------------------------------------------------
                    Cartesian Multipole Moments
 -----------------------------------------------------------------
    Charge (ESU x 10^10)
                 0.0000
    Dipole Moment (Debye)
         X       2.3736      Y      -2.7815      Z      -1.0586
       Tot       3.8068
    Quadrupole Moments (Debye-Ang)
        XX     -53.7246     XY       6.6490     YY     -55.8338
        XZ       6.3780     YZ      -1.3745     ZZ     -57.7833
    Octopole Moments (Debye-Ang^2)
       XXX     200.6474    XXY     -13.5745    XYY      65.1955
       YYY     -16.4167    XXZ     -21.2976    XYZ       8.9537
       YYZ       9.6972    XZZ      73.1095    YZZ      -6.4850
       ZZZ     -20.7088
    Hexadecapole Moments (Debye-Ang^3)
      XXXX    -869.1070   XXXY     -34.3629   XXYY    -266.2075
      XYYY     -60.6995   YYYY    -715.6412   XXXZ      80.6171
      XXYZ      22.7235   XYYZ      19.4699   YYYZ     128.1671
      XXZZ    -222.3070   XYZZ     -38.5830   YYZZ    -194.4176
      XZZZ      60.1201   YZZZ     132.0427   ZZZZ    -372.0549
 -----------------------------------------------------------------
 Calculating analytic gradient of the SCF energy
 Gradient of CDS energy
            1           2           3           4           5           6
    1   0.0001359   0.0003997  -0.0000494  -0.0004299  -0.0002269   0.0000067
    2   0.0002227  -0.0001100  -0.0005532  -0.0001479   0.0002006   0.0002173
    3   0.0001699   0.0002352   0.0001575  -0.0001426   0.0000135  -0.0000174
            7           8           9          10          11          12
    1   0.0001717   0.0000645   0.0001507  -0.0000202  -0.0001758  -0.0000927
    2   0.0001469   0.0000669  -0.0000923  -0.0001904  -0.0001058   0.0001753
    3  -0.0010171   0.0000078   0.0001108   0.0000610  -0.0000376  -0.0001136
           13          14          15          16          17          18
    1   0.0000463  -0.0002350  -0.0002201   0.0004796  -0.0000448   0.0000397
    2  -0.0002168  -0.0001035   0.0001329   0.0001669  -0.0002733   0.0004638
    3   0.0001980   0.0001962   0.0001674  -0.0000642  -0.0001118   0.0001869
 Gradient of SCF Energy
            1           2           3           4           5           6
    1  -0.0087704  -0.0040725  -0.0007402   0.0046099   0.0048725  -0.0048372
    2  -0.0038983  -0.0012154   0.0082108   0.0022134  -0.0029177   0.0025365
    3  -0.0039081  -0.0013887  -0.0016368   0.0002624   0.0022659  -0.0000157
            7           8           9          10          11          12
    1   0.0017825   0.0088826   0.0050092  -0.0005235  -0.0038611  -0.0013116
    2   0.0033398   0.0047016  -0.0030224  -0.0058985  -0.0028528   0.0002942
    3   0.0069001   0.0006029   0.0031470   0.0017592  -0.0009530  -0.0021192
           13          14          15          16          17          18
    1   0.0037819  -0.0127834  -0.0037559   0.0134511  -0.0082506   0.0065166
    2  -0.0051167   0.0104156  -0.0004640  -0.0085261  -0.0005196   0.0027194
    3  -0.0034201  -0.0097069  -0.0025632   0.0072575   0.0053396  -0.0018230
 Max gradient component =       1.345E-02
 RMS gradient           =       5.205E-03
 Computing fast CPCM-SWIG gradient
 Updating gradient with PCM contributions...
 -- total gradient after adding PCM contribution --
---------------------------------------------------
  Atom         X              Y              Z     
---------------------------------------------------
   1      -0.000322      -0.000954      -0.000025
   2      -0.000040       0.000218      -0.000089
   3      -0.000001       0.000525      -0.000174
   4       0.000189       0.000135       0.000028
   5       0.000533      -0.000645       0.000232
   6      -0.000996       0.000033       0.000364
   7      -0.000667      -0.000715      -0.001135
   8       0.000042      -0.000080       0.000062
   9      -0.000103       0.000051      -0.000080
  10      -0.000001       0.000129      -0.000037
  11       0.000075       0.000092       0.000079
  12       0.000045      -0.000023       0.000121
  13       0.000242       0.000444      -0.000209
  14       0.000492       0.000541       0.000113
  15      -0.000330      -0.000365      -0.000091
  16       0.000943      -0.000127       0.000294
  17      -0.001195      -0.000599       0.001249
  18       0.001093       0.001341      -0.000703
---------------------------------------------------
 Number of fixed atoms: 0
 Gradient time:  CPU 318.90 s  wall 45.82 s
 Geometry Optimization Parameters
   NAtoms,    NIC,     NZ,  NCons,   NDum,   NFix, NCnnct, MaxDiis
       18     126       0       0       0       0       0       0

 Cartesian Hessian Update
 Hessian updated using BFGS update


** GEOMETRY OPTIMIZATION IN DELOCALIZED INTERNAL COORDINATES **
   Searching for a Minimum

   Optimization Cycle:   2

                       Coordinates (Angstroms)
     ATOM                X               Y               Z
      1  C        -0.3064303693   -0.1724470565    0.8267560231
      2  C        -0.4615284192   -1.4558738277    1.2332325377
      3  C        -1.6367854657   -2.1803345187    0.9295002249
      4  C        -2.6858365639   -1.5451744806    0.2263533340
      5  C        -2.5759185151   -0.2607035469   -0.1911949805
      6  C        -1.3396575714    0.5513262780    0.0149939156
      7  C        -0.7673917228    0.9392601592   -1.3656322232
      8  H         0.5917466346    0.3808675385    1.0750816611
      9  H         0.3200719493   -1.9347897433    1.8081908203
     10  H        -1.7451152668   -3.2037302522    1.2572432690
     11  H        -3.5976605650   -2.0941858718    0.0313505823
     12  H        -3.3866424541    0.2277659412   -0.7171303716
     13  H        -0.3941920238    0.0527347006   -1.8785759603
     14  O         0.2528991210    1.9271131551   -1.2440122423
     15  H        -1.5653200422    1.3845109403   -1.9588101572
     16  H         1.0590879547    1.5055494327   -0.9243655209
     17  O        -1.7170710209    1.7782999527    0.6821571569
     18  H        -1.0190980591    2.4208341996    0.4820408309
   Point Group: c1    Number of degrees of freedom:    48


   Energy is   -422.531055284

 Hessian updated using BFGS update

 48 Hessian modes will be used to form the next step
  Hessian Eigenvalues:
     0.003047    0.009532    0.010449    0.012281    0.015619    0.017135
     0.019924    0.020649    0.022087    0.023908    0.024375    0.049967
     0.056430    0.058846    0.071601    0.087381    0.113745    0.137813
     0.152319    0.158538    0.159922    0.159980    0.159984    0.159994
     0.160002    0.165766    0.183974    0.217508    0.219834    0.220090
     0.276788    0.307377    0.318831    0.341955    0.342356    0.349524
     0.351060    0.351505    0.352099    0.354365    0.391503    0.408098
     0.418022    0.425111    0.494404    0.496636    0.528607    0.544914

 Minimum search - taking simple RFO step
 Searching for Lamda that Minimizes Along All modes
 Value Taken    Lamda =  -0.00005948
 Step Taken.  Stepsize is  0.048785

                             Maximum     Tolerance    Cnvgd?
         Gradient           0.001753      0.000300      NO
         Displacement       0.023800      0.001200      NO
         Energy change     -0.000632      0.000001      NO


 New Cartesian Coordinates Obtained by Inverse Iteration

 Displacement from previous Coordinates is:  0.051459
 ----------------------------------------------------------------
             Standard Nuclear Orientation (Angstroms)
    I     Atom           X                Y                Z
 ----------------------------------------------------------------
    1      C      -0.3060050373    -0.1702156841     0.8275595987
    2      C      -0.4618223937    -1.4535897996     1.2350954428
    3      C      -1.6367092558    -2.1790909659     0.9302633358
    4      C      -2.6852552223    -1.5447451604     0.2245809530
    5      C      -2.5754499054    -0.2603178881    -0.1939306395
    6      C      -1.3385868219     0.5508839921     0.0135817110
    7      C      -0.7683589608     0.9387672365    -1.3654463653
    8      H       0.5913318914     0.3841175798     1.0756587471
    9      H       0.3191049470    -1.9317850824     1.8115303770
   10      H      -1.7449732391    -3.2022962660     1.2585431513
   11      H      -3.5960464753    -2.0946928303     0.0276112122
   12      H      -3.3846094350     0.2273316378    -0.7229136402
   13      H      -0.3994325227     0.0497751743    -1.8772843580
   14      O       0.2501701437     1.9265016900    -1.2485096962
   15      H      -1.5655151381     1.3866388890    -1.9568776089
   16      H       1.0554281547     1.5042529720    -0.9311974538
   17      O      -1.7176569571     1.7770254803     0.6788578049
   18      H      -1.0104561721     2.4124620251     0.5000563277
 ----------------------------------------------------------------
 Nuclear Repulsion Energy =         447.31956310 hartrees
 There are       34 alpha and       33 beta electrons
 Discretize the solute cavity surface with Lebedev spheres
	Using 110 Lebedev grid points for each H atom
	Using 194 Lebedev grid points for other atoms
	Atomic van der Waals radii will be scaled by 1.20
 Remove points where switching function is < 1.0e-08
 Keep 1304 surface tesserae and discard 1432 interior tesserae
 Molecular Surface Area = 151.602 Angst**2
 Applying Cartesian multipole field
    Component          Value
    ---------          -----
     (2,0,0)        1.00000E-11
     (0,2,0)        2.00000E-11
     (0,0,2)       -3.00000E-11
 Nucleus-field energy     =     0.0000000100 hartrees
 Requested basis set is 6-311++G(2df,2p)
 There are 126 shells and 396 basis functions
 A cutoff of  1.0D-12 yielded   7367 shell pairs
 There are     73549 function pairs (     91301 Cartesian)
 Smallest overlap matrix eigenvalue = 7.40E-07
 Linear dependence detected in AO basis
 Tighter screening thresholds may be required for diffuse basis sets
 Use S2THRESH > 14 and THRESH = 14 in case of SCF convergence issues
 Number of orthogonalized atomic orbitals = 395
 Maximum deviation from orthogonality = 2.976E-11
 Guess MOs from SCF MO coefficient file

 -----------------------------------------------------------------------
  General SCF calculation program by
  Eric Jon Sundstrom, Paul Horn, Yuezhi Mao, Dmitri Zuev, Alec White,
  David Stuck, Shaama M.S., Shane Yost, Joonho Lee, David Small,
  Daniel Levine, Susi Lehtola, Hugh Burton, Evgeny Epifanovsky,
  Bang C. Huynh
 -----------------------------------------------------------------------
 Exchange:     0.1500 Hartree-Fock + 1.0000 wB97M-V + LR-HF
 Correlation:  1.0000 wB97M-V
 Using SG-2 standard quadrature grid
 Nonlocal Correlation:  VV10 with C = 0.0100 and b = 6.00 and scale = 1.00000
 Grid used for NLC:  SG-1 standard quadrature
 
 Citation of the SMD model:
 Marenich, A.V.; Cramer, C.J.; Truhlar, D.G.
 J. Phys. Chem. B 2009, 113, 6378-6396.
 iSolventCode=           1
 Solvent: water                                                           
 
 vradii
            1           2           3           4           5           6
    1   1.8500000   1.8500000   1.8500000   1.8500000   1.8500000   1.8500000
            7           8           9          10          11          12
    1   1.8500000   1.2000000   1.2000000   1.2000000   1.2000000   1.2000000
           13          14          15          16          17          18
    1   1.2000000   1.5200000   1.2000000   1.2000000   1.5200000   1.2000000
 -------------------------------------------------------
 OpenMP BLAS3 based DFT computing Module                
 Release: version 1.0, May 2013, Q-Chem Inc. Pittsburgh 
 -------------------------------------------------------
 A unrestricted SCF calculation will be
 performed using Roothaan-Hall, DIIS, GDM
 SCF converges when RMS gradient is below 1.0e-07
 ---------------------------------------
  Cycle       Energy         DIIS error
 ---------------------------------------
    1    -422.5095140570      1.93e-04  Roothaan Step
 ---------------------------------------
  Cycle       Energy         DIIS error
 ---------------------------------------
    1    -422.5313142100      2.14e-04  
    2    -422.5351685040      1.61e-04  Done DIIS. Switching to GDM
 ---------------------------------------
  Cycle       Energy        RMS Gradient
 ---------------------------------------
    1    -422.5351685040      4.59e-03   Normal BFGS step
    2    -422.5353419879      6.14e-03   Normal BFGS step
    3    -422.5366568610      8.01e-04   Normal BFGS step
    4    -422.5366718715      3.82e-04   Normal BFGS step
    5    -422.5366785209      2.52e-04   Normal BFGS step
    6    -422.5366788511      9.20e-05   Normal BFGS step
    7    -422.5366789410      8.02e-05   Normal BFGS step
    8    -422.5366789615      4.63e-05   Normal BFGS step
    9    -422.5366789669      1.12e-05   Normal BFGS step
   10    -422.5366789681      8.74e-06   Normal BFGS step
   11    -422.5366789685      6.32e-06   Normal BFGS step
   12    -422.5366789687      3.08e-06   Normal BFGS step
   13    -422.5366789687      1.21e-06   Normal BFGS step
   14    -422.5366789687      4.54e-07   Normal BFGS step
   15    -422.5366789687      2.10e-07   Normal BFGS step
   16    -422.5366789687      1.07e-07   Normal BFGS step
   17    -422.5366789687      6.10e-08  Convergence criterion met
 ---------------------------------------
 SCF time:   CPU 1966.18s  wall 250.00s 
<S^2> =          0.788664268
(3)  G-ENP(liq) elect-nuc-pol free energy of system     -422.536678969 a.u.
(4)  G-CDS(liq) cavity-dispersion-solvent structure 
     free energy                                                3.5076 kcal/mol
(6)  G-S(liq) free energy of system                     -422.531089221 a.u.
 SCF   energy in the final basis set =     -422.5310892214
 Total energy in the final basis set =     -422.5310892214
 
 --------------------------------------------------------------
 
                    Orbital Energies (a.u.)
 --------------------------------------------------------------
 
 Alpha MOs
 -- Occupied --
-19.3440 -19.3372 -10.4068 -10.3875 -10.3520 -10.3477 -10.3474 -10.3438
-10.3427  -1.1736  -1.1459  -0.9773  -0.8835  -0.8766  -0.7988  -0.7228
 -0.7211  -0.6372  -0.6308  -0.6071  -0.5843  -0.5784  -0.5289  -0.5281
 -0.5240  -0.4835  -0.4681  -0.4636  -0.4424  -0.4390  -0.4097  -0.3878
 -0.3623  -0.2703
 -- Virtual --
  0.0254   0.0349   0.0371   0.0482   0.0542   0.0561   0.0641   0.0732
  0.0791   0.0871   0.1036   0.1136   0.1224   0.1300   0.1417   0.1425
  0.1471   0.1526   0.1546   0.1607   0.1621   0.1647   0.1709   0.1766
  0.1797   0.1875   0.1949   0.2052   0.2065   0.2160   0.2165   0.2197
  0.2205   0.2293   0.2489   0.2521   0.2555   0.2725   0.2771   0.2825
  0.2968   0.3055   0.3122   0.3232   0.3295   0.3348   0.3363   0.3410
  0.3521   0.3594   0.3642   0.3797   0.3869   0.3947   0.3963   0.4133
  0.4206   0.4289   0.4426   0.4627   0.4639   0.4845   0.5258   0.5377
  0.5525   0.5680   0.5881   0.5906   0.5972   0.6019   0.6051   0.6137
  0.6281   0.6315   0.6343   0.6515   0.6563   0.6729   0.6858   0.6970
  0.6975   0.7062   0.7191   0.7238   0.7275   0.7380   0.7415   0.7526
  0.7637   0.7679   0.7819   0.7885   0.8002   0.8209   0.8333   0.8384
  0.8493   0.8585   0.8626   0.8720   0.8857   0.9007   0.9041   0.9201
  0.9615   1.0051   1.0109   1.0281   1.0334   1.0518   1.0759   1.1055
  1.1085   1.1204   1.1289   1.1457   1.1523   1.1593   1.1831   1.1970
  1.2090   1.2188   1.2307   1.2387   1.2616   1.2699   1.2884   1.2959
  1.2998   1.3200   1.3506   1.3691   1.3724   1.3812   1.3968   1.4031
  1.4175   1.4201   1.4278   1.4417   1.4537   1.4772   1.4889   1.4935
  1.5057   1.5145   1.5340   1.5413   1.5522   1.5621   1.5819   1.5841
  1.6026   1.6210   1.6299   1.6707   1.6917   1.7168   1.7223   1.7638
  1.7792   1.8035   1.8284   1.8527   1.8671   1.9111   1.9660   1.9876
  2.0002   2.0568   2.0915   2.0954   2.1094   2.1398   2.2077   2.2609
  2.3237   2.3812   2.4239   2.4497   2.4694   2.5773   2.5947   2.6340
  2.6484   2.6655   2.6897   2.7370   2.7614   2.7804   2.8022   2.8065
  2.8173   2.8292   2.8425   2.8564   2.8698   2.8858   2.8866   2.9069
  2.9213   2.9367   2.9433   2.9604   2.9818   2.9894   2.9965   3.0303
  3.0485   3.0795   3.0872   3.1292   3.1578   3.1879   3.1887   3.2039
  3.2105   3.2335   3.2356   3.2616   3.2736   3.2788   3.2974   3.3145
  3.3222   3.3364   3.3647   3.3860   3.4126   3.4351   3.4426   3.4529
  3.4785   3.4797   3.4919   3.4948   3.5007   3.5231   3.5460   3.5579
  3.5895   3.5966   3.6434   3.6596   3.6687   3.6702   3.7084   3.7262
  3.7343   3.7519   3.7906   3.8024   3.8166   3.8449   3.8521   3.8562
  3.8754   3.8795   3.8991   3.9238   3.9262   3.9444   3.9676   3.9875
  4.0004   4.0095   4.0270   4.0615   4.0835   4.1122   4.1321   4.1618
  4.1675   4.1829   4.1997   4.2125   4.2240   4.2535   4.2569   4.2744
  4.3213   4.3393   4.3434   4.3674   4.3927   4.4248   4.4480   4.4655
  4.4802   4.4887   4.4947   4.5096   4.5359   4.5443   4.5930   4.6322
  4.6575   4.6583   4.6649   4.7041   4.7228   4.7307   4.7896   4.8227
  4.9027   4.9941   5.0491   5.1317   5.1552   5.1615   5.2190   5.2460
  5.2768   5.3144   5.3181   5.3668   5.3916   5.4000   5.4607   5.4818
  5.4966   5.5720   5.5824   5.6003   5.6447   5.6821   5.6952   5.7254
  5.7737   5.7830   5.8485   5.8788   5.9229   5.9561   6.0165   6.0657
  6.1859   6.4544   6.5872   6.6461   7.1196   7.1609   7.2898   7.3200
  7.3408   7.3812   7.4289   7.5064   7.6592   7.6862   7.7913   7.8483
 24.2497  24.6257  24.6974  24.8155  24.8731  25.0994  25.4021  50.6033
 50.6689
 
 Beta MOs
 -- Occupied --
-19.3438 -19.3358 -10.4074 -10.3863 -10.3463 -10.3453 -10.3443 -10.3424
-10.3420  -1.1720  -1.1439  -0.9705  -0.8770  -0.8710  -0.7903  -0.7178
 -0.7154  -0.6335  -0.6275  -0.6050  -0.5783  -0.5748  -0.5263  -0.5253
 -0.5209  -0.4773  -0.4636  -0.4522  -0.4368  -0.4280  -0.4040  -0.3797
 -0.3467
 -- Virtual --
 -0.0234   0.0250   0.0346   0.0368   0.0483   0.0543   0.0558   0.0713
  0.0762   0.0840   0.0875   0.1031   0.1135   0.1215   0.1324   0.1421
  0.1439   0.1462   0.1540   0.1560   0.1607   0.1622   0.1660   0.1710
  0.1768   0.1796   0.1888   0.1988   0.2048   0.2075   0.2160   0.2164
  0.2201   0.2269   0.2303   0.2486   0.2524   0.2544   0.2725   0.2777
  0.2829   0.2979   0.3083   0.3152   0.3246   0.3323   0.3381   0.3402
  0.3417   0.3539   0.3604   0.3661   0.3809   0.3874   0.3957   0.3990
  0.4153   0.4229   0.4304   0.4435   0.4640   0.4659   0.4855   0.5271
  0.5397   0.5553   0.5737   0.5916   0.5940   0.5996   0.6070   0.6096
  0.6175   0.6297   0.6329   0.6389   0.6543   0.6603   0.6757   0.6897
  0.7000   0.7016   0.7098   0.7226   0.7282   0.7296   0.7404   0.7476
  0.7574   0.7652   0.7708   0.7849   0.7930   0.8026   0.8246   0.8359
  0.8385   0.8544   0.8626   0.8665   0.8753   0.8903   0.9043   0.9086
  0.9214   0.9631   1.0070   1.0129   1.0304   1.0355   1.0522   1.0780
  1.1062   1.1106   1.1215   1.1298   1.1475   1.1543   1.1619   1.1864
  1.2004   1.2103   1.2186   1.2317   1.2396   1.2636   1.2713   1.2912
  1.2977   1.3011   1.3229   1.3530   1.3707   1.3775   1.3848   1.3992
  1.4077   1.4205   1.4250   1.4323   1.4448   1.4576   1.4802   1.4909
  1.4981   1.5084   1.5164   1.5382   1.5452   1.5553   1.5685   1.5855
  1.5881   1.6048   1.6230   1.6319   1.6737   1.6936   1.7211   1.7262
  1.7676   1.7840   1.8076   1.8371   1.8583   1.8702   1.9152   1.9701
  1.9910   2.0036   2.0643   2.0954   2.0997   2.1118   2.1430   2.2093
  2.2643   2.3256   2.3825   2.4257   2.4508   2.4712   2.5855   2.6012
  2.6466   2.6560   2.6708   2.6991   2.7462   2.7655   2.7940   2.8122
  2.8184   2.8281   2.8353   2.8494   2.8656   2.8804   2.8976   2.9002
  2.9164   2.9370   2.9547   2.9603   2.9696   2.9970   2.9997   3.0134
  3.0515   3.0625   3.0931   3.1046   3.1375   3.1660   3.1943   3.1993
  3.2105   3.2179   3.2418   3.2442   3.2720   3.2830   3.2876   3.3018
  3.3188   3.3329   3.3467   3.3811   3.3961   3.4217   3.4421   3.4522
  3.4582   3.4864   3.4892   3.5015   3.5045   3.5118   3.5350   3.5541
  3.5701   3.6024   3.6086   3.6537   3.6754   3.6775   3.6831   3.7130
  3.7357   3.7429   3.7639   3.8000   3.8098   3.8241   3.8505   3.8606
  3.8638   3.8829   3.8896   3.9071   3.9313   3.9337   3.9564   3.9774
  3.9951   4.0102   4.0191   4.0366   4.0689   4.0922   4.1199   4.1377
  4.1679   4.1744   4.1889   4.2039   4.2216   4.2313   4.2598   4.2615
  4.2819   4.3273   4.3486   4.3493   4.3749   4.3980   4.4299   4.4535
  4.4773   4.4897   4.4971   4.5041   4.5191   4.5444   4.5549   4.6023
  4.6424   4.6642   4.6711   4.6785   4.7132   4.7346   4.7412   4.7991
  4.8327   4.9130   5.0090   5.0622   5.1414   5.1679   5.1725   5.2312
  5.2554   5.2788   5.3153   5.3204   5.3713   5.3960   5.4074   5.4663
  5.4842   5.5015   5.5790   5.5866   5.6044   5.6528   5.6837   5.7032
  5.7278   5.7825   5.7850   5.8655   5.8916   5.9272   5.9641   6.0200
  6.0674   6.1994   6.4646   6.5907   6.6475   7.1205   7.1631   7.2921
  7.3205   7.3421   7.3829   7.4324   7.5093   7.6602   7.6895   7.7923
  7.8525  24.2516  24.6275  24.6983  24.8187  24.8760  25.1010  25.4047
 50.6037  50.6698
 --------------------------------------------------------------
 
          Ground-State Mulliken Net Atomic Charges

     Atom                 Charge (a.u.)    Spin (a.u.)
  --------------------------------------------------------
      1 C                    -0.140004       0.383467
      2 C                    -0.395259      -0.155648
      3 C                    -0.465397       0.529252
      4 C                    -0.311735      -0.153222
      5 C                    -0.166738       0.376720
      6 C                     0.192185      -0.023388
      7 C                    -0.492978       0.026950
      8 H                     0.278680      -0.008176
      9 H                     0.293748       0.004621
     10 H                     0.283847      -0.009270
     11 H                     0.294462       0.004734
     12 H                     0.297852      -0.007703
     13 H                     0.224284       0.002915
     14 O                    -0.420309       0.006692
     15 H                     0.240918       0.001961
     16 H                     0.334261      -0.000385
     17 O                    -0.398673       0.018614
     18 H                     0.350854       0.001866
  --------------------------------------------------------
  Sum of atomic charges =     0.000000
  Sum of spin   charges =     1.000000

 -----------------------------------------------------------------
                    Cartesian Multipole Moments
 -----------------------------------------------------------------
    Charge (ESU x 10^10)
                 0.0000
    Dipole Moment (Debye)
         X       2.3944      Y      -2.7921      Z      -1.0066
       Tot       3.8135
    Quadrupole Moments (Debye-Ang)
        XX     -53.7810     XY       6.7225     YY     -55.8787
        XZ       6.3451     YZ      -1.2561     ZZ     -57.7545
    Octopole Moments (Debye-Ang^2)
       XXX     200.7461    XXY     -13.7119    XYY      65.3800
       YYY     -16.6722    XXZ     -21.2905    XYZ       8.8310
       YYZ      10.0075    XZZ      73.1141    YZZ      -6.4216
       ZZZ     -20.3866
    Hexadecapole Moments (Debye-Ang^3)
      XXXX    -869.0288   XXXY     -34.1752   XXYY    -266.2708
      XYYY     -59.9320   YYYY    -715.4995   XXXZ      80.4494
      XXYZ      22.8904   XYYZ      19.1081   YYYZ     128.8793
      XXZZ    -222.2617   XYZZ     -38.5735   YYZZ    -194.0612
      XZZZ      59.6466   YZZZ     132.3336   ZZZZ    -372.8465
 -----------------------------------------------------------------
 Calculating analytic gradient of the SCF energy
 Gradient of CDS energy
            1           2           3           4           5           6
    1   0.0001362   0.0004000  -0.0000495  -0.0004305  -0.0002272   0.0000070
    2   0.0002237  -0.0001097  -0.0005542  -0.0001480   0.0002010   0.0002171
    3   0.0001701   0.0002364   0.0001584  -0.0001435   0.0000127  -0.0000184
            7           8           9          10          11          12
    1   0.0001722   0.0000649   0.0001505  -0.0000201  -0.0001755  -0.0000921
    2   0.0001437   0.0000644  -0.0000921  -0.0001903  -0.0001060   0.0001749
    3  -0.0010121   0.0000068   0.0001111   0.0000610  -0.0000380  -0.0001141
           13          14          15          16          17          18
    1   0.0000430  -0.0002360  -0.0002175   0.0004799  -0.0000456   0.0000403
    2  -0.0002173  -0.0001021   0.0001378   0.0001674  -0.0002739   0.0004634
    3   0.0001979   0.0001940   0.0001677  -0.0000648  -0.0001142   0.0001889
 Gradient of SCF Energy
            1           2           3           4           5           6
    1  -0.0085030  -0.0040424  -0.0008102   0.0044596   0.0044554  -0.0042244
    2  -0.0030336  -0.0013536   0.0077492   0.0021591  -0.0022625   0.0020645
    3  -0.0037376  -0.0013035  -0.0015147   0.0002610   0.0019197  -0.0003923
            7           8           9          10          11          12
    1   0.0023515   0.0088321   0.0050435  -0.0005251  -0.0038240  -0.0012874
    2   0.0035591   0.0047932  -0.0029971  -0.0059190  -0.0028364   0.0002539
    3   0.0077356   0.0005689   0.0031478   0.0017669  -0.0010097  -0.0021500
           13          14          15          16          17          18
    1   0.0034008  -0.0130787  -0.0030884   0.0121433  -0.0067611   0.0054585
    2  -0.0053386   0.0101674  -0.0001167  -0.0083688   0.0001379   0.0013419
    3  -0.0030144  -0.0097884  -0.0022923   0.0068555   0.0040457  -0.0010982
 Max gradient component =       1.308E-02
 RMS gradient           =       4.981E-03
 Computing fast CPCM-SWIG gradient
 Updating gradient with PCM contributions...
 -- total gradient after adding PCM contribution --
---------------------------------------------------
  Atom         X              Y              Z     
---------------------------------------------------
   1      -0.000041      -0.000077       0.000045
   2       0.000016       0.000083      -0.000010
   3      -0.000051       0.000051      -0.000040
   4       0.000008       0.000010       0.000033
   5       0.000177       0.000015      -0.000042
   6      -0.000336      -0.000249       0.000048
   7      -0.000033      -0.000517      -0.000137
   8      -0.000094      -0.000108      -0.000015
   9      -0.000094       0.000080      -0.000109
  10      -0.000002       0.000127      -0.000040
  11       0.000110       0.000116       0.000031
  12       0.000057      -0.000049       0.000077
  13      -0.000087       0.000209       0.000144
  14       0.000254       0.000172       0.000075
  15       0.000219       0.000044       0.000097
  16      -0.000366       0.000069      -0.000125
  17       0.000482       0.000037       0.000123
  18      -0.000218      -0.000014      -0.000156
---------------------------------------------------
 Number of fixed atoms: 0
 Gradient time:  CPU 320.61 s  wall 45.91 s
 Geometry Optimization Parameters
   NAtoms,    NIC,     NZ,  NCons,   NDum,   NFix, NCnnct, MaxDiis
       18     126       0       0       0       0       0       0

 Cartesian Hessian Update
 Hessian updated using BFGS update


** GEOMETRY OPTIMIZATION IN DELOCALIZED INTERNAL COORDINATES **
   Searching for a Minimum

   Optimization Cycle:   3

                       Coordinates (Angstroms)
     ATOM                X               Y               Z
      1  C        -0.3060050373   -0.1702156841    0.8275595987
      2  C        -0.4618223937   -1.4535897996    1.2350954428
      3  C        -1.6367092558   -2.1790909659    0.9302633358
      4  C        -2.6852552223   -1.5447451604    0.2245809530
      5  C        -2.5754499054   -0.2603178881   -0.1939306395
      6  C        -1.3385868219    0.5508839921    0.0135817110
      7  C        -0.7683589608    0.9387672365   -1.3654463653
      8  H         0.5913318914    0.3841175798    1.0756587471
      9  H         0.3191049470   -1.9317850824    1.8115303770
     10  H        -1.7449732391   -3.2022962660    1.2585431513
     11  H        -3.5960464753   -2.0946928303    0.0276112122
     12  H        -3.3846094350    0.2273316378   -0.7229136402
     13  H        -0.3994325227    0.0497751743   -1.8772843580
     14  O         0.2501701437    1.9265016900   -1.2485096962
     15  H        -1.5655151381    1.3866388890   -1.9568776089
     16  H         1.0554281547    1.5042529720   -0.9311974538
     17  O        -1.7176569571    1.7770254803    0.6788578049
     18  H        -1.0104561721    2.4124620251    0.5000563277
   Point Group: c1    Number of degrees of freedom:    48


   Energy is   -422.531089221

 Hessian updated using BFGS update

 48 Hessian modes will be used to form the next step
  Hessian Eigenvalues:
     0.002865    0.006899    0.010448    0.012281    0.015617    0.017146
     0.019924    0.020649    0.022089    0.023900    0.024389    0.051246
     0.056272    0.059890    0.070902    0.088920    0.113439    0.142964
     0.153443    0.159110    0.159923    0.159983    0.159991    0.159996
     0.160328    0.171711    0.183586    0.218413    0.219887    0.220267
     0.285310    0.308537    0.317811    0.341767    0.344375    0.350090
     0.351071    0.351504    0.352460    0.354628    0.395061    0.408772
     0.417582    0.421973    0.494493    0.520374    0.531015    0.549820

 Minimum search - taking simple RFO step
 Searching for Lamda that Minimizes Along All modes
 Value Taken    Lamda =  -0.00001786
 Step Taken.  Stepsize is  0.061214

                             Maximum     Tolerance    Cnvgd?
         Gradient           0.000454      0.000300      NO
         Displacement       0.030958      0.001200      NO
         Energy change     -0.000034      0.000001      NO


 New Cartesian Coordinates Obtained by Inverse Iteration

 Displacement from previous Coordinates is:  0.079133
 ----------------------------------------------------------------
             Standard Nuclear Orientation (Angstroms)
    I     Atom           X                Y                Z
 ----------------------------------------------------------------
    1      C      -0.3070889495    -0.1656568691     0.8277955410
    2      C      -0.4610236033    -1.4493442913     1.2363146107
    3      C      -1.6343007141    -2.1776288765     0.9306010541
    4      C      -2.6834368167    -1.5458868295     0.2226305997
    5      C      -2.5759883197    -0.2611921496    -0.1966448836
    6      C      -1.3404437475     0.5527230407     0.0121777836
    7      C      -0.7705232938     0.9415694962    -1.3662046579
    8      H       0.5888221039     0.3911330276     1.0762561791
    9      H       0.3200856618    -1.9257086670     1.8145042063
   10      H      -1.7408756231    -3.2009704510     1.2596853433
   11      H      -3.5927437750    -2.0983726960     0.0245472141
   12      H      -3.3851754337     0.2244691992    -0.7277208928
   13      H      -0.4132945856     0.0499402621    -1.8827542411
   14      O       0.2593570103     1.9165289192    -1.2490106368
   15      H      -1.5652624294     1.4000424895    -1.9531451161
   16      H       1.0613773262     1.4840112253    -0.9371468856
   17      O      -1.7247238977     1.7771207233     0.6772069599
   18      H      -1.0096033130     2.4082454470     0.5180867221
 ----------------------------------------------------------------
 Nuclear Repulsion Energy =         447.28352949 hartrees
 There are       34 alpha and       33 beta electrons
 Discretize the solute cavity surface with Lebedev spheres
	Using 110 Lebedev grid points for each H atom
	Using 194 Lebedev grid points for other atoms
	Atomic van der Waals radii will be scaled by 1.20
 Remove points where switching function is < 1.0e-08
 Keep 1304 surface tesserae and discard 1432 interior tesserae
 Molecular Surface Area = 151.653 Angst**2
 Applying Cartesian multipole field
    Component          Value
    ---------          -----
     (2,0,0)        1.00000E-11
     (0,2,0)        2.00000E-11
     (0,0,2)       -3.00000E-11
 Nucleus-field energy     =     0.0000000100 hartrees
 Requested basis set is 6-311++G(2df,2p)
 There are 126 shells and 396 basis functions
 A cutoff of  1.0D-12 yielded   7366 shell pairs
 There are     73534 function pairs (     91283 Cartesian)
 Smallest overlap matrix eigenvalue = 7.44E-07
 Linear dependence detected in AO basis
 Tighter screening thresholds may be required for diffuse basis sets
 Use S2THRESH > 14 and THRESH = 14 in case of SCF convergence issues
 Number of orthogonalized atomic orbitals = 395
 Maximum deviation from orthogonality = 4.165E-11
 Guess MOs from SCF MO coefficient file

 -----------------------------------------------------------------------
  General SCF calculation program by
  Eric Jon Sundstrom, Paul Horn, Yuezhi Mao, Dmitri Zuev, Alec White,
  David Stuck, Shaama M.S., Shane Yost, Joonho Lee, David Small,
  Daniel Levine, Susi Lehtola, Hugh Burton, Evgeny Epifanovsky,
  Bang C. Huynh
 -----------------------------------------------------------------------
 Exchange:     0.1500 Hartree-Fock + 1.0000 wB97M-V + LR-HF
 Correlation:  1.0000 wB97M-V
 Using SG-2 standard quadrature grid
 Nonlocal Correlation:  VV10 with C = 0.0100 and b = 6.00 and scale = 1.00000
 Grid used for NLC:  SG-1 standard quadrature
 
 Citation of the SMD model:
 Marenich, A.V.; Cramer, C.J.; Truhlar, D.G.
 J. Phys. Chem. B 2009, 113, 6378-6396.
 iSolventCode=           1
[...]
     18 H                     0.352326       0.001839
  --------------------------------------------------------
  Sum of atomic charges =     0.000000
  Sum of spin   charges =     1.000000

 -----------------------------------------------------------------
                    Cartesian Multipole Moments
 -----------------------------------------------------------------
    Charge (ESU x 10^10)
                 0.0000
    Dipole Moment (Debye)
         X       2.4056      Y      -2.8211      Z      -0.9280
       Tot       3.8219
    Quadrupole Moments (Debye-Ang)
        XX     -53.8961     XY       6.7418     YY     -55.9497
        XZ       6.3214     YZ      -1.0719     ZZ     -57.6303
    Octopole Moments (Debye-Ang^2)
       XXX     201.1540    XXY     -14.0770    XYY      65.3914
       YYY     -16.9992    XXZ     -21.3085    XYZ       8.7538
       YYZ      10.5195    XZZ      73.0562    YZZ      -6.2167
       ZZZ     -19.9742
    Hexadecapole Moments (Debye-Ang^3)
      XXXX    -871.0233   XXXY     -33.2379   XXYY    -266.8462
      XYYY     -59.3028   YYYY    -713.9977   XXXZ      80.5097
      XXYZ      22.9284   XYYZ      18.8763   YYYZ     129.5337
      XXZZ    -222.5354   XYZZ     -38.6683   YYZZ    -193.0078
      XZZZ      59.3759   YZZZ     132.1838   ZZZZ    -373.5775
 -----------------------------------------------------------------
 Calculating analytic gradient of the SCF energy
 Gradient of CDS energy
            1           2           3           4           5           6
    1   0.0001339   0.0003998  -0.0000483  -0.0004297  -0.0002270   0.0000063
    2   0.0002202  -0.0001082  -0.0005539  -0.0001489   0.0001992   0.0002170
    3   0.0001695   0.0002372   0.0001597  -0.0001443   0.0000108  -0.0000188
            7           8           9          10          11          12
    1   0.0001699   0.0000634   0.0001507  -0.0000198  -0.0001753  -0.0000927
    2   0.0001555   0.0000659  -0.0000917  -0.0001904  -0.0001067   0.0001745
    3  -0.0010089   0.0000048   0.0001117   0.0000615  -0.0000382  -0.0001141
           13          14          15          16          17          18
    1   0.0000407  -0.0002317  -0.0002177   0.0004819  -0.0000434   0.0000392
    2  -0.0002198  -0.0001013   0.0001388   0.0001606  -0.0002730   0.0004623
    3   0.0001953   0.0001995   0.0001700  -0.0000707  -0.0001176   0.0001926
 Gradient of SCF Energy
            1           2           3           4           5           6
    1  -0.0085729  -0.0041578  -0.0007945   0.0045154   0.0041843  -0.0036744
    2  -0.0030013  -0.0014643   0.0077409   0.0023271  -0.0022575   0.0021422
    3  -0.0035606  -0.0012600  -0.0015139   0.0002051   0.0018266  -0.0005867
            7           8           9          10          11          12
    1   0.0023191   0.0089923   0.0051944  -0.0005229  -0.0039515  -0.0013334
    2   0.0040947   0.0050177  -0.0031015  -0.0060813  -0.0029718   0.0002980
    3   0.0077049   0.0006565   0.0033182   0.0018405  -0.0010287  -0.0021962
           13          14          15          16          17          18
    1   0.0033592  -0.0133245  -0.0031600   0.0124400  -0.0075165   0.0060036
    2  -0.0055261   0.0102338  -0.0002290  -0.0086566   0.0000503   0.0013849
    3  -0.0031637  -0.0097856  -0.0022852   0.0068431   0.0036155  -0.0006298
 Max gradient component =       1.332E-02
 RMS gradient           =       5.069E-03
 Computing fast CPCM-SWIG gradient
 Updating gradient with PCM contributions...
 -- total gradient after adding PCM contribution --
---------------------------------------------------
  Atom         X              Y              Z     
---------------------------------------------------
   1      -0.000003      -0.000034       0.000017
   2      -0.000003       0.000009      -0.000017
   3      -0.000004       0.000015       0.000000
   4       0.000002       0.000029       0.000007
   5      -0.000041      -0.000031       0.000001
   6       0.000039       0.000049       0.000004
   7       0.000067       0.000083       0.000035
   8       0.000010       0.000001      -0.000010
   9      -0.000000      -0.000015      -0.000001
  10      -0.000010       0.000002       0.000006
  11      -0.000016       0.000008       0.000013
  12      -0.000000       0.000018       0.000011
  13      -0.000017      -0.000035      -0.000019
  14      -0.000081      -0.000065      -0.000071
  15      -0.000008       0.000012       0.000001
  16       0.000021      -0.000023       0.000021
  17       0.000011      -0.000041       0.000005
  18       0.000034       0.000018      -0.000004
---------------------------------------------------
 Number of fixed atoms: 0
 Gradient time:  CPU 320.31 s  wall 45.99 s
 Geometry Optimization Parameters
   NAtoms,    NIC,     NZ,  NCons,   NDum,   NFix, NCnnct, MaxDiis
       18     126       0       0       0       0       0       0

 Cartesian Hessian Update
 Hessian updated using BFGS update


** GEOMETRY OPTIMIZATION IN DELOCALIZED INTERNAL COORDINATES **
   Searching for a Minimum

   Optimization Cycle:   6

                       Coordinates (Angstroms)
     ATOM                X               Y               Z
      1  C        -0.3078310227   -0.1644196543    0.8268813898
      2  C        -0.4614953476   -1.4475241448    1.2368322324
      3  C        -1.6342088633   -2.1764041516    0.9313925925
      4  C        -2.6831758041   -1.5459870036    0.2222149615
      5  C        -2.5761197590   -0.2619514340   -0.1983901968
      6  C        -1.3411895213    0.5530839377    0.0102954824
      7  C        -0.7705979294    0.9417319298   -1.3678783904
      8  H         0.5877298026    0.3929082172    1.0755982680
      9  H         0.3194227059   -1.9229921808    1.8159840550
     10  H        -1.7405915389   -3.1993800117    1.2616018488
     11  H        -3.5920840748   -2.0992055524    0.0243966821
     12  H        -3.3853628211    0.2227058277   -0.7303132190
     13  H        -0.4141564047    0.0502950539   -1.8856057985
     14  O         0.2602172607    1.9156834194   -1.2505439927
     15  H        -1.5657596448    1.4003337908   -1.9543855575
     16  H         1.0629493795    1.4816124218   -0.9419391430
     17  O        -1.7283520013    1.7771363819    0.6750258395
     18  H        -1.0042368153    2.4033961530    0.5360118459
   Point Group: c1    Number of degrees of freedom:    48


   Energy is   -422.531104049

 Hessian updated using BFGS update

 48 Hessian modes will be used to form the next step
  Hessian Eigenvalues:
     0.002669    0.006526    0.010287    0.011158    0.015675    0.017210
     0.019927    0.020652    0.022092    0.023879    0.024435    0.054373
     0.056479    0.060117    0.070663    0.087963    0.113687    0.135201
     0.149049    0.158885    0.159923    0.159967    0.159983    0.159995
     0.164487    0.173310    0.182457    0.215350    0.220030    0.220553
     0.284444    0.306698    0.315907    0.339950    0.343523    0.349953
     0.351035    0.351505    0.352569    0.355364    0.397692    0.413565
     0.418030    0.419987    0.494478    0.515233    0.533716    0.570291

 Minimum search - taking simple RFO step
 Searching for Lamda that Minimizes Along All modes
 Value Taken    Lamda =  -0.00000018
 Step Taken.  Stepsize is  0.003254

                             Maximum     Tolerance    Cnvgd?
         Gradient           0.000055      0.000300     YES
         Displacement       0.002134      0.001200      NO
         Energy change     -0.000001      0.000001     YES

 Final energy is   -422.531104049487     


 ******************************
 **  OPTIMIZATION CONVERGED  **
 ******************************

                       Coordinates (Angstroms)
     ATOM                X               Y               Z
      1  C        -0.3078310227   -0.1644196543    0.8268813898
      2  C        -0.4614953476   -1.4475241448    1.2368322324
      3  C        -1.6342088633   -2.1764041516    0.9313925925
      4  C        -2.6831758041   -1.5459870036    0.2222149615
      5  C        -2.5761197590   -0.2619514340   -0.1983901968
      6  C        -1.3411895213    0.5530839377    0.0102954824
      7  C        -0.7705979294    0.9417319298   -1.3678783904
      8  H         0.5877298026    0.3929082172    1.0755982680
      9  H         0.3194227059   -1.9229921808    1.8159840550
     10  H        -1.7405915389   -3.1993800117    1.2616018488
     11  H        -3.5920840748   -2.0992055524    0.0243966821
     12  H        -3.3853628211    0.2227058277   -0.7303132190
     13  H        -0.4141564047    0.0502950539   -1.8856057985
     14  O         0.2602172607    1.9156834194   -1.2505439927
     15  H        -1.5657596448    1.4003337908   -1.9543855575
     16  H         1.0629493795    1.4816124218   -0.9419391430
     17  O        -1.7283520013    1.7771363819    0.6750258395
     18  H        -1.0042368153    2.4033961530    0.5360118459

Z-matrix Print:
$molecule
0 2
C 
O  1 1.445706
H  2 0.967403 1 106.354759
C  1 1.494284 2 107.740257 3 -161.331740 0
H  4 1.082917 1 116.236003 2 55.173238 0
C  4 1.355403 1 122.592065 2 -126.217434 0
H  6 1.082265 4 119.594938 1 -178.537067 0
C  6 1.414458 4 121.281196 1 2.235158 0
H  8 1.080201 6 120.153278 4 179.748813 0
C  8 1.414149 6 119.575010 4 1.478759 0
H  10 1.082275 8 119.176916 6 177.425230 0
C  10 1.355739 8 121.096916 6 -1.972790 0
H  12 1.083745 10 120.728822 8 179.179187 0
C  1 1.541423 2 107.262753 3 -44.608579 0
H  14 1.089306 1 108.501813 2 -63.890007 0
H  14 1.090758 1 109.833301 2 176.945555 0
O  14 1.423000 1 111.530641 2 53.183748 0
H  17 0.963345 14 108.762021 1 76.232411 0
$end

 
 --------------------------------------------------------------
 
                    Orbital Energies (a.u.)
 --------------------------------------------------------------
 
 Alpha MOs
 -- Occupied --
-19.3436 -19.3375 -10.4068 -10.3873 -10.3521 -10.3479 -10.3475 -10.3439
-10.3429  -1.1731  -1.1461  -0.9772  -0.8835  -0.8765  -0.7987  -0.7230
 -0.7209  -0.6372  -0.6308  -0.6067  -0.5843  -0.5776  -0.5290  -0.5282
 -0.5240  -0.4845  -0.4682  -0.4635  -0.4420  -0.4382  -0.4103  -0.3869
 -0.3627  -0.2704
 -- Virtual --
  0.0253   0.0349   0.0371   0.0481   0.0543   0.0561   0.0639   0.0730
  0.0791   0.0872   0.1036   0.1133   0.1229   0.1298   0.1416   0.1427
  0.1470   0.1523   0.1548   0.1607   0.1620   0.1648   0.1708   0.1764
  0.1796   0.1877   0.1947   0.2051   0.2062   0.2160   0.2164   0.2195
  0.2204   0.2292   0.2491   0.2523   0.2547   0.2723   0.2770   0.2822
  0.2972   0.3048   0.3118   0.3233   0.3293   0.3355   0.3364   0.3412
  0.3520   0.3590   0.3644   0.3802   0.3871   0.3944   0.3965   0.4138
  0.4206   0.4289   0.4422   0.4623   0.4630   0.4824   0.5258   0.5376
  0.5520   0.5677   0.5878   0.5906   0.5970   0.6018   0.6051   0.6136
  0.6274   0.6317   0.6342   0.6517   0.6561   0.6735   0.6880   0.6967
  0.6977   0.7060   0.7208   0.7232   0.7272   0.7376   0.7417   0.7513
  0.7618   0.7673   0.7811   0.7901   0.8003   0.8223   0.8324   0.8381
  0.8488   0.8575   0.8628   0.8716   0.8856   0.9029   0.9035   0.9189
  0.9619   1.0061   1.0126   1.0282   1.0326   1.0529   1.0760   1.1051
  1.1085   1.1193   1.1265   1.1460   1.1511   1.1598   1.1827   1.1962
  1.2106   1.2195   1.2316   1.2379   1.2622   1.2696   1.2894   1.2963
  1.2988   1.3204   1.3523   1.3695   1.3719   1.3814   1.3949   1.4028
  1.4164   1.4208   1.4276   1.4415   1.4528   1.4765   1.4886   1.4911
  1.5074   1.5133   1.5349   1.5414   1.5540   1.5615   1.5803   1.5837
  1.6035   1.6194   1.6321   1.6699   1.6893   1.7189   1.7222   1.7637
  1.7789   1.8029   1.8275   1.8537   1.8671   1.9082   1.9635   1.9914
  2.0011   2.0566   2.0915   2.0966   2.1093   2.1391   2.2094   2.2558
  2.3228   2.3810   2.4248   2.4423   2.4677   2.5769   2.5943   2.6336
  2.6483   2.6651   2.6901   2.7396   2.7631   2.7803   2.8023   2.8059
  2.8184   2.8293   2.8428   2.8548   2.8693   2.8857   2.8864   2.9067
  2.9213   2.9356   2.9438   2.9602   2.9820   2.9904   2.9988   3.0299
  3.0507   3.0782   3.0873   3.1305   3.1584   3.1873   3.1894   3.2062
  3.2109   3.2329   3.2348   3.2619   3.2727   3.2774   3.2969   3.3145
  3.3218   3.3366   3.3645   3.3855   3.4133   3.4350   3.4418   3.4541
  3.4786   3.4794   3.4907   3.4944   3.5007   3.5216   3.5449   3.5563
  3.5890   3.5962   3.6440   3.6582   3.6677   3.6715   3.7085   3.7265
  3.7343   3.7512   3.7898   3.8014   3.8166   3.8449   3.8530   3.8557
  3.8734   3.8803   3.8993   3.9240   3.9260   3.9447   3.9680   3.9876
  3.9996   4.0088   4.0270   4.0615   4.0831   4.1094   4.1309   4.1619
  4.1676   4.1831   4.1994   4.2130   4.2245   4.2549   4.2571   4.2728
  4.3193   4.3373   4.3431   4.3673   4.3935   4.4249   4.4449   4.4651
  4.4797   4.4879   4.4950   4.5088   4.5341   4.5428   4.5919   4.6318
  4.6537   4.6578   4.6657   4.7045   4.7225   4.7299   4.7893   4.8217
  4.9014   4.9933   5.0486   5.1301   5.1554   5.1601   5.2173   5.2458
  5.2775   5.3157   5.3172   5.3651   5.3896   5.3983   5.4617   5.4843
  5.4967   5.5703   5.5837   5.6017   5.6417   5.6784   5.6970   5.7248
  5.7715   5.7799   5.8474   5.8786   5.9223   5.9556   6.0155   6.0675
  6.1843   6.4525   6.5869   6.6489   7.1196   7.1610   7.2908   7.3189
  7.3389   7.3785   7.4263   7.4984   7.6617   7.6866   7.7921   7.8472
 24.2497  24.6246  24.6958  24.8147  24.8727  25.0983  25.4008  50.6021
 50.6693
 
 Beta MOs
 -- Occupied --
-19.3434 -19.3361 -10.4075 -10.3861 -10.3465 -10.3455 -10.3444 -10.3425
-10.3421  -1.1715  -1.1442  -0.9705  -0.8770  -0.8709  -0.7901  -0.7180
 -0.7152  -0.6336  -0.6275  -0.6044  -0.5783  -0.5741  -0.5264  -0.5254
 -0.5210  -0.4784  -0.4637  -0.4519  -0.4359  -0.4276  -0.4047  -0.3790
 -0.3469
 -- Virtual --
 -0.0234   0.0250   0.0346   0.0368   0.0482   0.0543   0.0559   0.0711
  0.0761   0.0839   0.0876   0.1032   0.1132   0.1221   0.1322   0.1423
  0.1440   0.1462   0.1541   0.1558   0.1607   0.1621   0.1661   0.1708
  0.1767   0.1795   0.1890   0.1984   0.2047   0.2074   0.2161   0.2162
  0.2200   0.2269   0.2301   0.2488   0.2525   0.2538   0.2725   0.2775
  0.2826   0.2982   0.3077   0.3148   0.3247   0.3322   0.3383   0.3406
  0.3421   0.3539   0.3600   0.3664   0.3813   0.3876   0.3955   0.3992
  0.4158   0.4228   0.4303   0.4431   0.4634   0.4653   0.4833   0.5272
  0.5396   0.5548   0.5734   0.5911   0.5945   0.5996   0.6067   0.6093
  0.6174   0.6296   0.6329   0.6385   0.6546   0.6600   0.6769   0.6913
  0.7001   0.7013   0.7097   0.7242   0.7277   0.7296   0.7401   0.7478
  0.7561   0.7633   0.7700   0.7840   0.7946   0.8028   0.8256   0.8361
  0.8374   0.8536   0.8619   0.8668   0.8748   0.8904   0.9069   0.9074
  0.9202   0.9636   1.0083   1.0143   1.0304   1.0346   1.0534   1.0781
  1.1062   1.1103   1.1203   1.1275   1.1479   1.1531   1.1624   1.1860
  1.1997   1.2116   1.2195   1.2327   1.2389   1.2641   1.2712   1.2919
  1.2975   1.3007   1.3233   1.3546   1.3712   1.3768   1.3848   1.3975
  1.4075   1.4191   1.4255   1.4322   1.4448   1.4566   1.4793   1.4902
  1.4964   1.5100   1.5152   1.5390   1.5456   1.5568   1.5678   1.5845
  1.5872   1.6057   1.6214   1.6343   1.6729   1.6912   1.7231   1.7261
  1.7675   1.7837   1.8072   1.8358   1.8592   1.8704   1.9125   1.9677
  1.9947   2.0045   2.0640   2.0952   2.1012   2.1116   2.1423   2.2111
  2.2592   2.3247   2.3822   2.4265   2.4434   2.4695   2.5851   2.6008
  2.6462   2.6561   2.6700   2.6995   2.7489   2.7674   2.7937   2.8118
  2.8192   2.8281   2.8357   2.8496   2.8637   2.8802   2.8974   2.8999
  2.9163   2.9365   2.9541   2.9609   2.9697   2.9989   2.9996   3.0146
  3.0510   3.0645   3.0918   3.1048   3.1389   3.1666   3.1951   3.1987
  3.2129   3.2181   3.2415   3.2426   3.2727   3.2818   3.2867   3.3009
  3.3191   3.3322   3.3475   3.3809   3.3958   3.4222   3.4419   3.4515
  3.4593   3.4864   3.4887   3.5011   3.5036   3.5118   3.5330   3.5530
  3.5690   3.6022   3.6083   3.6548   3.6727   3.6781   3.6835   3.7132
  3.7359   3.7430   3.7633   3.7990   3.8088   3.8241   3.8506   3.8611
  3.8634   3.8817   3.8898   3.9072   3.9319   3.9335   3.9562   3.9779
  3.9952   4.0094   4.0185   4.0367   4.0690   4.0917   4.1171   4.1365
  4.1680   4.1746   4.1891   4.2035   4.2219   4.2318   4.2603   4.2629
  4.2802   4.3252   4.3467   4.3491   4.3748   4.3989   4.4300   4.4504
  4.4770   4.4889   4.4966   4.5043   4.5185   4.5424   4.5535   4.6014
  4.6419   4.6606   4.6707   4.6796   4.7134   4.7345   4.7402   4.7987
  4.8318   4.9116   5.0083   5.0617   5.1397   5.1680   5.1713   5.2296
  5.2551   5.2795   5.3169   5.3192   5.3697   5.3935   5.4061   5.4672
  5.4866   5.5017   5.5780   5.5873   5.6058   5.6500   5.6800   5.7048
  5.7275   5.7796   5.7824   5.8646   5.8915   5.9266   5.9632   6.0191
  6.0693   6.1978   6.4627   6.5904   6.6503   7.1205   7.1633   7.2929
  7.3194   7.3403   7.3803   7.4296   7.5014   7.6627   7.6899   7.7931
  7.8515  24.2516  24.6264  24.6967  24.8179  24.8756  25.0999  25.4034
 50.6026  50.6703
 --------------------------------------------------------------
 
          Ground-State Mulliken Net Atomic Charges

     Atom                 Charge (a.u.)    Spin (a.u.)
  --------------------------------------------------------
      1 C                    -0.145024       0.383984
      2 C                    -0.391335      -0.156083
      3 C                    -0.459639       0.529335
      4 C                    -0.311698      -0.153112
      5 C                    -0.171677       0.377003
      6 C                     0.199999      -0.023630
      7 C                    -0.498852       0.026618
      8 H                     0.278717      -0.008156
      9 H                     0.293441       0.004638
     10 H                     0.283922      -0.009276
     11 H                     0.294420       0.004731
     12 H                     0.297385      -0.007708
     13 H                     0.224598       0.002901
     14 O                    -0.422157       0.006535
     15 H                     0.240763       0.002036
     16 H                     0.334558      -0.000403
     17 O                    -0.399746       0.018747
     18 H                     0.352326       0.001839
  --------------------------------------------------------
  Sum of atomic charges =     0.000000
  Sum of spin   charges =     1.000000

 -----------------------------------------------------------------
                    Cartesian Multipole Moments
 -----------------------------------------------------------------
    Charge (ESU x 10^10)
                 0.0000
    Dipole Moment (Debye)
         X       2.4056      Y      -2.8211      Z      -0.9280
       Tot       3.8219
    Quadrupole Moments (Debye-Ang)
        XX     -53.8961     XY       6.7418     YY     -55.9497
        XZ       6.3214     YZ      -1.0719     ZZ     -57.6303
    Octopole Moments (Debye-Ang^2)
       XXX     201.1540    XXY     -14.0770    XYY      65.3914
       YYY     -16.9992    XXZ     -21.3085    XYZ       8.7538
       YYZ      10.5195    XZZ      73.0562    YZZ      -6.2167
       ZZZ     -19.9742
    Hexadecapole Moments (Debye-Ang^3)
      XXXX    -871.0233   XXXY     -33.2379   XXYY    -266.8462
      XYYY     -59.3028   YYYY    -713.9977   XXXZ      80.5097
      XXYZ      22.9284   XYYZ      18.8763   YYYZ     129.5337
      XXZZ    -222.5354   XYZZ     -38.6683   YYZZ    -193.0078
      XZZZ      59.3759   YZZZ     132.1838   ZZZZ    -373.5775
 -----------------------------------------------------------------
 Total job time:  1795.63s(wall), 13878.18s(cpu) 
 Wed Dec 14 19:47:37 2022

        *************************************************************
        *                                                           *
        *  Thank you very much for using Q-Chem.  Have a nice day.  *
        *                                                           *
        *************************************************************


