
Running Job 1 of 2 Q_in.in
qchem Q_in.in_49144.0 /scratch/ari.fischer/qChem2233436.hpc-mn1/qchem49144/ 0
/usr/local/qchem-5.4.1/exe/qcprog.exe_s Q_in.in_49144.0 /scratch/ari.fischer/qChem2233436.hpc-mn1/qchem49144/
                  Welcome to Q-Chem
     A Quantum Leap Into The Future Of Chemistry


 Q-Chem 5.4, Q-Chem, Inc., Pleasanton, CA (2021)

 License issued to: Nanyang Technological University (site)

 E. Epifanovsky,  A. T. B. Gilbert,  Xintian Feng,  Joonho Lee,  Yuezhi Mao,  
 N. Mardirossian,  P. Pokhilko,  A. White,  M. Wormit,  M. P. Coons,  
 A. L. Dempwolff,  Zhengting Gan,  D. Hait,  P. R. Horn,  L. D. Jacobson,  
 I. Kaliman,  J. Kussmann,  A. W. Lange,  Ka Un Lao,  D. S. Levine,  Jie Liu,  
 S. C. McKenzie,  A. F. Morrison,  K. Nanda,  F. Plasser,  D. R. Rehn,  
 M. L. Vidal,  Zhi-Qiang You,  Ying Zhu,  B. Alam,  B. Albrecht,  
 A. Aldossary,  E. Alguire,  J. H. Andersen,  D. Barton,  K. Begam,  A. Behn,  
 Y. A. Bernard,  E. J. Berquist,  H. Burton,  A. Carreras,  K. Carter-Fenk,  
 R. Chakraborty,  A. D. Chien,  K. D. Closser,  V. Cofer-Shabica,  
 S. Dasgupta,  Jia Deng,  M. de Wergifosse,  M. Diedenhofen,  Hainam Do,  
 S. Ehlert,  Po-Tung Fang,  S. Fatehi,  Qingguo Feng,  T. Friedhoff,  
 J. Gayvert,  Qinghui Ge,  G. Gidofalvi,  M. Goldey,  J. Gomes,  
 C. Gonzalez-Espinoza,  S. Gulania,  A. Gunina,  M. W. D. Hanson-Heine,  
 P. H. P. Harbach,  A. W. Hauser,  M. F. Herbst,  M. Hernandez Vera,  
 M. Hodecker,  Z. C. Holden,  S. Houck,  Xunkun Huang,  Kerwin Hui,  
 B. C. Huynh,  M. Ivanov,  Hyunjun Ji,  Hanjie Jiang,  B. Kaduk,  S. Kaehler,  
 K. Khistyaev,  Jaehoon Kim,  P. Klunzinger,  Z. Koczor-Benda,  
 Joong Hoon Koh,  D. Kosenkov,  L. Koulias,  T. Kowalczyk,  C. M. Krauter,  
 K. Kue,  A. Kunitsa,  T. Kus,  A. Landau,  K. V. Lawler,  D. Lefrancois,  
 S. Lehtola,  Rain Li,  Yi-Pei Li,  Jiashu Liang,  M. Liebenthal,  
 Hung-Hsuan Lin,  You-Sheng Lin,  Fenglai Liu,  Kuan-Yu Liu,  
 M. Loipersberger,  A. Luenser,  A. Manjanath,  P. Manohar,  E. Mansoor,  
 S. F. Manzer,  Shan-Ping Mao,  A. V. Marenich,  T. Markovich,  S. Mason,  
 S. A. Maurer,  P. F. McLaughlin,  M. F. S. J. Menger,  J.-M. Mewes,  
 S. A. Mewes,  P. Morgante,  J. W. Mullinax,  K. J. Oosterbaan,  G. Paran,  
 Alexander C. Paul,  Suranjan K. Paul,  F. Pavosevic,  Zheng Pei,  S. Prager,  
 E. I. Proynov,  E. Ramos,  B. Rana,  A. E. Rask,  A. Rettig,  R. M. Richard,  
 F. Rob,  E. Rossomme,  T. Scheele,  M. Scheurer,  M. Schneider,  
 N. Sergueev,  S. M. Sharada,  W. Skomorowski,  D. W. Small,  C. J. Stein,  
 Yu-Chuan Su,  E. J. Sundstrom,  Zhen Tao,  J. Thirman,  T. Tsuchimochi,  
 N. M. Tubman,  S. P. Veccham,  O. Vydrov,  J. Wenzel,  J. Witte,  A. Yamada,  
 Kun Yao,  S. Yeganeh,  S. R. Yost,  A. Zech,  Igor Ying Zhang,  Xing Zhang,  
 Yu Zhang,  D. Zuev,  A. Aspuru-Guzik,  A. T. Bell,  N. A. Besley,  
 K. B. Bravaya,  B. R. Brooks,  D. Casanova,  Jeng-Da Chai,  S. Coriani,  
 C. J. Cramer,  A. E. DePrince, III,  R. A. DiStasio Jr.,  A. Dreuw,  
 B. D. Dunietz,  T. R. Furlani,  W. A. Goddard III,  S. Grimme,  
 S. Hammes-Schiffer,  T. Head-Gordon,  W. J. Hehre,  Chao-Ping Hsu,  
 T.-C. Jagau,  Yousung Jung,  A. Klamt,  Jing Kong,  D. S. Lambrecht,  
 WanZhen Liang,  N. J. Mayhall,  C. W. McCurdy,  J. B. Neaton,  
 C. Ochsenfeld,  J. A. Parkhill,  R. Peverati,  V. A. Rassolov,  Yihan Shao,  
 L. V. Slipchenko,  T. Stauch,  R. P. Steele,  J. E. Subotnik,  
 A. J. W. Thom,  A. Tkatchenko,  D. G. Truhlar,  T. Van Voorhis,  
 T. A. Wesolowski,  K. B. Whaley,  H. L. Woodcock III,  P. M. Zimmerman,  
 S. Faraji,  P. M. W. Gill,  M. Head-Gordon,  J. M. Herbert,  A. I. Krylov

 Additional authors for Version 5.4.1: 
 S. Kotaru,  Shaozhi Li,  Xiangyuan Li,  F. Matz,  A. Molle,  Haisheng Ren,  
 Yingli Su,  Hung-Yi Tsai,  C. Utku,  Fang Wang

 Contributors to earlier versions of Q-Chem not listed above: 
 R. D. Adamson,  B. Austin,  R. Baer,  J. Baker,  G. J. O. Beran,  
 K. Brandhorst,  S. T. Brown,  E. F. C. Byrd,  A. K. Chakraborty,  
 G. K. L. Chan,  Chun-Min Chang,  Yunqing Chen,  C.-L. Cheng,  
 Siu Hung Chien,  D. M. Chipman,  D. L. Crittenden,  H. Dachsel,  
 R. J. Doerksen,  A. D. Dutoi,  R. G. Edgar,  J. Fosso-Tande,  
 L. Fusti-Molnar,  D. Ghosh,  A. Ghysels,  A. Golubeva-Zadorozhnaya,  
 J. Gonthier,  M. S. Gordon,  S. R. Gwaltney,  G. Hawkins,  J. E. Herr,  
 A. Heyden,  S. Hirata,  E. G. Hohenstein,  G. Kedziora,  F. J. Keil,  
 C. Kelley,  Jihan Kim,  R. A. King,  R. Z. Khaliullin,  P. P. Korambath,  
 W. Kurlancheek,  A. Laurent,  A. M. Lee,  M. S. Lee,  S. V. Levchenko,  
 Ching Yeh Lin,  D. Liotard,  E. Livshits,  R. C. Lochan,  I. Lotan,  
 L. A. Martinez-Martinez,  P. E. Maslen,  N. Nair,  D. P. O'Neill,  
 D. Neuhauser,  E. Neuscamman,  C. M. Oana,  R. Olivares-Amaya,  R. Olson,  
 T. M. Perrine,  B. Peters,  P. A. Pieniazek,  A. Prociuk,  Y. M. Rhee,  
 J. Ritchie,  M. A. Rohrdanz,  E. Rosta,  N. J. Russ,  H. F. Schaefer III,  
 M. W. Schmidt,  N. E. Schultz,  S. Sharma,  N. Shenvi,  C. D. Sherrill,  
 A. C. Simmonett,  A. Sodt,  T. Stein,  D. Stuck,  K. S. Thanthiriwatte,  
 V. Vanovschi,  L. Vogt,  Tao Wang,  A. Warshel,  M. A. Watson,  
 C. F. Williams,  Q. Wu,  X. Xu,  Jun Yang,  W. Zhang,  Yan Zhao

 Please cite Q-Chem as follows:
 Y. Shao et al., Mol. Phys. 113, 184-215 (2015)
 DOI: 10.1080/00268976.2014.952696

 Q-Chem 5.4.1 for Intel X86 EM64T Linux

 Parts of Q-Chem use Armadillo 9.800.1 (Horizon Scraper).
 http://arma.sourceforge.net/

 Q-Chem begins on Thu Jul 11 21:15:24 2024  

 Host: 
0

     Scratch files written to /scratch/ari.fischer/qChem2233436.hpc-mn1/qchem49144//
 Aug1521 |scratch|qcdevops|jenkins|workspace|build_RNUM 8249   
 Processing $rem in /usr/local/qchem-5.4.1/config/preferences:
 Processing $rem in /home/ari.fischer/.qchemrc:
 Symmetry turned off for PCM/SM12/SMD calculation


!!********************************************.
!!******************Warning*******************.
!!Desired Analytical derivatives not available.
!!Finite difference job might take a long time.
!!********************************************.
!!********************************************.


 2-order derivative to be evaluated numerically with 1-order analytical derivatives

 Checking the input file for inconsistencies... 	...done.

--------------------------------------------------------------
User input:
--------------------------------------------------------------
$molecule
0 2
O    3.2728655   -1.1272789   -0.4413443
C    2.3843854   -0.0626282   -0.1648973
C    2.8693129    0.9475516    0.8576887
O    2.1160263    1.8986981    1.1195014
C    4.1465244    0.7642275    1.4725948
C    4.8557377    1.6830578    2.4062115
C    4.0576264    2.8455988    2.9893513
O    2.9521921    2.4139577    3.7565897
O    4.9281462    3.5569677    3.8290237
H    3.2366653   -1.7565474    0.2867858
H    1.4130692   -0.4272403    0.1757466
H    2.2255828    0.4817604   -1.0955043
H    4.6867517   -0.1397818    1.2320076
H    5.7117004    2.1182582    1.8783691
H    3.7160618    3.4746774    2.1676357
H    2.2347646    2.2510865    3.1275664
H    4.5222193    4.4105672    4.0180663
O    5.5508814    0.5970827    3.8132834
O    6.6352206   -0.2086685    3.3599061
H    7.3973760    0.3740087    3.4994576
$end

$rem
BASIS = 6-311++G(2df,2p)
GUI = 2
JOB_TYPE = Frequency
METHOD = wB97M-V
SCF_ALGORITHM = DIIS_GDM
MAX_SCF_CYCLES = 400
SCF_CONVERGENCE = 6
THRESH = 11
solvent_method = SMD
$end

--------------------------------------------------------------
 ----------------------------------------------------------------
             Standard Nuclear Orientation (Angstroms)
    I     Atom           X                Y                Z
 ----------------------------------------------------------------
    1      O       3.2728655000    -1.1272789000    -0.4413443000
    2      C       2.3843854000    -0.0626282000    -0.1648973000
    3      C       2.8693129000     0.9475516000     0.8576887000
    4      O       2.1160263000     1.8986981000     1.1195014000
    5      C       4.1465244000     0.7642275000     1.4725948000
    6      C       4.8557377000     1.6830578000     2.4062115000
    7      C       4.0576264000     2.8455988000     2.9893513000
    8      O       2.9521921000     2.4139577000     3.7565897000
    9      O       4.9281462000     3.5569677000     3.8290237000
   10      H       3.2366653000    -1.7565474000     0.2867858000
   11      H       1.4130692000    -0.4272403000     0.1757466000
   12      H       2.2255828000     0.4817604000    -1.0955043000
   13      H       4.6867517000    -0.1397818000     1.2320076000
   14      H       5.7117004000     2.1182582000     1.8783691000
   15      H       3.7160618000     3.4746774000     2.1676357000
   16      H       2.2347646000     2.2510865000     3.1275664000
   17      H       4.5222193000     4.4105672000     4.0180663000
   18      O       5.5508814000     0.5970827000     3.8132834000
   19      O       6.6352206000    -0.2086685000     3.3599061000
   20      H       7.3973760000     0.3740087000     3.4994576000
 ----------------------------------------------------------------
 Nuclear Repulsion Energy =         648.22021246 hartrees
 There are       44 alpha and       43 beta electrons
 Requested basis set is 6-311++G(2df,2p)
 There are 142 shells and 464 basis functions

 Total QAlloc Memory Limit 288000 MB
 Mega-Array Size       188 MB
 MEM_STATIC part       192 MB
 
 Citation of the SMD model:
 Marenich, A.V.; Cramer, C.J.; Truhlar, D.G.
 J. Phys. Chem. B 2009, 113, 6378-6396.
 iSolventCode=           1
 Solvent: water                                                           
 
 vradii
            1           2           3           4           5           6
    1   1.5200000   1.8500000   1.8500000   1.5200000   1.8500000   1.8500000
            7           8           9          10          11          12
    1   1.8500000   1.5200000   1.5200000   1.2000000   1.2000000   1.2000000
           13          14          15          16          17          18
    1   1.2000000   1.2000000   1.2000000   1.2000000   1.2000000   1.5200000
           19          20
    1   1.5200000   1.2000000
 Changing PCM_VDW_RADII to SMD_RADIUS
 Discretize the solute cavity surface with Lebedev spheres
	Using 110 Lebedev grid points for each H atom
	Using 194 Lebedev grid points for other atoms
	Atomic van der Waals radii will be scaled by 1.20
 Remove points where switching function is < 1.0e-08
 Keep 1614 surface tesserae and discard 1510 interior tesserae
 Molecular Surface Area = 182.793 Angst**2
 A cutoff of  1.0D-11 yielded   8266 shell pairs
 There are     86832 function pairs (    107323 Cartesian)
 Smallest overlap matrix eigenvalue = 3.09E-06

 Q-Chem warning in module stvman/mkSTV.C, line 323:

 Overlap eigenvalue is smaller than square root of threshold
 Use THRESH >= 12 to get rid of this warning

 Guess from superposition of atomic densities
 Warning:  Energy on first SCF cycle will be non-variational
 SAD guess density has 87.000000 electrons

 -----------------------------------------------------------------------
  General SCF calculation program by
  Eric Jon Sundstrom, Paul Horn, Yuezhi Mao, Dmitri Zuev, Alec White,
  David Stuck, Shaama M.S., Shane Yost, Joonho Lee, David Small,
  Daniel Levine, Susi Lehtola, Hugh Burton, Evgeny Epifanovsky,
  Bang C. Huynh
 -----------------------------------------------------------------------
 Exchange:     0.1500 Hartree-Fock + 1.0000 wB97M-V + LR-HF
 Correlation:  1.0000 wB97M-V
 Using SG-2 standard quadrature grid
 Nonlocal Correlation:  VV10 with C = 0.0100 and b = 6.00 and scale = 1.00000
 Grid used for NLC:  SG-1 standard quadrature
 using 16 threads for integral computing
 -------------------------------------------------------
 OpenMP Integral computing Module                
 Release: version 1.0, May 2013, Q-Chem Inc. Pittsburgh 
 -------------------------------------------------------
 
 Citation of the SMD model:
 Marenich, A.V.; Cramer, C.J.; Truhlar, D.G.
 J. Phys. Chem. B 2009, 113, 6378-6396.
 iSolventCode=           1
 Solvent: water                                                           
 
 vradii
            1           2           3           4           5           6
    1   1.5200000   1.8500000   1.8500000   1.5200000   1.8500000   1.8500000
            7           8           9          10          11          12
    1   1.8500000   1.5200000   1.5200000   1.2000000   1.2000000   1.2000000
           13          14          15          16          17          18
    1   1.2000000   1.2000000   1.2000000   1.2000000   1.2000000   1.5200000
           19          20
    1   1.5200000   1.2000000
 -------------------------------------------------------
 OpenMP BLAS3 based DFT computing Module                
 Release: version 1.0, May 2013, Q-Chem Inc. Pittsburgh 
 -------------------------------------------------------
 A unrestricted SCF calculation will be
 performed using DIIS, GDM
 SCF converges when RMS gradient is below 1.0e-06
 ---------------------------------------
  Cycle       Energy         DIIS error
 ---------------------------------------
    1    -648.9369542038      1.10e-02  
    2    -646.9277416448      1.52e-03  Done DIIS. Switching to GDM
 ---------------------------------------
  Cycle       Energy        RMS Gradient
 ---------------------------------------
    1    -646.9277416448      1.03e-01   Descent step
    2    -647.1008431135      3.08e-02   Normal BFGS step
    3    -647.1302633513      1.62e-02   Normal BFGS step
    4    -647.1326556357      8.91e-03   Normal BFGS step
    5    -647.1342095210      4.57e-03   Normal BFGS step
    6    -647.1344002638      2.13e-03   Normal BFGS step
    7    -647.1344594300      9.79e-04   Normal BFGS step
    8    -647.1344795525      5.34e-04   Normal BFGS step
    9    -647.1344834402      4.20e-04   Normal BFGS step
   10    -647.1344851646      2.64e-04   Normal BFGS step
   11    -647.1344857459      2.16e-04   Normal BFGS step
   12    -647.1344859009      1.07e-04   Normal BFGS step
   13    -647.1344859606      6.99e-05   Normal BFGS step
   14    -647.1344859961      2.33e-05   Normal BFGS step
   15    -647.1344860052      1.70e-05   Normal BFGS step
   16    -647.1344860088      9.60e-06   Normal BFGS step
   17    -647.1344860093      6.64e-06   Normal BFGS step
   18    -647.1344860096      2.88e-06   Normal BFGS step
   19    -647.1344860097      1.95e-06   Normal BFGS step
  GDM::WARNING energy changes are now smaller than effective accuracy.
  GDM::        calculation will continue, but THRESH should be increased
  GDM::        or SCF_CONVERGENCE decreased. 
  GDM::        effective_thresh = 3.66e-09
   20    -647.1344860093      1.22e-06   Normal BFGS step
   21    -647.1344860097      5.78e-07  Convergence criterion met
 ---------------------------------------
 SCF time:   CPU 2855.39s  wall 198.00s 
<S^2> =          0.774153564
(3)  G-ENP(liq) elect-nuc-pol free energy of system     -647.134486010 a.u.
(4)  G-CDS(liq) cavity-dispersion-solvent structure 
     free energy                                                4.5466 kcal/mol
(6)  G-S(liq) free energy of system                     -647.127240529 a.u.
 SCF   energy in the final basis set =     -647.1272405286
 Total energy in the final basis set =     -647.1272405286
 
 --------------------------------------------------------------
 
                    Orbital Energies (a.u.)
 --------------------------------------------------------------
 
 Alpha MOs
 -- Occupied --
-19.4029 -19.3959 -19.3512 -19.3477 -19.3462 -19.3435 -10.4621 -10.4486
-10.4353 -10.4018 -10.3967  -1.2415  -1.2078  -1.1928  -1.1652  -1.1382
 -0.9906  -0.9380  -0.8679  -0.8192  -0.7436  -0.6725  -0.6637  -0.6454
 -0.6375  -0.6231  -0.6099  -0.5841  -0.5688  -0.5648  -0.5438  -0.5359
 -0.5175  -0.5141  -0.5014  -0.4723  -0.4579  -0.4363  -0.4304  -0.4149
 -0.4028  -0.3934  -0.3698  -0.3480
 -- Virtual --
  0.0130   0.0259   0.0351   0.0382   0.0488   0.0552   0.0592   0.0653
  0.0752   0.0899   0.0977   0.1005   0.1091   0.1153   0.1260   0.1273
  0.1344   0.1458   0.1495   0.1540   0.1614   0.1631   0.1707   0.1786
  0.1796   0.1845   0.1941   0.1955   0.2110   0.2133   0.2238   0.2289
  0.2414   0.2482   0.2594   0.2632   0.2665   0.2777   0.2807   0.2838
  0.2885   0.2957   0.2998   0.3049   0.3101   0.3223   0.3252   0.3266
  0.3359   0.3400   0.3436   0.3484   0.3569   0.3618   0.3683   0.3738
  0.3782   0.3821   0.3875   0.3934   0.3999   0.4078   0.4149   0.4192
  0.4267   0.4364   0.4430   0.4645   0.4787   0.4815   0.5007   0.5075
  0.5464   0.5605   0.5780   0.5818   0.5964   0.6082   0.6161   0.6233
  0.6287   0.6410   0.6459   0.6587   0.6685   0.6713   0.6718   0.6877
  0.6961   0.7061   0.7188   0.7221   0.7231   0.7335   0.7421   0.7449
  0.7690   0.7824   0.8202   0.8261   0.8488   0.8617   0.8704   0.8787
  0.8926   0.9131   0.9138   0.9220   0.9636   0.9793   0.9893   0.9983
  1.0108   1.0223   1.0312   1.0552   1.0711   1.0800   1.0879   1.0959
  1.1022   1.1296   1.1323   1.1491   1.1575   1.1662   1.1822   1.1900
  1.1991   1.2025   1.2068   1.2210   1.2389   1.2492   1.2553   1.2580
  1.2755   1.2837   1.2946   1.3085   1.3189   1.3248   1.3300   1.3363
  1.3452   1.3635   1.3693   1.3837   1.3947   1.4132   1.4211   1.4296
  1.4532   1.4608   1.4788   1.4855   1.5134   1.5254   1.5418   1.5504
  1.5583   1.5696   1.5893   1.5953   1.6198   1.6345   1.6371   1.6402
  1.6474   1.6729   1.6988   1.7079   1.7142   1.7440   1.7691   1.7886
  1.8060   1.8181   1.8538   1.8846   1.8900   1.9043   1.9412   1.9690
  1.9879   2.0105   2.0187   2.0348   2.0570   2.0878   2.1251   2.1755
  2.2089   2.2535   2.2616   2.2748   2.3001   2.3488   2.3618   2.3720
  2.3822   2.3887   2.4155   2.4536   2.5065   2.5204   2.5524   2.5834
  2.6582   2.6943   2.7052   2.7393   2.7789   2.7999   2.8136   2.8229
  2.8301   2.8498   2.8661   2.8721   2.8861   2.9066   2.9208   2.9366
  2.9573   2.9952   3.0039   3.0268   3.0536   3.0886   3.1082   3.1376
  3.1544   3.1734   3.1892   3.2326   3.2428   3.2609   3.2719   3.2877
  3.3255   3.3386   3.3446   3.3744   3.3949   3.4121   3.4279   3.4542
  3.4739   3.4770   3.5047   3.5481   3.5557   3.5678   3.5798   3.5994
  3.6220   3.6424   3.6672   3.6842   3.7059   3.7212   3.7379   3.7403
  3.7691   3.7737   3.7826   3.7947   3.8003   3.8339   3.8499   3.8639
  3.8757   3.8853   3.9154   3.9372   3.9661   3.9751   3.9921   4.0265
  4.0399   4.0721   4.0985   4.1273   4.1475   4.1588   4.1813   4.2129
  4.2240   4.2401   4.2545   4.2747   4.2969   4.3183   4.3273   4.3625
  4.3701   4.3803   4.4217   4.4370   4.4613   4.4737   4.5011   4.5171
  4.5454   4.5757   4.6337   4.6507   4.6679   4.6732   4.7126   4.7356
  4.7487   4.7863   4.8861   4.9607   5.0129   5.0866   5.1718   5.1827
  5.1838   5.1957   5.2069   5.2167   5.2350   5.2543   5.2607   5.2690
  5.2749   5.2840   5.2938   5.3027   5.3067   5.3199   5.3323   5.3417
  5.3490   5.3634   5.3772   5.4271   5.4523   5.4574   5.4878   5.5175
  5.5352   5.5496   5.5658   5.5789   5.6016   5.6178   5.6269   5.6387
  5.6614   5.6825   5.6885   5.7134   5.7149   5.7627   5.7812   5.8494
  5.8902   5.9847   5.9987   6.0378   6.0636   6.0810   6.0886   6.1168
  6.2765   6.5442   6.6054   6.7455   6.7894   6.8324   6.9526   6.9666
  6.9973   7.0136   7.0435   7.0724   7.0937   7.1033   7.1475   7.1737
  7.2286   7.2619   7.2947   7.3039   7.3118   7.3211   7.3362   7.3446
  7.3633   7.3849   7.4041   7.4355   7.4603   7.5435   7.5660   7.6310
  7.6413   7.6613   7.7530   7.7673   7.7807   7.8052   7.8330   7.9090
  8.0869  24.4827  24.6349  24.7585  24.7987  25.1016  50.4613  50.4959
 50.5806  50.6183  50.6220  50.7491
 
 Beta MOs
 -- Occupied --
-19.3983 -19.3954 -19.3512 -19.3462 -19.3435 -19.3413 -10.4619 -10.4496
-10.4372 -10.3967 -10.3917  -1.2372  -1.2072  -1.1838  -1.1641  -1.1381
 -0.9837  -0.9239  -0.8640  -0.8127  -0.7404  -0.6717  -0.6602  -0.6444
 -0.6333  -0.6198  -0.6034  -0.5810  -0.5657  -0.5550  -0.5365  -0.5263
 -0.5091  -0.5026  -0.4979  -0.4715  -0.4485  -0.4357  -0.4267  -0.4073
 -0.3965  -0.3841  -0.3598
 -- Virtual --
 -0.0716   0.0206   0.0277   0.0354   0.0395   0.0492   0.0553   0.0591
  0.0663   0.0753   0.0907   0.0988   0.1086   0.1142   0.1204   0.1267
  0.1334   0.1347   0.1470   0.1503   0.1541   0.1616   0.1632   0.1704
  0.1790   0.1795   0.1864   0.1956   0.1957   0.2097   0.2141   0.2228
  0.2299   0.2419   0.2495   0.2603   0.2636   0.2680   0.2779   0.2821
  0.2845   0.2885   0.2964   0.3015   0.3062   0.3109   0.3233   0.3258
  0.3286   0.3386   0.3423   0.3445   0.3488   0.3572   0.3620   0.3691
  0.3750   0.3783   0.3838   0.3878   0.3936   0.4001   0.4091   0.4161
  0.4205   0.4276   0.4366   0.4430   0.4657   0.4809   0.4852   0.5015
  0.5078   0.5495   0.5635   0.5811   0.5852   0.5992   0.6103   0.6179
  0.6245   0.6307   0.6437   0.6496   0.6602   0.6714   0.6737   0.6784
  0.6901   0.6973   0.7099   0.7190   0.7242   0.7249   0.7358   0.7445
  0.7471   0.7686   0.7865   0.8226   0.8274   0.8505   0.8646   0.8733
  0.8819   0.8940   0.9140   0.9154   0.9220   0.9642   0.9804   0.9910
  0.9998   1.0123   1.0232   1.0327   1.0560   1.0721   1.0805   1.0886
  1.0971   1.1024   1.1314   1.1351   1.1509   1.1593   1.1679   1.1845
  1.1914   1.2023   1.2027   1.2094   1.2224   1.2400   1.2525   1.2596
  1.2602   1.2773   1.2857   1.2979   1.3114   1.3211   1.3268   1.3316
  1.3385   1.3475   1.3650   1.3728   1.3871   1.3977   1.4155   1.4229
  1.4308   1.4544   1.4652   1.4838   1.4886   1.5160   1.5276   1.5448
  1.5526   1.5615   1.5752   1.5914   1.5973   1.6215   1.6351   1.6385
  1.6423   1.6493   1.6752   1.7004   1.7120   1.7222   1.7503   1.7719
  1.7927   1.8108   1.8223   1.8573   1.8894   1.8934   1.9090   1.9427
  1.9709   1.9911   2.0133   2.0222   2.0384   2.0603   2.0917   2.1275
  2.1783   2.2141   2.2559   2.2631   2.2775   2.3038   2.3499   2.3638
  2.3730   2.3831   2.3901   2.4169   2.4549   2.5124   2.5228   2.5586
  2.5888   2.6704   2.6983   2.7117   2.7496   2.7825   2.8095   2.8168
  2.8260   2.8420   2.8545   2.8804   2.8934   2.9024   2.9218   2.9339
  2.9560   2.9654   3.0070   3.0138   3.0295   3.0642   3.1032   3.1200
  3.1434   3.1639   3.1790   3.1968   3.2387   3.2468   3.2642   3.2759
  3.2921   3.3320   3.3422   3.3459   3.3939   3.4039   3.4210   3.4363
  3.4644   3.4809   3.4827   3.5184   3.5581   3.5726   3.5813   3.5890
  3.6112   3.6294   3.6466   3.6703   3.6917   3.7077   3.7213   3.7382
  3.7444   3.7732   3.7771   3.7872   3.8027   3.8093   3.8359   3.8523
  3.8682   3.8795   3.8885   3.9172   3.9410   3.9677   3.9782   4.0025
  4.0334   4.0426   4.0789   4.1033   4.1311   4.1518   4.1683   4.1861
  4.2175   4.2276   4.2422   4.2710   4.2785   4.2992   4.3211   4.3362
  4.3657   4.3720   4.3835   4.4271   4.4504   4.4665   4.4802   4.5088
  4.5279   4.5553   4.5964   4.6390   4.6620   4.6742   4.6869   4.7179
  4.7382   4.7521   4.7947   4.8903   4.9773   5.0171   5.0997   5.1779
  5.1917   5.1970   5.2064   5.2138   5.2243   5.2372   5.2648   5.2723
  5.2760   5.2829   5.2893   5.3005   5.3077   5.3119   5.3228   5.3400
  5.3473   5.3549   5.3707   5.3850   5.4320   5.4559   5.4584   5.4893
  5.5265   5.5424   5.5545   5.5709   5.5833   5.6097   5.6239   5.6310
  5.6399   5.6640   5.6846   5.6986   5.7165   5.7190   5.7659   5.8050
  5.8599   5.8911   5.9852   6.0010   6.0381   6.0644   6.0826   6.0891
  6.1231   6.2929   6.5444   6.6069   6.7476   6.7947   6.8358   6.9636
  6.9755   7.0013   7.0360   7.0660   7.0775   7.0984   7.1098   7.1552
  7.1779   7.2322   7.2697   7.2970   7.3047   7.3122   7.3229   7.3385
  7.3474   7.3829   7.3880   7.4086   7.4360   7.4635   7.5546   7.5696
  7.6358   7.6420   7.6641   7.7534   7.7703   7.7816   7.8163   7.8397
  7.9094   8.0893  24.4851  24.6391  24.7585  24.7987  25.1038  50.4630
 50.4979  50.5806  50.6183  50.6221  50.7536
 --------------------------------------------------------------
 
          Ground-State Mulliken Net Atomic Charges

     Atom                 Charge (a.u.)    Spin (a.u.)
  --------------------------------------------------------
      1 O                    -0.425151       0.000704
      2 C                    -0.385726      -0.003422
      3 C                     0.090997       0.017784
      4 O                    -0.430679       0.234080
      5 C                     0.275638       0.638132
      6 C                    -0.176730      -0.076850
      7 C                    -0.212228       0.008201
      8 O                    -0.413674      -0.000963
      9 O                    -0.449675      -0.000343
     10 H                     0.336506       0.000432
     11 H                     0.214210       0.000859
     12 H                     0.210283       0.001898
     13 H                     0.289943      -0.008466
     14 H                     0.290353       0.027915
     15 H                     0.325918      -0.002312
     16 H                     0.322567       0.000625
     17 H                     0.334851      -0.000124
     18 O                    -0.274199       0.148111
     19 O                    -0.255579       0.014529
     20 H                     0.332375      -0.000790
  --------------------------------------------------------
  Sum of atomic charges =    -0.000000
  Sum of spin   charges =     1.000000

 -----------------------------------------------------------------
                    Cartesian Multipole Moments
 -----------------------------------------------------------------
    Charge (ESU x 10^10)
                -0.0000
    Dipole Moment (Debye)
         X       0.1607      Y       1.3106      Z      -4.5056
       Tot       4.6951
    Quadrupole Moments (Debye-Ang)
        XX     -57.8044     XY      13.3293     YY     -52.7831
        XZ     -18.7754     YZ      -1.7191     ZZ    -100.4596
    Octopole Moments (Debye-Ang^2)
       XXX    -657.8445    XXY       1.1329    XYY    -206.5645
       YYY    -167.4156    XXZ    -197.7654    XYZ       4.1908
       YYZ     -99.3841    XZZ    -410.8433    YZZ     -91.4490
       ZZZ    -580.2421
    Hexadecapole Moments (Debye-Ang^3)
      XXXX   -5586.6042   XXXY    -471.1089   XXYY   -1226.5304
      XYYY    -649.6642   YYYY    -965.2664   XXXZ   -1893.2248
      XXYZ    -186.8465   XYYZ    -505.2290   YYYZ    -484.5928
      XXZZ   -2219.5184   XYZZ    -350.4376   YYZZ    -605.0676
      XZZZ   -2627.6058   YZZZ    -878.6779   ZZZZ   -3498.6300
 -----------------------------------------------------------------
 Calculating analytic gradient of the SCF energy
 Gradient of CDS energy
            1           2           3           4           5           6
    1  -0.0003373  -0.0000262  -0.0012098   0.0008323   0.0002592   0.0000892
    2   0.0007876  -0.0010938   0.0015781  -0.0010448  -0.0001884   0.0000590
    3   0.0003470  -0.0009924   0.0004112  -0.0004502  -0.0000212   0.0002022
            7           8           9          10          11          12
    1   0.0012179   0.0010773  -0.0020495   0.0000757  -0.0000498   0.0001198
    2   0.0017678   0.0001611  -0.0019408  -0.0005362   0.0000352   0.0001399
    3   0.0023784  -0.0004749  -0.0018757  -0.0000061   0.0002074  -0.0000682
           13          14          15          16          17          18
    1   0.0000460   0.0001579  -0.0000750  -0.0003546   0.0001203  -0.0000465
    2  -0.0000591   0.0000560  -0.0001245   0.0000072   0.0004385  -0.0000657
    3  -0.0000334  -0.0000645  -0.0001093   0.0002125   0.0002427  -0.0000027
           19          20
    1  -0.0003401   0.0004931
    2  -0.0000361   0.0000590
    3   0.0000344   0.0000628
 Gradient of SCF Energy
            1           2           3           4           5           6
    1   0.0016971   0.0107070   0.0117488  -0.0093504  -0.0222117  -0.0024071
    2   0.0098641  -0.0046140  -0.0035734   0.0079191   0.0079037   0.0158518
    3  -0.0186389   0.0062879  -0.0028237   0.0002475  -0.0291702   0.0135341
            7           8           9          10          11          12
    1  -0.0081575   0.0045543   0.0077653  -0.0015580  -0.0091467  -0.0025033
    2   0.0084816  -0.0034725  -0.0148267  -0.0092336  -0.0048123   0.0044754
    3  -0.0157942   0.0108448   0.0049965   0.0150648   0.0024394  -0.0065846
           13          14          15          16          17          18
    1   0.0022261  -0.0015644  -0.0024448  -0.0029122  -0.0054434   0.0117052
    2  -0.0084874   0.0154115   0.0086246  -0.0000050   0.0116100  -0.0263558
    3  -0.0007451  -0.0193576  -0.0029282  -0.0054115  -0.0020733   0.0504366
           19          20
    1   0.0064194   0.0108763
    2  -0.0224346   0.0076734
    3   0.0001568  -0.0004811
 Max gradient component =       5.044E-02
 RMS gradient           =       1.239E-02
 Computing fast CPCM-SWIG gradient
 Updating gradient with PCM contributions...
 -- total gradient after adding PCM contribution --
---------------------------------------------------
  Atom         X              Y              Z     
---------------------------------------------------
   1       0.000284      -0.000536      -0.000281
   2      -0.001715       0.000471       0.001124
   3       0.009862      -0.004412      -0.002171
   4      -0.003233       0.003185       0.000685
   5      -0.020403      -0.000905      -0.023444
   6       0.002425       0.021737      -0.000719
   7      -0.007093       0.014215      -0.018969
   8      -0.000444      -0.001763       0.001990
   9       0.000547      -0.000062       0.000890
  10       0.000039       0.000191      -0.000031
  11      -0.000173      -0.000393      -0.000444
  12       0.000025      -0.000078      -0.000098
  13      -0.001229      -0.000474       0.002446
  14      -0.008983       0.011171      -0.011362
  15      -0.001205       0.001662       0.004032
  16       0.000464      -0.000078      -0.000322
  17      -0.000012      -0.000454      -0.000392
  18       0.019267      -0.031732       0.044379
  19       0.010923      -0.012978       0.001499
  20       0.000653       0.001235       0.001185
---------------------------------------------------
 Number of fixed atoms: 0
 Gradient time:  CPU 341.10 s  wall 29.81 s
 ######################################################
 ######################################################
 # Starting finite difference calculation for IDERIV  #
 Finite diff step size:  1.88973e-03 a.u.
 ----------------------------------------------------------------
             Standard Nuclear Orientation (Angstroms)
    I     Atom           X                Y                Z
 ----------------------------------------------------------------
    1      O       3.2738655000    -1.1272789000    -0.4413443000
    2      C       2.3843854000    -0.0626282000    -0.1648973000
    3      C       2.8693129000     0.9475516000     0.8576887000
    4      O       2.1160263000     1.8986981000     1.1195014000
    5      C       4.1465244000     0.7642275000     1.4725948000
    6      C       4.8557377000     1.6830578000     2.4062115000
    7      C       4.0576264000     2.8455988000     2.9893513000
    8      O       2.9521921000     2.4139577000     3.7565897000
    9      O       4.9281462000     3.5569677000     3.8290237000
   10      H       3.2366653000    -1.7565474000     0.2867858000
   11      H       1.4130692000    -0.4272403000     0.1757466000
   12      H       2.2255828000     0.4817604000    -1.0955043000
   13      H       4.6867517000    -0.1397818000     1.2320076000
   14      H       5.7117004000     2.1182582000     1.8783691000
   15      H       3.7160618000     3.4746774000     2.1676357000
   16      H       2.2347646000     2.2510865000     3.1275664000
   17      H       4.5222193000     4.4105672000     4.0180663000
   18      O       5.5508814000     0.5970827000     3.8132834000
   19      O       6.6352206000    -0.2086685000     3.3599061000
   20      H       7.3973760000     0.3740087000     3.4994576000
 ----------------------------------------------------------------
 Nuclear Repulsion Energy =         648.21290049 hartrees
 There are       44 alpha and       43 beta electrons
 Discretize the solute cavity surface with Lebedev spheres
	Using 110 Lebedev grid points for each H atom
	Using 194 Lebedev grid points for other atoms
	Atomic van der Waals radii will be scaled by 1.20
 Remove points where switching function is < 1.0e-08
 Keep 1614 surface tesserae and discard 1510 interior tesserae
 Molecular Surface Area = 182.794 Angst**2
 Requested basis set is 6-311++G(2df,2p)
 There are 142 shells and 464 basis functions
 A cutoff of  1.0D-11 yielded   8266 shell pairs
 There are     86832 function pairs (    107323 Cartesian)
 Smallest overlap matrix eigenvalue = 3.08E-06

 Q-Chem warning in module stvman/mkSTV.C, line 323:

 Overlap eigenvalue is smaller than square root of threshold
 Use THRESH >= 12 to get rid of this warning

 Guess MOs from SCF MO coefficient file

 -----------------------------------------------------------------------
  General SCF calculation program by
  Eric Jon Sundstrom, Paul Horn, Yuezhi Mao, Dmitri Zuev, Alec White,
  David Stuck, Shaama M.S., Shane Yost, Joonho Lee, David Small,
  Daniel Levine, Susi Lehtola, Hugh Burton, Evgeny Epifanovsky,
  Bang C. Huynh
 -----------------------------------------------------------------------
 Exchange:     0.1500 Hartree-Fock + 1.0000 wB97M-V + LR-HF
 Correlation:  1.0000 wB97M-V
 Using SG-2 standard quadrature grid
 Nonlocal Correlation:  VV10 with C = 0.0100 and b = 6.00 and scale = 1.00000
 Grid used for NLC:  SG-1 standard quadrature
 
 Citation of the SMD model:
 Marenich, A.V.; Cramer, C.J.; Truhlar, D.G.
 J. Phys. Chem. B 2009, 113, 6378-6396.
 iSolventCode=           1
 Solvent: water                                                           
 
 vradii
            1           2           3           4           5           6
    1   1.5200000   1.8500000   1.8500000   1.5200000   1.8500000   1.8500000
            7           8           9          10          11          12
    1   1.8500000   1.5200000   1.5200000   1.2000000   1.2000000   1.2000000
           13          14          15          16          17          18
    1   1.2000000   1.2000000   1.2000000   1.2000000   1.2000000   1.5200000
           19          20
    1   1.5200000   1.2000000
 -------------------------------------------------------
 OpenMP BLAS3 based DFT computing Module                
 Release: version 1.0, May 2013, Q-Chem Inc. Pittsburgh 
 -------------------------------------------------------
 A unrestricted SCF calculation will be
 performed using Roothaan-Hall, DIIS, GDM
 SCF converges when RMS gradient is below 1.0e-06
 ---------------------------------------
  Cycle       Energy         DIIS error
 ---------------------------------------
    1    -647.0723850078      2.52e-04  Roothaan Step
 ---------------------------------------
  Cycle       Energy         DIIS error
 ---------------------------------------
    1    -647.1195832032      3.14e-04  
    2    -647.1254722201      3.44e-04  Done DIIS. Switching to GDM
 ---------------------------------------
  Cycle       Energy        RMS Gradient
 ---------------------------------------
    1    -647.1254722201      1.95e-02   Normal BFGS step
    2    -647.1188137601      3.66e-02  Line search: overstep
    3    -647.1340333381      3.99e-03   Normal BFGS step
    4    -647.1343298547      2.06e-03   Normal BFGS step
    5    -647.1344651199      9.44e-04   Normal BFGS step
    6    -647.1344778452      5.48e-04   Normal BFGS step
    7    -647.1344823602      4.47e-04   Normal BFGS step
    8    -647.1344835328      2.59e-04   Normal BFGS step
    9    -647.1344840885      1.30e-04   Normal BFGS step
   10    -647.1344843369      1.53e-04   Normal BFGS step
   11    -647.1344844437      9.16e-05   Normal BFGS step
   12    -647.1344844886      2.95e-05   Normal BFGS step
   13    -647.1344844998      1.51e-05   Normal BFGS step
   14    -647.1344845031      7.78e-06   Normal BFGS step
   15    -647.1344845040      3.84e-06   Normal BFGS step
   16    -647.1344845041      1.63e-06   Normal BFGS step
   17    -647.1344845035      6.99e-07  Convergence criterion met
 ---------------------------------------
 SCF time:   CPU 2598.75s  wall 179.00s 
<S^2> =          0.774151925
(3)  G-ENP(liq) elect-nuc-pol free energy of system     -647.134484503 a.u.
(4)  G-CDS(liq) cavity-dispersion-solvent structure 
     free energy                                                4.5463 kcal/mol
(6)  G-S(liq) free energy of system                     -647.127239588 a.u.
 SCF   energy in the final basis set =     -647.1272395885
 Total energy in the final basis set =     -647.1272395885
 
 --------------------------------------------------------------
 
                    Orbital Energies (a.u.)
 --------------------------------------------------------------
 
 Alpha MOs
 -- Occupied --
-19.4029 -19.3959 -19.3512 -19.3477 -19.3462 -19.3435 -10.4621 -10.4486
-10.4353 -10.4018 -10.3967  -1.2415  -1.2078  -1.1928  -1.1651  -1.1382
 -0.9906  -0.9380  -0.8679  -0.8192  -0.7436  -0.6725  -0.6637  -0.6453
 -0.6375  -0.6231  -0.6099  -0.5840  -0.5688  -0.5648  -0.5438  -0.5359
 -0.5175  -0.5140  -0.5014  -0.4723  -0.4579  -0.4363  -0.4304  -0.4149
 -0.4028  -0.3934  -0.3698  -0.3480
 -- Virtual --
  0.0130   0.0258   0.0351   0.0382   0.0488   0.0551   0.0592   0.0653
  0.0752   0.0899   0.0977   0.1005   0.1091   0.1153   0.1260   0.1273
  0.1345   0.1458   0.1495   0.1540   0.1614   0.1631   0.1707   0.1787
  0.1796   0.1845   0.1941   0.1955   0.2110   0.2133   0.2237   0.2289
  0.2414   0.2482   0.2594   0.2632   0.2664   0.2777   0.2807   0.2838
  0.2885   0.2957   0.2998   0.3049   0.3101   0.3223   0.3252   0.3266
  0.3359   0.3400   0.3436   0.3484   0.3569   0.3618   0.3683   0.3738
  0.3782   0.3821   0.3875   0.3934   0.3999   0.4078   0.4149   0.4192
  0.4267   0.4363   0.4430   0.4645   0.4787   0.4815   0.5007   0.5075
  0.5464   0.5605   0.5780   0.5817   0.5964   0.6082   0.6161   0.6233
  0.6287   0.6410   0.6458   0.6587   0.6685   0.6713   0.6718   0.6877
  0.6962   0.7061   0.7187   0.7221   0.7230   0.7335   0.7420   0.7449
  0.7690   0.7824   0.8202   0.8261   0.8489   0.8617   0.8704   0.8787
  0.8926   0.9131   0.9138   0.9220   0.9636   0.9793   0.9893   0.9983
  1.0108   1.0223   1.0312   1.0552   1.0711   1.0800   1.0879   1.0959
  1.1022   1.1297   1.1322   1.1491   1.1575   1.1662   1.1822   1.1900
  1.1991   1.2024   1.2068   1.2210   1.2389   1.2492   1.2553   1.2580
  1.2755   1.2836   1.2946   1.3085   1.3189   1.3248   1.3301   1.3364
  1.3452   1.3635   1.3693   1.3837   1.3946   1.4132   1.4210   1.4295
  1.4533   1.4607   1.4787   1.4855   1.5133   1.5254   1.5418   1.5504
  1.5583   1.5696   1.5893   1.5953   1.6197   1.6345   1.6371   1.6402
  1.6474   1.6729   1.6987   1.7079   1.7142   1.7439   1.7691   1.7887
  1.8060   1.8181   1.8537   1.8845   1.8901   1.9043   1.9412   1.9689
  1.9879   2.0105   2.0187   2.0348   2.0570   2.0878   2.1251   2.1755
  2.2089   2.2533   2.2615   2.2748   2.3000   2.3486   2.3617   2.3720
  2.3822   2.3886   2.4154   2.4536   2.5064   2.5204   2.5525   2.5834
  2.6582   2.6943   2.7052   2.7394   2.7788   2.7999   2.8136   2.8229
  2.8301   2.8498   2.8661   2.8721   2.8861   2.9066   2.9208   2.9365
  2.9573   2.9952   3.0038   3.0268   3.0536   3.0886   3.1081   3.1376
  3.1544   3.1734   3.1891   3.2325   3.2427   3.2608   3.2718   3.2872
  3.3253   3.3386   3.3446   3.3743   3.3949   3.4121   3.4279   3.4542
  3.4739   3.4770   3.5047   3.5481   3.5557   3.5678   3.5798   3.5993
  3.6220   3.6424   3.6672   3.6843   3.7059   3.7212   3.7379   3.7403
  3.7690   3.7737   3.7825   3.7947   3.8003   3.8339   3.8499   3.8639
  3.8756   3.8853   3.9154   3.9372   3.9660   3.9752   3.9921   4.0265
  4.0398   4.0721   4.0984   4.1271   4.1475   4.1588   4.1813   4.2129
  4.2240   4.2400   4.2545   4.2747   4.2968   4.3183   4.3273   4.3624
  4.3699   4.3802   4.4216   4.4370   4.4614   4.4737   4.5011   4.5169
  4.5454   4.5757   4.6337   4.6507   4.6679   4.6732   4.7126   4.7356
  4.7487   4.7863   4.8861   4.9607   5.0129   5.0866   5.1718   5.1827
  5.1838   5.1957   5.2069   5.2167   5.2350   5.2543   5.2607   5.2690
  5.2746   5.2840   5.2938   5.3028   5.3067   5.3199   5.3323   5.3417
  5.3490   5.3634   5.3772   5.4271   5.4522   5.4573   5.4877   5.5175
  5.5352   5.5494   5.5657   5.5789   5.6015   5.6178   5.6269   5.6387
  5.6614   5.6824   5.6883   5.7133   5.7149   5.7627   5.7812   5.8492
  5.8902   5.9843   5.9978   6.0364   6.0636   6.0810   6.0886   6.1167
  6.2765   6.5442   6.6037   6.7453   6.7892   6.8324   6.9526   6.9666
  6.9973   7.0136   7.0435   7.0724   7.0937   7.1032   7.1475   7.1737
  7.2286   7.2619   7.2947   7.3039   7.3115   7.3212   7.3362   7.3446
  7.3633   7.3848   7.4039   7.4355   7.4603   7.5435   7.5660   7.6309
  7.6406   7.6613   7.7530   7.7672   7.7806   7.8052   7.8330   7.9090
  8.0869  24.4827  24.6349  24.7574  24.7986  25.1016  50.4613  50.4959
 50.5803  50.6183  50.6220  50.7491
 
 Beta MOs
 -- Occupied --
-19.3983 -19.3954 -19.3512 -19.3462 -19.3435 -19.3413 -10.4619 -10.4496
-10.4372 -10.3968 -10.3917  -1.2372  -1.2072  -1.1838  -1.1640  -1.1381
 -0.9837  -0.9239  -0.8640  -0.8127  -0.7404  -0.6717  -0.6602  -0.6443
 -0.6333  -0.6198  -0.6034  -0.5810  -0.5656  -0.5550  -0.5365  -0.5263
 -0.5091  -0.5026  -0.4979  -0.4715  -0.4485  -0.4358  -0.4267  -0.4074
 -0.3965  -0.3841  -0.3599
 -- Virtual --
 -0.0716   0.0206   0.0277   0.0354   0.0395   0.0492   0.0553   0.0591
  0.0663   0.0753   0.0907   0.0988   0.1086   0.1142   0.1204   0.1267
  0.1334   0.1347   0.1470   0.1503   0.1541   0.1616   0.1632   0.1704
  0.1790   0.1794   0.1864   0.1956   0.1957   0.2097   0.2141   0.2228
  0.2299   0.2418   0.2495   0.2603   0.2636   0.2680   0.2779   0.2821
  0.2845   0.2885   0.2964   0.3015   0.3062   0.3109   0.3233   0.3258
  0.3285   0.3386   0.3423   0.3445   0.3488   0.3572   0.3620   0.3691
  0.3751   0.3783   0.3838   0.3878   0.3936   0.4001   0.4090   0.4161
  0.4205   0.4276   0.4366   0.4430   0.4657   0.4809   0.4852   0.5015
  0.5079   0.5495   0.5635   0.5811   0.5852   0.5992   0.6103   0.6179
  0.6245   0.6307   0.6437   0.6496   0.6602   0.6714   0.6737   0.6784
  0.6901   0.6973   0.7099   0.7190   0.7241   0.7249   0.7358   0.7445
  0.7471   0.7686   0.7865   0.8226   0.8274   0.8505   0.8646   0.8733
  0.8819   0.8939   0.9140   0.9154   0.9220   0.9642   0.9804   0.9910
  0.9998   1.0123   1.0232   1.0326   1.0560   1.0721   1.0804   1.0886
  1.0971   1.1024   1.1315   1.1350   1.1509   1.1593   1.1679   1.1845
  1.1914   1.2023   1.2026   1.2094   1.2224   1.2400   1.2525   1.2596
  1.2602   1.2773   1.2857   1.2979   1.3114   1.3211   1.3267   1.3317
  1.3386   1.3475   1.3650   1.3728   1.3870   1.3976   1.4155   1.4229
  1.4307   1.4544   1.4652   1.4838   1.4886   1.5159   1.5276   1.5448
  1.5525   1.5615   1.5752   1.5914   1.5973   1.6215   1.6351   1.6385
  1.6423   1.6493   1.6752   1.7004   1.7121   1.7221   1.7503   1.7719
  1.7927   1.8108   1.8223   1.8573   1.8894   1.8934   1.9090   1.9427
  1.9708   1.9911   2.0133   2.0222   2.0383   2.0603   2.0916   2.1275
  2.1783   2.2140   2.2558   2.2630   2.2775   2.3038   2.3496   2.3637
  2.3730   2.3831   2.3901   2.4168   2.4549   2.5123   2.5228   2.5587
  2.5888   2.6703   2.6983   2.7117   2.7497   2.7824   2.8095   2.8168
  2.8260   2.8419   2.8545   2.8804   2.8933   2.9024   2.9218   2.9339
  2.9560   2.9654   3.0070   3.0138   3.0295   3.0642   3.1032   3.1200
  3.1434   3.1640   3.1790   3.1968   3.2386   3.2467   3.2642   3.2758
  3.2917   3.3319   3.3422   3.3459   3.3939   3.4039   3.4210   3.4363
  3.4644   3.4809   3.4827   3.5184   3.5581   3.5726   3.5813   3.5889
  3.6111   3.6294   3.6466   3.6703   3.6917   3.7077   3.7213   3.7382
  3.7444   3.7732   3.7770   3.7871   3.8027   3.8092   3.8359   3.8523
  3.8682   3.8794   3.8885   3.9172   3.9410   3.9677   3.9782   4.0025
  4.0334   4.0426   4.0789   4.1032   4.1310   4.1518   4.1683   4.1861
  4.2174   4.2276   4.2422   4.2710   4.2785   4.2990   4.3211   4.3361
  4.3657   4.3717   4.3834   4.4271   4.4504   4.4665   4.4803   4.5088
  4.5278   4.5553   4.5964   4.6390   4.6621   4.6742   4.6869   4.7178
  4.7382   4.7521   4.7947   4.8903   4.9773   5.0171   5.0997   5.1779
  5.1917   5.1970   5.2064   5.2138   5.2243   5.2372   5.2648   5.2723
  5.2758   5.2829   5.2894   5.3005   5.3077   5.3119   5.3228   5.3400
  5.3473   5.3549   5.3707   5.3850   5.4320   5.4558   5.4584   5.4893
  5.5265   5.5424   5.5544   5.5709   5.5833   5.6096   5.6238   5.6310
  5.6398   5.6640   5.6846   5.6983   5.7165   5.7190   5.7659   5.8050
  5.8597   5.8911   5.9849   6.0000   6.0368   6.0643   6.0826   6.0891
  6.1231   6.2929   6.5444   6.6052   6.7475   6.7945   6.8358   6.9636
  6.9755   7.0013   7.0360   7.0660   7.0775   7.0984   7.1097   7.1551
  7.1779   7.2322   7.2697   7.2970   7.3047   7.3119   7.3230   7.3385
  7.3473   7.3829   7.3879   7.4085   7.4360   7.4635   7.5546   7.5696
  7.6357   7.6413   7.6641   7.7534   7.7702   7.7816   7.8163   7.8397
  7.9094   8.0893  24.4850  24.6391  24.7574  24.7986  25.1038  50.4630
 50.4979  50.5803  50.6183  50.6221  50.7536
 --------------------------------------------------------------
 
          Ground-State Mulliken Net Atomic Charges

     Atom                 Charge (a.u.)    Spin (a.u.)
  --------------------------------------------------------
      1 O                    -0.425321       0.000705
      2 C                    -0.385481      -0.003430
      3 C                     0.090784       0.017795
      4 O                    -0.430649       0.234083
      5 C                     0.275482       0.638127
      6 C                    -0.176540      -0.076850
      7 C                    -0.212273       0.008203
      8 O                    -0.413670      -0.000963
      9 O                    -0.449678      -0.000343
     10 H                     0.336465       0.000432
     11 H                     0.214290       0.000859
     12 H                     0.210339       0.001900
     13 H                     0.289974      -0.008464
     14 H                     0.290343       0.027915
     15 H                     0.325922      -0.002311
     16 H                     0.322565       0.000625
     17 H                     0.334851      -0.000124
     18 O                    -0.274201       0.148103
     19 O                    -0.255578       0.014529
     20 H                     0.332376      -0.000790
  --------------------------------------------------------
  Sum of atomic charges =    -0.000000
  Sum of spin   charges =     1.000000

 -----------------------------------------------------------------
                    Cartesian Multipole Moments
 -----------------------------------------------------------------
    Charge (ESU x 10^10)
                -0.0000
    Dipole Moment (Debye)
         X       0.1568      Y       1.3120      Z      -4.5056
       Tot       4.6953
    Quadrupole Moments (Debye-Ang)
        XX     -57.8277     XY      13.3364     YY     -52.7843
        XZ     -18.7747     YZ      -1.7190     ZZ    -100.4597
    Octopole Moments (Debye-Ang^2)
       XXX    -657.9724    XXY       1.1661    XYY    -206.5791
       YYY    -167.4098    XXZ    -197.7605    XYZ       4.1901
       YYZ     -99.3837    XZZ    -410.8507    YZZ     -91.4472
       ZZZ    -580.2409
    Hexadecapole Moments (Debye-Ang^3)
      XXXX   -5587.3154   XXXY    -470.9437   XXYY   -1226.6119
      XYYY    -649.6221   YYYY    -965.2742   XXXZ   -1893.1908
      XXYZ    -186.8527   XYYZ    -505.2239   YYYZ    -484.5931
      XXZZ   -2219.5638   XYZZ    -350.4255   YYZZ    -605.0682
      XZZZ   -2627.5943   YZZZ    -878.6785   ZZZZ   -3498.6287
 -----------------------------------------------------------------
 Calculating analytic gradient of the SCF energy
 Gradient of CDS energy
            1           2           3           4           5           6
    1  -0.0002628  -0.0001009  -0.0012098   0.0008323   0.0002592   0.0000892
    2   0.0006975  -0.0010037   0.0015781  -0.0010448  -0.0001884   0.0000590
    3   0.0003239  -0.0009692   0.0004113  -0.0004502  -0.0000212   0.0002021
            7           8           9          10          11          12
    1   0.0012179   0.0010773  -0.0020495   0.0000759  -0.0000498   0.0001199
    2   0.0017678   0.0001611  -0.0019408  -0.0005363   0.0000352   0.0001400
    3   0.0023784  -0.0004749  -0.0018757  -0.0000061   0.0002074  -0.0000681
           13          14          15          16          17          18
    1   0.0000460   0.0001579  -0.0000750  -0.0003546   0.0001203  -0.0000465
    2  -0.0000592   0.0000560  -0.0001245   0.0000072   0.0004385  -0.0000657
    3  -0.0000335  -0.0000645  -0.0001093   0.0002125   0.0002427  -0.0000027
           19          20
    1  -0.0003401   0.0004931
    2  -0.0000361   0.0000590
    3   0.0000344   0.0000628
 Gradient of SCF Energy
            1           2           3           4           5           6
    1   0.0021579   0.0103825   0.0117533  -0.0093497  -0.0222117  -0.0024051
    2   0.0095242  -0.0043968  -0.0035668   0.0079257   0.0079011   0.0158411
    3  -0.0188018   0.0063934  -0.0028245   0.0002502  -0.0291692   0.0135265
            7           8           9          10          11          12
    1  -0.0081574   0.0045567   0.0077658  -0.0016251  -0.0092065  -0.0025170
    2   0.0084822  -0.0034721  -0.0148275  -0.0092090  -0.0047418   0.0044974
    3  -0.0157933   0.0108462   0.0049964   0.0151058   0.0024591  -0.0065853
           13          14          15          16          17          18
    1   0.0022250  -0.0015659  -0.0024457  -0.0029145  -0.0054438   0.0117055
    2  -0.0084817   0.0154115   0.0086248  -0.0000056   0.0116102  -0.0263556
    3  -0.0007434  -0.0193557  -0.0029288  -0.0054137  -0.0020734   0.0504364
           19          20
    1   0.0064206   0.0108751
    2  -0.0224342   0.0076728
    3   0.0001560  -0.0004808
 Max gradient component =       5.044E-02
 RMS gradient           =       1.238E-02
 Computing fast CPCM-SWIG gradient
 Updating gradient with PCM contributions...
 -- total gradient after adding PCM contribution --
---------------------------------------------------
  Atom         X              Y              Z     
---------------------------------------------------
   1       0.000709      -0.000863      -0.000444
   2      -0.002052       0.000698       0.001226
   3       0.009869      -0.004411      -0.002169
   4      -0.003233       0.003188       0.000686
   5      -0.020406      -0.000904      -0.023444
   6       0.002427       0.021734      -0.000720
   7      -0.007094       0.014215      -0.018969
   8      -0.000443      -0.001763       0.001991
   9       0.000547      -0.000062       0.000890
  10      -0.000005       0.000205       0.000013
  11      -0.000217      -0.000325      -0.000428
  12       0.000015      -0.000059      -0.000096
  13      -0.001226      -0.000478       0.002444
  14      -0.008982       0.011171      -0.011362
  15      -0.001205       0.001662       0.004032
  16       0.000464      -0.000078      -0.000323
  17      -0.000012      -0.000454      -0.000392
  18       0.019267      -0.031732       0.044379
  19       0.010923      -0.012978       0.001500
  20       0.000653       0.001235       0.001185
---------------------------------------------------
 Number of fixed atoms: 0
 Gradient time:  CPU 355.72 s  wall 30.87 s
 ----------------------------------------------------------------
             Standard Nuclear Orientation (Angstroms)
    I     Atom           X                Y                Z
 ----------------------------------------------------------------
    1      O       3.2718655000    -1.1272789000    -0.4413443000
    2      C       2.3843854000    -0.0626282000    -0.1648973000
    3      C       2.8693129000     0.9475516000     0.8576887000
    4      O       2.1160263000     1.8986981000     1.1195014000
    5      C       4.1465244000     0.7642275000     1.4725948000
    6      C       4.8557377000     1.6830578000     2.4062115000
    7      C       4.0576264000     2.8455988000     2.9893513000
    8      O       2.9521921000     2.4139577000     3.7565897000
    9      O       4.9281462000     3.5569677000     3.8290237000
   10      H       3.2366653000    -1.7565474000     0.2867858000
   11      H       1.4130692000    -0.4272403000     0.1757466000
   12      H       2.2255828000     0.4817604000    -1.0955043000
   13      H       4.6867517000    -0.1397818000     1.2320076000
   14      H       5.7117004000     2.1182582000     1.8783691000
   15      H       3.7160618000     3.4746774000     2.1676357000
   16      H       2.2347646000     2.2510865000     3.1275664000
   17      H       4.5222193000     4.4105672000     4.0180663000
   18      O       5.5508814000     0.5970827000     3.8132834000
   19      O       6.6352206000    -0.2086685000     3.3599061000
   20      H       7.3973760000     0.3740087000     3.4994576000
 ----------------------------------------------------------------
 Nuclear Repulsion Energy =         648.22751836 hartrees
 There are       44 alpha and       43 beta electrons
 Discretize the solute cavity surface with Lebedev spheres
	Using 110 Lebedev grid points for each H atom
	Using 194 Lebedev grid points for other atoms
	Atomic van der Waals radii will be scaled by 1.20
 Remove points where switching function is < 1.0e-08
 Keep 1614 surface tesserae and discard 1510 interior tesserae
 Molecular Surface Area = 182.792 Angst**2
 Requested basis set is 6-311++G(2df,2p)
 There are 142 shells and 464 basis functions
 A cutoff of  1.0D-11 yielded   8266 shell pairs
 There are     86832 function pairs (    107323 Cartesian)
 Smallest overlap matrix eigenvalue = 3.09E-06

 Q-Chem warning in module stvman/mkSTV.C, line 323:

 Overlap eigenvalue is smaller than square root of threshold
 Use THRESH >= 12 to get rid of this warning

 Guess MOs from SCF MO coefficient file

 -----------------------------------------------------------------------
  General SCF calculation program by
  Eric Jon Sundstrom, Paul Horn, Yuezhi Mao, Dmitri Zuev, Alec White,
  David Stuck, Shaama M.S., Shane Yost, Joonho Lee, David Small,
  Daniel Levine, Susi Lehtola, Hugh Burton, Evgeny Epifanovsky,
  Bang C. Huynh
 -----------------------------------------------------------------------
 Exchange:     0.1500 Hartree-Fock + 1.0000 wB97M-V + LR-HF
 Correlation:  1.0000 wB97M-V
 Using SG-2 standard quadrature grid
 Nonlocal Correlation:  VV10 with C = 0.0100 and b = 6.00 and scale = 1.00000
 Grid used for NLC:  SG-1 standard quadrature
 
 Citation of the SMD model:
 Marenich, A.V.; Cramer, C.J.; Truhlar, D.G.
 J. Phys. Chem. B 2009, 113, 6378-6396.
 iSolventCode=           1
 Solvent: water                                                           
 
 vradii
            1           2           3           4           5           6
    1   1.5200000   1.8500000   1.8500000   1.5200000   1.8500000   1.8500000
            7           8           9          10          11          12
    1   1.8500000   1.5200000   1.5200000   1.2000000   1.2000000   1.2000000
           13          14          15          16          17          18
    1   1.2000000   1.2000000   1.2000000   1.2000000   1.2000000   1.5200000
           19          20
    1   1.5200000   1.2000000
 -------------------------------------------------------
 OpenMP BLAS3 based DFT computing Module                
 Release: version 1.0, May 2013, Q-Chem Inc. Pittsburgh 
 -------------------------------------------------------
 A unrestricted SCF calculation will be
 performed using Roothaan-Hall, DIIS, GDM
 SCF converges when RMS gradient is below 1.0e-06
 ---------------------------------------
  Cycle       Energy         DIIS error
 ---------------------------------------
    1    -647.0723936028      2.52e-04  Roothaan Step
 ---------------------------------------
  Cycle       Energy         DIIS error
 ---------------------------------------
    1    -647.1195886582      3.13e-04  
    2    -647.1254787924      3.44e-04  Done DIIS. Switching to GDM
 ---------------------------------------
  Cycle       Energy        RMS Gradient
 ---------------------------------------
    1    -647.1254787924      1.95e-02   Normal BFGS step
    2    -647.1188207561      3.66e-02  Line search: overstep
    3    -647.1340356262      3.98e-03   Normal BFGS step
    4    -647.1343323123      2.07e-03   Normal BFGS step
    5    -647.1344674757      9.38e-04   Normal BFGS step
    6    -647.1344802017      5.47e-04   Normal BFGS step
    7    -647.1344847153      4.44e-04   Normal BFGS step
    8    -647.1344858856      2.57e-04   Normal BFGS step
    9    -647.1344864395      1.30e-04   Normal BFGS step
   10    -647.1344866869      1.53e-04   Normal BFGS step
   11    -647.1344867932      9.15e-05   Normal BFGS step
   12    -647.1344868380      2.94e-05   Normal BFGS step
   13    -647.1344868492      1.51e-05   Normal BFGS step
   14    -647.1344868525      7.86e-06   Normal BFGS step
   15    -647.1344868534      3.89e-06   Normal BFGS step
   16    -647.1344868535      1.63e-06   Normal BFGS step
   17    -647.1344868528      6.98e-07  Convergence criterion met
 ---------------------------------------
 SCF time:   CPU 2565.96s  wall 177.00s 
<S^2> =          0.774154491
(3)  G-ENP(liq) elect-nuc-pol free energy of system     -647.134486853 a.u.
(4)  G-CDS(liq) cavity-dispersion-solvent structure 
     free energy                                                4.5471 kcal/mol
(6)  G-S(liq) free energy of system                     -647.127240660 a.u.
 SCF   energy in the final basis set =     -647.1272406598
 Total energy in the final basis set =     -647.1272406598
 
 --------------------------------------------------------------
 
                    Orbital Energies (a.u.)
 --------------------------------------------------------------
 
 Alpha MOs
 -- Occupied --
-19.4029 -19.3959 -19.3512 -19.3477 -19.3461 -19.3435 -10.4621 -10.4486
-10.4353 -10.4018 -10.3966  -1.2415  -1.2078  -1.1928  -1.1654  -1.1382
 -0.9906  -0.9380  -0.8679  -0.8192  -0.7436  -0.6726  -0.6637  -0.6454
 -0.6375  -0.6231  -0.6099  -0.5841  -0.5689  -0.5648  -0.5438  -0.5359
 -0.5175  -0.5141  -0.5015  -0.4723  -0.4578  -0.4363  -0.4303  -0.4149
 -0.4028  -0.3934  -0.3697  -0.3480
 -- Virtual --
  0.0130   0.0259   0.0351   0.0382   0.0488   0.0552   0.0592   0.0653
  0.0752   0.0899   0.0977   0.1005   0.1091   0.1153   0.1260   0.1273
  0.1344   0.1458   0.1495   0.1540   0.1614   0.1631   0.1707   0.1786
  0.1796   0.1845   0.1941   0.1955   0.2110   0.2133   0.2238   0.2289
  0.2415   0.2482   0.2594   0.2633   0.2666   0.2777   0.2807   0.2838
  0.2885   0.2957   0.2998   0.3050   0.3101   0.3223   0.3252   0.3266
  0.3359   0.3400   0.3437   0.3484   0.3569   0.3618   0.3684   0.3737
  0.3782   0.3821   0.3875   0.3934   0.4000   0.4078   0.4149   0.4192
  0.4268   0.4364   0.4430   0.4645   0.4787   0.4815   0.5007   0.5075
  0.5465   0.5606   0.5780   0.5818   0.5964   0.6082   0.6161   0.6233
  0.6287   0.6411   0.6459   0.6588   0.6685   0.6713   0.6718   0.6877
  0.6961   0.7061   0.7188   0.7221   0.7231   0.7335   0.7421   0.7449
  0.7690   0.7824   0.8202   0.8261   0.8488   0.8617   0.8704   0.8787
  0.8926   0.9131   0.9138   0.9220   0.9636   0.9793   0.9893   0.9983
  1.0108   1.0223   1.0313   1.0552   1.0712   1.0800   1.0878   1.0959
  1.1022   1.1296   1.1323   1.1491   1.1575   1.1662   1.1822   1.1900
  1.1991   1.2025   1.2067   1.2210   1.2389   1.2492   1.2553   1.2580
  1.2755   1.2837   1.2946   1.3085   1.3189   1.3249   1.3300   1.3362
  1.3452   1.3635   1.3693   1.3837   1.3948   1.4132   1.4211   1.4296
  1.4532   1.4608   1.4788   1.4855   1.5134   1.5254   1.5418   1.5505
  1.5583   1.5696   1.5893   1.5953   1.6198   1.6345   1.6371   1.6402
  1.6473   1.6729   1.6988   1.7078   1.7142   1.7441   1.7691   1.7886
  1.8060   1.8181   1.8538   1.8846   1.8900   1.9043   1.9412   1.9691
  1.9879   2.0105   2.0187   2.0349   2.0570   2.0879   2.1251   2.1755
  2.2090   2.2536   2.2616   2.2748   2.3001   2.3491   2.3618   2.3720
  2.3822   2.3887   2.4155   2.4536   2.5066   2.5204   2.5523   2.5834
  2.6583   2.6943   2.7052   2.7393   2.7790   2.7999   2.8136   2.8229
  2.8302   2.8498   2.8661   2.8721   2.8861   2.9066   2.9208   2.9366
  2.9573   2.9952   3.0039   3.0269   3.0536   3.0886   3.1082   3.1376
  3.1544   3.1735   3.1892   3.2327   3.2429   3.2609   3.2719   3.2881
  3.3256   3.3386   3.3446   3.3744   3.3949   3.4121   3.4279   3.4542
  3.4740   3.4770   3.5047   3.5482   3.5557   3.5678   3.5798   3.5995
  3.6220   3.6424   3.6672   3.6842   3.7059   3.7212   3.7379   3.7403
  3.7691   3.7737   3.7827   3.7947   3.8003   3.8339   3.8499   3.8640
  3.8758   3.8853   3.9154   3.9372   3.9661   3.9751   3.9922   4.0265
  4.0399   4.0721   4.0985   4.1274   4.1475   4.1588   4.1814   4.2130
  4.2240   4.2401   4.2545   4.2747   4.2970   4.3183   4.3273   4.3625
  4.3703   4.3804   4.4217   4.4371   4.4613   4.4737   4.5011   4.5172
  4.5455   4.5757   4.6338   4.6507   4.6679   4.6732   4.7126   4.7356
  4.7487   4.7863   4.8861   4.9607   5.0129   5.0866   5.1718   5.1827
  5.1838   5.1957   5.2069   5.2167   5.2350   5.2543   5.2607   5.2689
  5.2751   5.2840   5.2938   5.3027   5.3067   5.3199   5.3324   5.3417
  5.3491   5.3634   5.3772   5.4271   5.4525   5.4574   5.4878   5.5175
  5.5352   5.5497   5.5658   5.5789   5.6016   5.6178   5.6269   5.6388
  5.6614   5.6826   5.6887   5.7135   5.7149   5.7627   5.7813   5.8495
  5.8902   5.9850   5.9996   6.0392   6.0637   6.0810   6.0886   6.1168
  6.2766   6.5442   6.6070   6.7456   6.7895   6.8324   6.9526   6.9666
  6.9973   7.0136   7.0436   7.0724   7.0937   7.1033   7.1476   7.1738
  7.2286   7.2619   7.2947   7.3039   7.3120   7.3211   7.3362   7.3447
  7.3633   7.3849   7.4043   7.4355   7.4603   7.5435   7.5660   7.6310
  7.6421   7.6613   7.7530   7.7673   7.7807   7.8052   7.8330   7.9090
  8.0869  24.4827  24.6349  24.7595  24.7987  25.1017  50.4613  50.4959
 50.5808  50.6183  50.6220  50.7491
 
 Beta MOs
 -- Occupied --
-19.3983 -19.3954 -19.3512 -19.3461 -19.3435 -19.3412 -10.4619 -10.4496
-10.4372 -10.3967 -10.3917  -1.2372  -1.2072  -1.1838  -1.1642  -1.1381
 -0.9837  -0.9239  -0.8640  -0.8127  -0.7404  -0.6718  -0.6602  -0.6445
 -0.6333  -0.6198  -0.6034  -0.5810  -0.5657  -0.5550  -0.5365  -0.5263
 -0.5091  -0.5026  -0.4979  -0.4714  -0.4485  -0.4357  -0.4266  -0.4073
 -0.3965  -0.3841  -0.3598
 -- Virtual --
 -0.0716   0.0206   0.0277   0.0354   0.0395   0.0492   0.0553   0.0591
  0.0663   0.0753   0.0907   0.0988   0.1086   0.1142   0.1204   0.1267
  0.1334   0.1347   0.1470   0.1504   0.1541   0.1616   0.1632   0.1704
  0.1790   0.1795   0.1864   0.1956   0.1957   0.2097   0.2141   0.2228
  0.2299   0.2419   0.2495   0.2603   0.2636   0.2681   0.2779   0.2821
  0.2845   0.2885   0.2965   0.3015   0.3062   0.3109   0.3233   0.3258
  0.3286   0.3386   0.3424   0.3445   0.3488   0.3572   0.3620   0.3691
  0.3750   0.3783   0.3838   0.3878   0.3936   0.4002   0.4091   0.4161
  0.4205   0.4276   0.4366   0.4430   0.4656   0.4809   0.4852   0.5015
  0.5078   0.5495   0.5636   0.5811   0.5852   0.5992   0.6103   0.6179
  0.6245   0.6307   0.6437   0.6497   0.6602   0.6714   0.6738   0.6784
  0.6901   0.6973   0.7099   0.7190   0.7242   0.7250   0.7358   0.7446
  0.7471   0.7686   0.7865   0.8226   0.8275   0.8504   0.8646   0.8733
  0.8819   0.8940   0.9140   0.9154   0.9220   0.9642   0.9804   0.9910
  0.9998   1.0123   1.0232   1.0327   1.0561   1.0722   1.0805   1.0885
  1.0971   1.1024   1.1314   1.1351   1.1509   1.1593   1.1679   1.1845
  1.1914   1.2023   1.2027   1.2094   1.2224   1.2401   1.2526   1.2596
  1.2602   1.2773   1.2858   1.2979   1.3114   1.3212   1.3268   1.3316
  1.3385   1.3474   1.3650   1.3728   1.3871   1.3978   1.4155   1.4229
  1.4308   1.4544   1.4653   1.4838   1.4886   1.5160   1.5275   1.5448
  1.5526   1.5615   1.5752   1.5914   1.5973   1.6216   1.6351   1.6386
  1.6423   1.6493   1.6752   1.7005   1.7120   1.7222   1.7504   1.7719
  1.7926   1.8108   1.8223   1.8573   1.8895   1.8934   1.9090   1.9427
  1.9709   1.9911   2.0133   2.0222   2.0385   2.0603   2.0917   2.1275
  2.1783   2.2141   2.2561   2.2632   2.2775   2.3039   2.3502   2.3639
  2.3730   2.3831   2.3902   2.4169   2.4549   2.5125   2.5228   2.5585
  2.5888   2.6704   2.6983   2.7118   2.7495   2.7825   2.8096   2.8168
  2.8260   2.8420   2.8545   2.8804   2.8934   2.9024   2.9218   2.9339
  2.9560   2.9654   3.0070   3.0139   3.0296   3.0642   3.1032   3.1201
  3.1435   3.1639   3.1791   3.1969   3.2388   3.2469   3.2643   3.2760
  3.2926   3.3322   3.3422   3.3459   3.3940   3.4040   3.4210   3.4364
  3.4644   3.4809   3.4828   3.5184   3.5582   3.5726   3.5813   3.5890
  3.6113   3.6294   3.6466   3.6704   3.6917   3.7077   3.7213   3.7382
  3.7444   3.7732   3.7772   3.7873   3.8027   3.8093   3.8359   3.8523
  3.8682   3.8795   3.8885   3.9172   3.9410   3.9677   3.9781   4.0025
  4.0334   4.0427   4.0789   4.1033   4.1313   4.1518   4.1683   4.1862
  4.2175   4.2276   4.2422   4.2710   4.2785   4.2993   4.3211   4.3362
  4.3657   4.3722   4.3835   4.4272   4.4505   4.4665   4.4802   4.5088
  4.5281   4.5554   4.5964   4.6390   4.6620   4.6742   4.6869   4.7179
  4.7382   4.7521   4.7947   4.8903   4.9773   5.0171   5.0997   5.1779
  5.1917   5.1970   5.2064   5.2138   5.2243   5.2372   5.2648   5.2723
  5.2763   5.2829   5.2893   5.3005   5.3077   5.3119   5.3228   5.3400
  5.3473   5.3549   5.3707   5.3850   5.4321   5.4560   5.4585   5.4893
  5.5265   5.5424   5.5546   5.5710   5.5833   5.6097   5.6239   5.6310
  5.6399   5.6640   5.6847   5.6988   5.7166   5.7191   5.7659   5.8051
  5.8601   5.8912   5.9854   6.0020   6.0395   6.0644   6.0826   6.0891
  6.1231   6.2929   6.5444   6.6086   6.7477   6.7948   6.8358   6.9636
  6.9755   7.0013   7.0361   7.0661   7.0775   7.0985   7.1098   7.1552
  7.1780   7.2322   7.2697   7.2970   7.3047   7.3125   7.3229   7.3385
  7.3474   7.3829   7.3882   7.4087   7.4360   7.4635   7.5546   7.5696
  7.6359   7.6427   7.6641   7.7534   7.7703   7.7816   7.8163   7.8397
  7.9094   8.0893  24.4851  24.6392  24.7595  24.7987  25.1039  50.4630
 50.4979  50.5809  50.6183  50.6221  50.7536
 --------------------------------------------------------------
 
          Ground-State Mulliken Net Atomic Charges

     Atom                 Charge (a.u.)    Spin (a.u.)
  --------------------------------------------------------
      1 O                    -0.424981       0.000704
      2 C                    -0.385970      -0.003415
      3 C                     0.091206       0.017775
      4 O                    -0.430710       0.234076
      5 C                     0.275797       0.638137
      6 C                    -0.176921      -0.076850
      7 C                    -0.212181       0.008200
      8 O                    -0.413676      -0.000963
      9 O                    -0.449673      -0.000343
     10 H                     0.336547       0.000432
     11 H                     0.214130       0.000859
     12 H                     0.210228       0.001896
     13 H                     0.289912      -0.008468
     14 H                     0.290362       0.027914
     15 H                     0.325914      -0.002312
     16 H                     0.322569       0.000625
     17 H                     0.334851      -0.000124
     18 O                    -0.274197       0.148116
     19 O                    -0.255582       0.014531
     20 H                     0.332376      -0.000790
  --------------------------------------------------------
  Sum of atomic charges =    -0.000000
  Sum of spin   charges =     1.000000

 -----------------------------------------------------------------
                    Cartesian Multipole Moments
 -----------------------------------------------------------------
    Charge (ESU x 10^10)
                -0.0000
    Dipole Moment (Debye)
         X       0.1646      Y       1.3092      Z      -4.5057
       Tot       4.6949
    Quadrupole Moments (Debye-Ang)
        XX     -57.7812     XY      13.3222     YY     -52.7819
        XZ     -18.7761     YZ      -1.7191     ZZ    -100.4594
    Octopole Moments (Debye-Ang^2)
       XXX    -657.7166    XXY       1.0997    XYY    -206.5498
       YYY    -167.4215    XXZ    -197.7702    XYZ       4.1917
       YYZ     -99.3845    XZZ    -410.8357    YZZ     -91.4506
       ZZZ    -580.2431
    Hexadecapole Moments (Debye-Ang^3)
      XXXX   -5585.8933   XXXY    -471.2741   XXYY   -1226.4489
      XYYY    -649.7070   YYYY    -965.2593   XXXZ   -1893.2587
      XXYZ    -186.8400   XYYZ    -505.2339   YYYZ    -484.5928
      XXZZ   -2219.4723   XYZZ    -350.4493   YYZZ    -605.0669
      XZZZ   -2627.6162   YZZZ    -878.6768   ZZZZ   -3498.6302
 -----------------------------------------------------------------
 Calculating analytic gradient of the SCF energy
 Gradient of CDS energy
            1           2           3           4           5           6
    1  -0.0004170   0.0000538  -0.0012098   0.0008323   0.0002592   0.0000892
    2   0.0008840  -0.0011903   0.0015780  -0.0010448  -0.0001883   0.0000590
    3   0.0003718  -0.0010172   0.0004111  -0.0004502  -0.0000211   0.0002022
            7           8           9          10          11          12
    1   0.0012179   0.0010773  -0.0020495   0.0000755  -0.0000498   0.0001198
    2   0.0017678   0.0001611  -0.0019408  -0.0005361   0.0000352   0.0001398
    3   0.0023784  -0.0004749  -0.0018757  -0.0000061   0.0002074  -0.0000682
           13          14          15          16          17          18
    1   0.0000460   0.0001579  -0.0000750  -0.0003546   0.0001203  -0.0000465
    2  -0.0000591   0.0000560  -0.0001245   0.0000072   0.0004385  -0.0000657
    3  -0.0000333  -0.0000645  -0.0001093   0.0002125   0.0002427  -0.0000027
           19          20
    1  -0.0003401   0.0004931
    2  -0.0000361   0.0000590
    3   0.0000344   0.0000628
 Gradient of SCF Energy
            1           2           3           4           5           6
    1   0.0012306   0.0110371   0.0117438  -0.0093510  -0.0222115  -0.0024089
    2   0.0102122  -0.0048387  -0.0035802   0.0079126   0.0079066   0.0158624
    3  -0.0184746   0.0061804  -0.0028233   0.0002449  -0.0291712   0.0135419
            7           8           9          10          11          12
    1  -0.0081571   0.0045518   0.0077646  -0.0014910  -0.0090866  -0.0024896
    2   0.0084813  -0.0034730  -0.0148259  -0.0092587  -0.0048829   0.0044532
    3  -0.0157952   0.0108436   0.0049966   0.0150245   0.0024197  -0.0065839
           13          14          15          16          17          18
    1   0.0022272  -0.0015629  -0.0024440  -0.0029101  -0.0054430   0.0117050
    2  -0.0084931   0.0154115   0.0086243  -0.0000044   0.0116097  -0.0263560
    3  -0.0007468  -0.0193593  -0.0029276  -0.0054093  -0.0020732   0.0504366
           19          20
    1   0.0064181   0.0108774
    2  -0.0224349   0.0076740
    3   0.0001578  -0.0004814
 Max gradient component =       5.044E-02
 RMS gradient           =       1.239E-02
 Computing fast CPCM-SWIG gradient
 Updating gradient with PCM contributions...
 -- total gradient after adding PCM contribution --
---------------------------------------------------
  Atom         X              Y              Z     
---------------------------------------------------
   1      -0.000146      -0.000202      -0.000115
   2      -0.001372       0.000237       0.001021
   3       0.009855      -0.004414      -0.002174
   4      -0.003233       0.003181       0.000683
   5      -0.020399      -0.000907      -0.023444
   6       0.002422       0.021739      -0.000717
   7      -0.007092       0.014215      -0.018968
   8      -0.000444      -0.001763       0.001990
   9       0.000547      -0.000062       0.000890
  10       0.000082       0.000176      -0.000074
  11      -0.000128      -0.000460      -0.000460
  12       0.000035      -0.000096      -0.000100
  13      -0.001232      -0.000471       0.002448
  14      -0.008983       0.011171      -0.011362
  15      -0.001205       0.001662       0.004032
  16       0.000464      -0.000077      -0.000321
  17      -0.000012      -0.000454      -0.000392
  18       0.019266      -0.031732       0.044378
  19       0.010923      -0.012978       0.001499
  20       0.000653       0.001235       0.001185
---------------------------------------------------
 Number of fixed atoms: 0
 Gradient time:  CPU 353.12 s  wall 30.45 s
 ----------------------------------------------------------------
             Standard Nuclear Orientation (Angstroms)
    I     Atom           X                Y                Z
 ----------------------------------------------------------------
    1      O       3.2728655000    -1.1262789000    -0.4413443000
    2      C       2.3843854000    -0.0626282000    -0.1648973000
    3      C       2.8693129000     0.9475516000     0.8576887000
    4      O       2.1160263000     1.8986981000     1.1195014000
    5      C       4.1465244000     0.7642275000     1.4725948000
    6      C       4.8557377000     1.6830578000     2.4062115000
    7      C       4.0576264000     2.8455988000     2.9893513000
    8      O       2.9521921000     2.4139577000     3.7565897000
    9      O       4.9281462000     3.5569677000     3.8290237000
   10      H       3.2366653000    -1.7565474000     0.2867858000
   11      H       1.4130692000    -0.4272403000     0.1757466000
   12      H       2.2255828000     0.4817604000    -1.0955043000
   13      H       4.6867517000    -0.1397818000     1.2320076000
   14      H       5.7117004000     2.1182582000     1.8783691000
   15      H       3.7160618000     3.4746774000     2.1676357000
   16      H       2.2347646000     2.2510865000     3.1275664000
   17      H       4.5222193000     4.4105672000     4.0180663000
   18      O       5.5508814000     0.5970827000     3.8132834000
   19      O       6.6352206000    -0.2086685000     3.3599061000
   20      H       7.3973760000     0.3740087000     3.4994576000
 ----------------------------------------------------------------
 Nuclear Repulsion Energy =         648.24001173 hartrees
 There are       44 alpha and       43 beta electrons
 Discretize the solute cavity surface with Lebedev spheres
	Using 110 Lebedev grid points for each H atom
	Using 194 Lebedev grid points for other atoms
	Atomic van der Waals radii will be scaled by 1.20
 Remove points where switching function is < 1.0e-08
 Keep 1614 surface tesserae and discard 1510 interior tesserae
 Molecular Surface Area = 182.788 Angst**2
 Requested basis set is 6-311++G(2df,2p)
 There are 142 shells and 464 basis functions
 A cutoff of  1.0D-11 yielded   8266 shell pairs
 There are     86832 function pairs (    107323 Cartesian)
 Smallest overlap matrix eigenvalue = 3.09E-06

 Q-Chem warning in module stvman/mkSTV.C, line 323:

 Overlap eigenvalue is smaller than square root of threshold
 Use THRESH >= 12 to get rid of this warning

 Guess MOs from SCF MO coefficient file

 -----------------------------------------------------------------------
  General SCF calculation program by
  Eric Jon Sundstrom, Paul Horn, Yuezhi Mao, Dmitri Zuev, Alec White,
  David Stuck, Shaama M.S., Shane Yost, Joonho Lee, David Small,
  Daniel Levine, Susi Lehtola, Hugh Burton, Evgeny Epifanovsky,
  Bang C. Huynh
 -----------------------------------------------------------------------
 Exchange:     0.1500 Hartree-Fock + 1.0000 wB97M-V + LR-HF
 Correlation:  1.0000 wB97M-V
 Using SG-2 standard quadrature grid
 Nonlocal Correlation:  VV10 with C = 0.0100 and b = 6.00 and scale = 1.00000
 Grid used for NLC:  SG-1 standard quadrature
 
 Citation of the SMD model:
 Marenich, A.V.; Cramer, C.J.; Truhlar, D.G.
 J. Phys. Chem. B 2009, 113, 6378-6396.
 iSolventCode=           1
 Solvent: water                                                           
 
 vradii
            1           2           3           4           5           6
    1   1.5200000   1.8500000   1.8500000   1.5200000   1.8500000   1.8500000
            7           8           9          10          11          12
    1   1.8500000   1.5200000   1.5200000   1.2000000   1.2000000   1.2000000
           13          14          15          16          17          18
    1   1.2000000   1.2000000   1.2000000   1.2000000   1.2000000   1.5200000
           19          20
    1   1.5200000   1.2000000
 -------------------------------------------------------
 OpenMP BLAS3 based DFT computing Module                
 Release: version 1.0, May 2013, Q-Chem Inc. Pittsburgh 
 -------------------------------------------------------
 A unrestricted SCF calculation will be
 performed using Roothaan-Hall, DIIS, GDM
 SCF converges when RMS gradient is below 1.0e-06
 ---------------------------------------
  Cycle       Energy         DIIS error
 ---------------------------------------
    1    -647.0723874403      2.52e-04  Roothaan Step
 ---------------------------------------
  Cycle       Energy         DIIS error
 ---------------------------------------
    1    -647.1195877528      3.14e-04  
    2    -647.1254751309      3.45e-04  Done DIIS. Switching to GDM
 ---------------------------------------
  Cycle       Energy        RMS Gradient
 ---------------------------------------
    1    -647.1254751309      1.95e-02   Normal BFGS step
    2    -647.1188172984      3.65e-02  Line search: overstep
    3    -647.1340366074      3.98e-03   Normal BFGS step
    4    -647.1343330374      2.06e-03   Normal BFGS step
    5    -647.1344683314      9.44e-04   Normal BFGS step
    6    -647.1344810548      5.46e-04   Normal BFGS step
    7    -647.1344855703      4.47e-04   Normal BFGS step
    8    -647.1344867444      2.59e-04   Normal BFGS step
    9    -647.1344873010      1.30e-04   Normal BFGS step
   10    -647.1344875500      1.54e-04   Normal BFGS step
   11    -647.1344876570      9.17e-05   Normal BFGS step
   12    -647.1344877020      2.95e-05   Normal BFGS step
   13    -647.1344877131      1.51e-05   Normal BFGS step
   14    -647.1344877165      7.76e-06   Normal BFGS step
   15    -647.1344877174      3.83e-06   Normal BFGS step
   16    -647.1344877175      1.62e-06   Normal BFGS step
   17    -647.1344877168      6.95e-07  Convergence criterion met
 ---------------------------------------
 SCF time:   CPU 2599.80s  wall 180.00s 
<S^2> =          0.774151266
(3)  G-ENP(liq) elect-nuc-pol free energy of system     -647.134487717 a.u.
(4)  G-CDS(liq) cavity-dispersion-solvent structure 
     free energy                                                4.5476 kcal/mol
(6)  G-S(liq) free energy of system                     -647.127240640 a.u.
 SCF   energy in the final basis set =     -647.1272406399
 Total energy in the final basis set =     -647.1272406399
 
 --------------------------------------------------------------
 
                    Orbital Energies (a.u.)
 --------------------------------------------------------------
 
 Alpha MOs
 -- Occupied --
-19.4029 -19.3959 -19.3512 -19.3477 -19.3462 -19.3435 -10.4621 -10.4485
-10.4353 -10.4017 -10.3966  -1.2415  -1.2078  -1.1928  -1.1653  -1.1382
 -0.9906  -0.9380  -0.8678  -0.8192  -0.7436  -0.6725  -0.6637  -0.6454
 -0.6375  -0.6231  -0.6100  -0.5841  -0.5689  -0.5648  -0.5438  -0.5359
 -0.5175  -0.5141  -0.5014  -0.4723  -0.4578  -0.4363  -0.4304  -0.4149
 -0.4028  -0.3934  -0.3697  -0.3480
 -- Virtual --
[...]
    1  -0.0003132   0.0004557
    2  -0.0000138   0.0000365
    3  -0.0000621   0.0002063
 Gradient of SCF Energy
            1           2           3           4           5           6
    1  -0.0055646   0.0104399   0.0017462  -0.0048372  -0.0020249  -0.0140706
    2   0.0124036   0.0003230   0.0026346   0.0011571   0.0023941   0.0037198
    3  -0.0153657   0.0021471   0.0011275   0.0014963  -0.0062539   0.0085549
            7           8           9          10          11          12
    1  -0.0005663  -0.0021986   0.0040614   0.0050335  -0.0047487  -0.0036306
    2  -0.0038923  -0.0031139  -0.0104879  -0.0112899  -0.0058600   0.0030042
    3   0.0037198   0.0037356   0.0010583   0.0120810   0.0027891  -0.0032888
           13          14          15          16          17          18
    1   0.0064352   0.0124088  -0.0008681   0.0028178  -0.0037558  -0.0051252
    2  -0.0074847  -0.0015176   0.0047906   0.0017016   0.0104828   0.0042535
    3  -0.0051249  -0.0014323  -0.0050947  -0.0006830   0.0001086   0.0022434
           19          20
    1  -0.0096714   0.0141193
    2  -0.0129462   0.0097279
    3  -0.0019666   0.0001482
 Max gradient component =       1.537E-02
 RMS gradient           =       6.537E-03
 Computing fast CPCM-SWIG gradient
 Updating gradient with PCM contributions...
 -- total gradient after adding PCM contribution --
---------------------------------------------------
  Atom         X              Y              Z     
---------------------------------------------------
   1      -0.000001      -0.000004       0.000004
   2      -0.000000      -0.000000      -0.000003
   3       0.000017      -0.000013       0.000007
   4      -0.000030      -0.000017      -0.000028
   5      -0.000018      -0.000020      -0.000019
   6      -0.000013       0.000032      -0.000023
   7       0.000003       0.000013       0.000045
   8       0.000026       0.000039       0.000007
   9       0.000018       0.000013      -0.000007
  10      -0.000014      -0.000005       0.000008
  11      -0.000000      -0.000001       0.000002
  12      -0.000003       0.000004       0.000005
  13      -0.000001       0.000003      -0.000008
  14       0.000003      -0.000010       0.000016
  15       0.000005      -0.000009      -0.000006
  16      -0.000011      -0.000005      -0.000010
  17       0.000004      -0.000002      -0.000002
  18      -0.000004      -0.000021       0.000004
  19       0.000024      -0.000000       0.000011
  20      -0.000006       0.000004      -0.000004
---------------------------------------------------
 Number of fixed atoms: 0
 Gradient time:  CPU 414.62 s  wall 34.29 s
 Geometry Optimization Parameters
   NAtoms,    NIC,     NZ,  NCons,   NDum,   NFix, NCnnct, MaxDiis
       20     126       0       0       0       0       0       0

 Cartesian Hessian Update
 Hessian updated using Powell/Murtagh-Sargent update
  Mixing factors:     0.985847 Powell                      0.014153 Murtagh-Sargent


** GEOMETRY OPTIMIZATION IN DELOCALIZED INTERNAL COORDINATES **
   Searching for a Transition State

   Optimization Cycle:  45

                       Coordinates (Angstroms)
     ATOM                X               Y               Z
      1  O         3.3615137733   -0.8706715963   -0.7367121160
      2  C         2.3520910218   -0.1477068439   -0.0607564403
      3  C         2.8275778489    0.8013837565    1.0207510304
      4  O         1.9657061020    1.4742642462    1.5919493370
      5  C         4.2479380434    0.8866824524    1.3083078479
      6  C         4.8428275029    1.7534762022    2.2003721520
      7  C         4.1674600878    2.9239332985    2.8793290580
      8  O         3.1385633700    2.5532948608    3.7701574444
      9  O         5.1580174946    3.5953326212    3.6121964546
     10  H         3.6711810400   -1.5808697093   -0.1647728906
     11  H         1.6178552510   -0.8128749143    0.3993373094
     12  H         1.8289668604    0.4567566373   -0.8014742884
     13  H         4.8919205719    0.2042346476    0.7748594930
     14  H         5.9175330046    1.8599998503    2.1254664951
     15  H         3.7606462335    3.5803549902    2.1020541754
     16  H         2.4363747177    2.1793599046    3.2087877532
     17  H         4.7872181121    4.4343308623    3.9095619598
     18  O         4.9797942500    0.5436807331    3.7108345668
     19  O         6.1224363210   -0.1847727329    3.6233614752
     20  H         6.8374883930    0.4451659335    3.8144289830
   Point Group: c1    Number of degrees of freedom:    54


   Energy is   -647.146062817

 Hessian updated using Powell/Murtagh-Sargent update
  Mixing factors:     0.998827 Powell                      0.001173 Murtagh-Sargent

 54 Hessian modes will be used to form the next step
  Hessian Eigenvalues:
    -0.072867    0.000448    0.003039    0.003976    0.005244    0.005810
     0.008910    0.009490    0.016352    0.016832    0.020791    0.035727
     0.036539    0.048642    0.056259    0.058286    0.061099    0.064970
     0.073329    0.093908    0.105144    0.110126    0.135103    0.144887
     0.151796    0.160992    0.171158    0.179151    0.180687    0.193517
     0.200728    0.212204    0.214868    0.227207    0.235703    0.257440
     0.279412    0.314711    0.327313    0.335032    0.335176    0.338603
     0.342542    0.358604    0.373605    0.429478    0.483587    0.503072
     0.505848    0.525915    0.527511    0.528343    0.601319    0.702878

 Transition state search - taking P-RFO step
 Searching for Lamda that Maximizes Along the Lowest mode
 Value Taken    Lamda =   0.00000000
 Searching for Lamda that Minimizes Along All other modes
 Value Taken    Lamda =  -0.00000111
 Step Taken.  Stepsize is  0.043495

                             Maximum     Tolerance    Cnvgd?
         Gradient           0.000161      0.000300     YES
         Displacement       0.021541      0.001200      NO
         Energy change     -0.000000      0.000001     YES

 Final energy is   -647.146062817129     


 ******************************
 **  OPTIMIZATION CONVERGED  **
 ******************************

                       Coordinates (Angstroms)
     ATOM                X               Y               Z
      1  O         3.3615137733   -0.8706715963   -0.7367121160
      2  C         2.3520910218   -0.1477068439   -0.0607564403
      3  C         2.8275778489    0.8013837565    1.0207510304
      4  O         1.9657061020    1.4742642462    1.5919493370
      5  C         4.2479380434    0.8866824524    1.3083078479
      6  C         4.8428275029    1.7534762022    2.2003721520
      7  C         4.1674600878    2.9239332985    2.8793290580
      8  O         3.1385633700    2.5532948608    3.7701574444
      9  O         5.1580174946    3.5953326212    3.6121964546
     10  H         3.6711810400   -1.5808697093   -0.1647728906
     11  H         1.6178552510   -0.8128749143    0.3993373094
     12  H         1.8289668604    0.4567566373   -0.8014742884
     13  H         4.8919205719    0.2042346476    0.7748594930
     14  H         5.9175330046    1.8599998503    2.1254664951
     15  H         3.7606462335    3.5803549902    2.1020541754
     16  H         2.4363747177    2.1793599046    3.2087877532
     17  H         4.7872181121    4.4343308623    3.9095619598
     18  O         4.9797942500    0.5436807331    3.7108345668
     19  O         6.1224363210   -0.1847727329    3.6233614752
     20  H         6.8374883930    0.4451659335    3.8144289830

Z-matrix Print:
$molecule
0 2
O 
O  1 1.357913
H  2 0.971920 1 104.994129
C  1 1.940067 2 110.107116 3 71.480405 0
H  4 1.082566 1 92.587476 2 -31.183779 0
C  4 1.378769 1 98.172901 2 86.006319 0
H  6 1.079359 4 117.376161 1 -82.352120 0
C  6 1.451684 4 125.962456 1 97.398764 0
O  8 1.233636 6 124.042056 4 -2.977609 0
C  4 1.512307 1 99.474887 2 -145.495951 0
H  10 1.095693 4 108.119195 1 -163.950518 0
O  10 1.403238 4 106.830385 1 77.412192 0
H  12 0.964280 10 107.813056 4 169.154209 0
O  10 1.410523 4 113.949227 1 -41.905919 0
H  14 0.973669 10 105.239080 4 -67.269560 0
C  8 1.515427 6 119.022940 4 175.883610 0
H  16 1.089816 8 106.756283 6 -121.046680 0
H  16 1.092354 8 106.958105 6 124.064812 0
O  16 1.413693 8 115.943448 6 -1.276045 0
H  19 0.963011 16 108.830890 8 76.125902 0
$end

 
 --------------------------------------------------------------
 
                    Orbital Energies (a.u.)
 --------------------------------------------------------------
 
 Alpha MOs
 -- Occupied --
-19.4245 -19.4216 -19.3490 -19.3450 -19.3411 -19.3354 -10.4555 -10.4473
-10.3976 -10.3944 -10.3675  -1.2995  -1.2048  -1.1904  -1.1640  -1.1329
 -1.0045  -0.9349  -0.8601  -0.8136  -0.7419  -0.6796  -0.6556  -0.6539
 -0.6439  -0.6255  -0.6076  -0.5931  -0.5822  -0.5766  -0.5591  -0.5308
 -0.5215  -0.5124  -0.4916  -0.4799  -0.4541  -0.4336  -0.4278  -0.4242
 -0.4143  -0.3907  -0.3648  -0.3453
 -- Virtual --
  0.0173   0.0252   0.0347   0.0364   0.0504   0.0545   0.0599   0.0658
  0.0739   0.0900   0.0991   0.1049   0.1203   0.1218   0.1273   0.1314
  0.1431   0.1472   0.1546   0.1591   0.1624   0.1674   0.1703   0.1779
  0.1868   0.1879   0.1923   0.1982   0.2058   0.2150   0.2266   0.2276
  0.2374   0.2530   0.2629   0.2703   0.2729   0.2763   0.2813   0.2861
  0.2884   0.2982   0.3042   0.3088   0.3143   0.3233   0.3278   0.3389
  0.3448   0.3515   0.3551   0.3573   0.3627   0.3649   0.3769   0.3776
  0.3841   0.3918   0.3953   0.3989   0.4084   0.4131   0.4168   0.4297
  0.4335   0.4451   0.4551   0.4590   0.4944   0.5034   0.5204   0.5359
  0.5456   0.5652   0.5853   0.5941   0.6012   0.6044   0.6194   0.6216
  0.6397   0.6448   0.6605   0.6671   0.6719   0.6803   0.6932   0.6982
  0.7038   0.7225   0.7240   0.7302   0.7403   0.7424   0.7552   0.7706
  0.7945   0.8031   0.8143   0.8378   0.8489   0.8662   0.8688   0.8772
  0.8935   0.8965   0.9207   0.9384   0.9693   0.9725   0.9985   1.0113
  1.0254   1.0388   1.0489   1.0617   1.0744   1.0795   1.1000   1.1066
  1.1193   1.1270   1.1486   1.1569   1.1676   1.1811   1.1925   1.2046
  1.2108   1.2242   1.2265   1.2321   1.2487   1.2548   1.2630   1.2682
  1.2828   1.2861   1.2891   1.3107   1.3331   1.3376   1.3492   1.3630
  1.3764   1.3803   1.4011   1.4029   1.4042   1.4218   1.4315   1.4473
  1.4517   1.4696   1.4926   1.5130   1.5240   1.5277   1.5370   1.5577
  1.5761   1.5868   1.6005   1.6079   1.6129   1.6329   1.6467   1.6509
  1.6687   1.6848   1.6951   1.7346   1.7475   1.7565   1.7848   1.8021
  1.8382   1.8655   1.8835   1.8975   1.9143   1.9465   1.9556   1.9895
  2.0164   2.0381   2.0498   2.0790   2.0908   2.1286   2.1720   2.2070
  2.2529   2.2696   2.2862   2.2944   2.3164   2.3482   2.3593   2.3803
  2.3891   2.4234   2.4483   2.4839   2.5217   2.5513   2.5676   2.6238
  2.6741   2.6763   2.7201   2.7652   2.7859   2.8017   2.8126   2.8426
  2.8632   2.8801   2.8858   2.8929   2.9138   2.9319   2.9433   2.9768
  2.9844   2.9994   3.0221   3.0693   3.0719   3.1205   3.1264   3.1730
  3.1880   3.1970   3.2219   3.2397   3.2746   3.2919   3.2988   3.3274
  3.3365   3.3526   3.3725   3.3942   3.4070   3.4303   3.4413   3.4490
  3.4939   3.5110   3.5140   3.5521   3.5613   3.5886   3.6083   3.6182
  3.6240   3.6539   3.6783   3.6955   3.7084   3.7222   3.7395   3.7605
  3.7724   3.7841   3.8103   3.8212   3.8428   3.8497   3.8645   3.8869
  3.8938   3.9100   3.9207   3.9243   3.9421   3.9690   4.0150   4.0436
  4.0720   4.0821   4.1330   4.1480   4.1609   4.1845   4.1966   4.2138
  4.2223   4.2594   4.2759   4.3096   4.3376   4.3510   4.3660   4.3779
  4.3886   4.4322   4.4358   4.4552   4.4830   4.5085   4.5224   4.5666
  4.5830   4.6450   4.6517   4.6701   4.7199   4.7397   4.7511   4.7687
  4.8338   4.8709   4.8989   4.9584   5.0070   5.1433   5.1687   5.1878
  5.2017   5.2112   5.2238   5.2319   5.2429   5.2492   5.2547   5.2697
  5.2757   5.2868   5.2961   5.3058   5.3130   5.3252   5.3348   5.3436
  5.3669   5.4017   5.4285   5.4494   5.4607   5.4718   5.4736   5.5354
  5.5575   5.5710   5.6050   5.6066   5.6153   5.6395   5.6521   5.6674
  5.6826   5.6999   5.7139   5.7276   5.7394   5.7424   5.8137   5.9439
  5.9899   5.9981   6.0253   6.0421   6.0820   6.0923   6.2909   6.3069
  6.3143   6.5839   6.6149   6.7651   6.8381   6.9366   6.9618   7.0041
  7.0092   7.0337   7.0730   7.0835   7.0940   7.1041   7.1639   7.1996
  7.2264   7.2433   7.2970   7.3127   7.3218   7.3294   7.3421   7.3602
  7.3713   7.4023   7.4164   7.4241   7.4933   7.5117   7.6170   7.6444
  7.6531   7.6805   7.7705   7.7801   7.8076   7.8289   7.9276   7.9511
  8.0520  24.4742  24.7675  24.8137  24.9613  25.1750  50.4412  50.5018
 50.5824  50.6173  50.6281  50.7754
 
 Beta MOs
 -- Occupied --
-19.4175 -19.4082 -19.3490 -19.3450 -19.3380 -19.3355 -10.4553 -10.4478
-10.4005 -10.3944 -10.3616  -1.2810  -1.2044  -1.1863  -1.1635  -1.1330
 -0.9811  -0.9254  -0.8586  -0.8105  -0.7396  -0.6761  -0.6535  -0.6499
 -0.6428  -0.6216  -0.6046  -0.5806  -0.5703  -0.5620  -0.5365  -0.5252
 -0.5183  -0.5052  -0.4894  -0.4791  -0.4500  -0.4323  -0.4251  -0.4048
 -0.3948  -0.3655  -0.3565
 -- Virtual --
 -0.0677   0.0239   0.0322   0.0361   0.0369   0.0524   0.0547   0.0610
  0.0662   0.0745   0.0902   0.0991   0.1051   0.1209   0.1242   0.1273
  0.1370   0.1436   0.1481   0.1553   0.1597   0.1637   0.1685   0.1732
  0.1779   0.1872   0.1901   0.1923   0.2031   0.2065   0.2160   0.2267
  0.2279   0.2376   0.2530   0.2647   0.2704   0.2733   0.2769   0.2810
  0.2872   0.2888   0.2989   0.3055   0.3095   0.3150   0.3243   0.3290
  0.3394   0.3451   0.3522   0.3561   0.3583   0.3636   0.3647   0.3773
  0.3784   0.3854   0.3924   0.3971   0.3988   0.4087   0.4137   0.4174
  0.4303   0.4351   0.4455   0.4553   0.4599   0.4966   0.5047   0.5215
  0.5364   0.5468   0.5663   0.5864   0.5953   0.6015   0.6058   0.6199
  0.6229   0.6409   0.6470   0.6604   0.6682   0.6744   0.6820   0.6929
  0.6995   0.7071   0.7243   0.7246   0.7314   0.7415   0.7442   0.7561
  0.7727   0.7933   0.8043   0.8159   0.8394   0.8502   0.8676   0.8702
  0.8788   0.8973   0.8981   0.9213   0.9398   0.9704   0.9728   0.9992
  1.0128   1.0268   1.0393   1.0500   1.0635   1.0764   1.0811   1.1011
  1.1086   1.1214   1.1292   1.1502   1.1601   1.1680   1.1826   1.1947
  1.2084   1.2137   1.2261   1.2281   1.2327   1.2516   1.2573   1.2660
  1.2696   1.2877   1.2903   1.2925   1.3124   1.3362   1.3394   1.3504
  1.3663   1.3800   1.3889   1.4018   1.4040   1.4088   1.4243   1.4330
  1.4498   1.4546   1.4746   1.4941   1.5142   1.5246   1.5291   1.5379
  1.5611   1.5827   1.5882   1.6042   1.6095   1.6143   1.6334   1.6494
  1.6524   1.6716   1.6888   1.6972   1.7392   1.7554   1.7598   1.7893
  1.8052   1.8413   1.8710   1.8873   1.9021   1.9183   1.9497   1.9573
  1.9987   2.0192   2.0421   2.0526   2.0852   2.0959   2.1318   2.1744
  2.2114   2.2557   2.2710   2.2951   2.2992   2.3187   2.3505   2.3601
  2.3816   2.3919   2.4249   2.4498   2.4848   2.5235   2.5550   2.5698
  2.6259   2.6804   2.6819   2.7238   2.7689   2.7867   2.8047   2.8153
  2.8435   2.8644   2.8865   2.8960   2.9026   2.9182   2.9390   2.9521
  2.9775   2.9964   2.9998   3.0259   3.0705   3.0732   3.1234   3.1314
  3.1747   3.1879   3.2039   3.2241   3.2418   3.2770   3.2904   3.3008
  3.3293   3.3345   3.3522   3.3763   3.4004   3.4104   3.4387   3.4450
  3.4546   3.4967   3.5151   3.5180   3.5559   3.5633   3.5895   3.6108
  3.6196   3.6265   3.6559   3.6837   3.6925   3.7127   3.7233   3.7428
  3.7652   3.7746   3.7866   3.8129   3.8232   3.8438   3.8556   3.8662
  3.8885   3.8961   3.9126   3.9226   3.9244   3.9427   3.9697   4.0170
  4.0483   4.0731   4.0864   4.1355   4.1498   4.1603   4.1875   4.2029
  4.2145   4.2248   4.2602   4.2803   4.3111   4.3419   4.3535   4.3660
  4.3783   4.3892   4.4341   4.4381   4.4583   4.4833   4.5119   4.5246
  4.5711   4.5883   4.6525   4.6692   4.6778   4.7279   4.7481   4.7567
  4.7763   4.8417   4.8768   4.9035   4.9706   5.0203   5.1668   5.1965
  5.1998   5.2173   5.2257   5.2267   5.2389   5.2534   5.2596   5.2702
  5.2768   5.2854   5.2993   5.3104   5.3146   5.3231   5.3351   5.3405
  5.3593   5.3945   5.4035   5.4364   5.4537   5.4644   5.4839   5.4887
  5.5426   5.5588   5.5747   5.6080   5.6088   5.6196   5.6509   5.6550
  5.6714   5.6854   5.7011   5.7176   5.7340   5.7446   5.7492   5.8270
  5.9440   5.9906   5.9999   6.0279   6.0424   6.0829   6.0940   6.3057
  6.3211   6.3299   6.5838   6.6157   6.7657   6.8414   6.9787   6.9884
  7.0171   7.0243   7.0602   7.0792   7.0958   7.1050   7.1406   7.1696
  7.2111   7.2308   7.2880   7.2974   7.3128   7.3233   7.3308   7.3428
  7.3619   7.3816   7.4123   7.4245   7.4292   7.4956   7.5557   7.6233
  7.6452   7.6583   7.6841   7.7711   7.7801   7.8108   7.8320   7.9307
  7.9733   8.0593  24.4753  24.7676  24.8140  24.9613  25.1768  50.4478
 50.5106  50.5825  50.6172  50.6282  50.7777
 --------------------------------------------------------------
 
          Ground-State Mulliken Net Atomic Charges

     Atom                 Charge (a.u.)    Spin (a.u.)
  --------------------------------------------------------
      1 O                    -0.426679       0.000084
      2 C                    -0.375943       0.001912
      3 C                     0.184579       0.003535
      4 O                    -0.453344       0.112198
      5 C                     0.076275       0.375193
      6 C                    -0.116479      -0.159039
      7 C                    -0.352290       0.009576
      8 O                    -0.427026      -0.002624
      9 O                    -0.448856      -0.001043
     10 H                     0.335224       0.000284
     11 H                     0.216282       0.001229
     12 H                     0.206971       0.001051
     13 H                     0.264517      -0.007144
     14 H                     0.356378       0.012402
     15 H                     0.284177      -0.004179
     16 H                     0.328427      -0.000791
     17 H                     0.339768       0.000440
     18 O                    -0.122914       0.524328
     19 O                    -0.220114       0.137429
     20 H                     0.351047      -0.004842
  --------------------------------------------------------
  Sum of atomic charges =     0.000000
  Sum of spin   charges =     1.000000

 -----------------------------------------------------------------
                    Cartesian Multipole Moments
 -----------------------------------------------------------------
    Charge (ESU x 10^10)
                -0.0000
    Dipole Moment (Debye)
         X       3.0650      Y      -0.0223      Z      -2.8486
       Tot       4.1844
    Quadrupole Moments (Debye-Ang)
        XX     -35.0055     XY       6.8168     YY     -54.3893
        XZ      -0.6652     YZ      -2.5890     ZZ     -90.1690
    Octopole Moments (Debye-Ang^2)
       XXX    -511.3150    XXY     -33.3206    XYY    -208.8056
       YYY    -177.9875    XXZ     -74.9163    XYZ      10.2683
       YYZ    -111.1991    XZZ    -319.9482    YZZ     -90.0172
       ZZZ    -507.5808
    Hexadecapole Moments (Debye-Ang^3)
      XXXX   -4668.6082   XXXY    -708.9087   XXYY   -1198.5704
      XYYY    -724.2111   YYYY    -989.4194   XXXZ   -1109.9751
      XXYZ    -139.0618   XYYZ    -499.9909   YYYZ    -516.7832
      XXZZ   -1583.5447   XYZZ    -310.6535   YYZZ    -622.3154
      XZZZ   -2097.2083   YZZZ    -845.1673   ZZZZ   -3141.8074
 -----------------------------------------------------------------
 Total job time:  12232.15s(wall), 172784.81s(cpu) 
 Fri Jul 12 07:41:58 2024

        *************************************************************
        *                                                           *
        *  Thank you very much for using Q-Chem.  Have a nice day.  *
        *                                                           *
        *************************************************************


