
Running Job 1 of 2 Q_in.in
qchem Q_in.in_261821.0 /scratch/ari.fischer/qChem2100618.hpc-mn1/qchem261821/ 0
/usr/local/qchem-5.4.1/exe/qcprog.exe_s Q_in.in_261821.0 /scratch/ari.fischer/qChem2100618.hpc-mn1/qchem261821/
                  Welcome to Q-Chem
     A Quantum Leap Into The Future Of Chemistry


 Q-Chem 5.4, Q-Chem, Inc., Pleasanton, CA (2021)

 License issued to: Nanyang Technological University (site)

 E. Epifanovsky,  A. T. B. Gilbert,  Xintian Feng,  Joonho Lee,  Yuezhi Mao,  
 N. Mardirossian,  P. Pokhilko,  A. White,  M. Wormit,  M. P. Coons,  
 A. L. Dempwolff,  Zhengting Gan,  D. Hait,  P. R. Horn,  L. D. Jacobson,  
 I. Kaliman,  J. Kussmann,  A. W. Lange,  Ka Un Lao,  D. S. Levine,  Jie Liu,  
 S. C. McKenzie,  A. F. Morrison,  K. Nanda,  F. Plasser,  D. R. Rehn,  
 M. L. Vidal,  Zhi-Qiang You,  Ying Zhu,  B. Alam,  B. Albrecht,  
 A. Aldossary,  E. Alguire,  J. H. Andersen,  D. Barton,  K. Begam,  A. Behn,  
 Y. A. Bernard,  E. J. Berquist,  H. Burton,  A. Carreras,  K. Carter-Fenk,  
 R. Chakraborty,  A. D. Chien,  K. D. Closser,  V. Cofer-Shabica,  
 S. Dasgupta,  Jia Deng,  M. de Wergifosse,  M. Diedenhofen,  Hainam Do,  
 S. Ehlert,  Po-Tung Fang,  S. Fatehi,  Qingguo Feng,  T. Friedhoff,  
 J. Gayvert,  Qinghui Ge,  G. Gidofalvi,  M. Goldey,  J. Gomes,  
 C. Gonzalez-Espinoza,  S. Gulania,  A. Gunina,  M. W. D. Hanson-Heine,  
 P. H. P. Harbach,  A. W. Hauser,  M. F. Herbst,  M. Hernandez Vera,  
 M. Hodecker,  Z. C. Holden,  S. Houck,  Xunkun Huang,  Kerwin Hui,  
 B. C. Huynh,  M. Ivanov,  Hyunjun Ji,  Hanjie Jiang,  B. Kaduk,  S. Kaehler,  
 K. Khistyaev,  Jaehoon Kim,  P. Klunzinger,  Z. Koczor-Benda,  
 Joong Hoon Koh,  D. Kosenkov,  L. Koulias,  T. Kowalczyk,  C. M. Krauter,  
 K. Kue,  A. Kunitsa,  T. Kus,  A. Landau,  K. V. Lawler,  D. Lefrancois,  
 S. Lehtola,  Rain Li,  Yi-Pei Li,  Jiashu Liang,  M. Liebenthal,  
 Hung-Hsuan Lin,  You-Sheng Lin,  Fenglai Liu,  Kuan-Yu Liu,  
 M. Loipersberger,  A. Luenser,  A. Manjanath,  P. Manohar,  E. Mansoor,  
 S. F. Manzer,  Shan-Ping Mao,  A. V. Marenich,  T. Markovich,  S. Mason,  
 S. A. Maurer,  P. F. McLaughlin,  M. F. S. J. Menger,  J.-M. Mewes,  
 S. A. Mewes,  P. Morgante,  J. W. Mullinax,  K. J. Oosterbaan,  G. Paran,  
 Alexander C. Paul,  Suranjan K. Paul,  F. Pavosevic,  Zheng Pei,  S. Prager,  
 E. I. Proynov,  E. Ramos,  B. Rana,  A. E. Rask,  A. Rettig,  R. M. Richard,  
 F. Rob,  E. Rossomme,  T. Scheele,  M. Scheurer,  M. Schneider,  
 N. Sergueev,  S. M. Sharada,  W. Skomorowski,  D. W. Small,  C. J. Stein,  
 Yu-Chuan Su,  E. J. Sundstrom,  Zhen Tao,  J. Thirman,  T. Tsuchimochi,  
 N. M. Tubman,  S. P. Veccham,  O. Vydrov,  J. Wenzel,  J. Witte,  A. Yamada,  
 Kun Yao,  S. Yeganeh,  S. R. Yost,  A. Zech,  Igor Ying Zhang,  Xing Zhang,  
 Yu Zhang,  D. Zuev,  A. Aspuru-Guzik,  A. T. Bell,  N. A. Besley,  
 K. B. Bravaya,  B. R. Brooks,  D. Casanova,  Jeng-Da Chai,  S. Coriani,  
 C. J. Cramer,  A. E. DePrince, III,  R. A. DiStasio Jr.,  A. Dreuw,  
 B. D. Dunietz,  T. R. Furlani,  W. A. Goddard III,  S. Grimme,  
 S. Hammes-Schiffer,  T. Head-Gordon,  W. J. Hehre,  Chao-Ping Hsu,  
 T.-C. Jagau,  Yousung Jung,  A. Klamt,  Jing Kong,  D. S. Lambrecht,  
 WanZhen Liang,  N. J. Mayhall,  C. W. McCurdy,  J. B. Neaton,  
 C. Ochsenfeld,  J. A. Parkhill,  R. Peverati,  V. A. Rassolov,  Yihan Shao,  
 L. V. Slipchenko,  T. Stauch,  R. P. Steele,  J. E. Subotnik,  
 A. J. W. Thom,  A. Tkatchenko,  D. G. Truhlar,  T. Van Voorhis,  
 T. A. Wesolowski,  K. B. Whaley,  H. L. Woodcock III,  P. M. Zimmerman,  
 S. Faraji,  P. M. W. Gill,  M. Head-Gordon,  J. M. Herbert,  A. I. Krylov

 Additional authors for Version 5.4.1: 
 S. Kotaru,  Shaozhi Li,  Xiangyuan Li,  F. Matz,  A. Molle,  Haisheng Ren,  
 Yingli Su,  Hung-Yi Tsai,  C. Utku,  Fang Wang

 Contributors to earlier versions of Q-Chem not listed above: 
 R. D. Adamson,  B. Austin,  R. Baer,  J. Baker,  G. J. O. Beran,  
 K. Brandhorst,  S. T. Brown,  E. F. C. Byrd,  A. K. Chakraborty,  
 G. K. L. Chan,  Chun-Min Chang,  Yunqing Chen,  C.-L. Cheng,  
 Siu Hung Chien,  D. M. Chipman,  D. L. Crittenden,  H. Dachsel,  
 R. J. Doerksen,  A. D. Dutoi,  R. G. Edgar,  J. Fosso-Tande,  
 L. Fusti-Molnar,  D. Ghosh,  A. Ghysels,  A. Golubeva-Zadorozhnaya,  
 J. Gonthier,  M. S. Gordon,  S. R. Gwaltney,  G. Hawkins,  J. E. Herr,  
 A. Heyden,  S. Hirata,  E. G. Hohenstein,  G. Kedziora,  F. J. Keil,  
 C. Kelley,  Jihan Kim,  R. A. King,  R. Z. Khaliullin,  P. P. Korambath,  
 W. Kurlancheek,  A. Laurent,  A. M. Lee,  M. S. Lee,  S. V. Levchenko,  
 Ching Yeh Lin,  D. Liotard,  E. Livshits,  R. C. Lochan,  I. Lotan,  
 L. A. Martinez-Martinez,  P. E. Maslen,  N. Nair,  D. P. O'Neill,  
 D. Neuhauser,  E. Neuscamman,  C. M. Oana,  R. Olivares-Amaya,  R. Olson,  
 T. M. Perrine,  B. Peters,  P. A. Pieniazek,  A. Prociuk,  Y. M. Rhee,  
 J. Ritchie,  M. A. Rohrdanz,  E. Rosta,  N. J. Russ,  H. F. Schaefer III,  
 M. W. Schmidt,  N. E. Schultz,  S. Sharma,  N. Shenvi,  C. D. Sherrill,  
 A. C. Simmonett,  A. Sodt,  T. Stein,  D. Stuck,  K. S. Thanthiriwatte,  
 V. Vanovschi,  L. Vogt,  Tao Wang,  A. Warshel,  M. A. Watson,  
 C. F. Williams,  Q. Wu,  X. Xu,  Jun Yang,  W. Zhang,  Yan Zhao

 Please cite Q-Chem as follows:
 Y. Shao et al., Mol. Phys. 113, 184-215 (2015)
 DOI: 10.1080/00268976.2014.952696

 Q-Chem 5.4.1 for Intel X86 EM64T Linux

 Parts of Q-Chem use Armadillo 9.800.1 (Horizon Scraper).
 http://arma.sourceforge.net/

 Q-Chem begins on Tue May 14 10:04:18 2024  

 Host: 
0

     Scratch files written to /scratch/ari.fischer/qChem2100618.hpc-mn1/qchem261821//
 Aug1521 |scratch|qcdevops|jenkins|workspace|build_RNUM 8249   
 Processing $rem in /usr/local/qchem-5.4.1/config/preferences:
 Processing $rem in /home/ari.fischer/.qchemrc:
 Symmetry turned off for PCM/SM12/SMD calculation


!!********************************************.
!!******************Warning*******************.
!!Desired Analytical derivatives not available.
!!Finite difference job might take a long time.
!!********************************************.
!!********************************************.


 2-order derivative to be evaluated numerically with 1-order analytical derivatives

 Checking the input file for inconsistencies... 	...done.

--------------------------------------------------------------
User input:
--------------------------------------------------------------
$molecule
0 2
H    0.4280940    1.1305117    1.5638196
C   -0.2980639    0.9622754    0.7843881
C   -1.5482277    1.6277616    0.7939650
H   -1.9227161    2.0429023    1.7203592
C   -2.2581510    1.7468155   -0.3540926
H   -3.2183552    2.2412980   -0.3830952
C    0.1904622    0.5401601   -0.5636458
H    1.1207145   -0.0185851   -0.5161435
C   -0.8800857   -0.1387710   -1.4123971
H   -0.5041278   -0.5187134   -2.2972819
C   -1.7586941    1.0979574   -1.5999936
H   -2.4385733    1.0199690   -2.4434067
O   -1.6484532   -1.0751367   -0.7062561
H   -1.9009180   -0.7902157    0.1810412
O    0.4815739    1.7117281   -1.3510828
O   -0.7893224    2.1049116   -1.9601144
O   -0.9947140   -0.6488105    3.0731718
O   -0.7927080   -0.8662774    1.8869578
$end

$rem
BASIS = 6-311++G(2df,2p)
GUI = 2
JOB_TYPE = Frequency
METHOD = wB97M-V
SCF_ALGORITHM = DIIS_GDM
MAX_SCF_CYCLES = 400
SCF_CONVERGENCE = 6
THRESH = 11
solvent_method = SMD
$end

--------------------------------------------------------------
 ----------------------------------------------------------------
             Standard Nuclear Orientation (Angstroms)
    I     Atom           X                Y                Z
 ----------------------------------------------------------------
    1      H       0.4280940000     1.1305117000     1.5638196000
    2      C      -0.2980639000     0.9622754000     0.7843881000
    3      C      -1.5482277000     1.6277616000     0.7939650000
    4      H      -1.9227161000     2.0429023000     1.7203592000
    5      C      -2.2581510000     1.7468155000    -0.3540926000
    6      H      -3.2183552000     2.2412980000    -0.3830952000
    7      C       0.1904622000     0.5401601000    -0.5636458000
    8      H       1.1207145000    -0.0185851000    -0.5161435000
    9      C      -0.8800857000    -0.1387710000    -1.4123971000
   10      H      -0.5041278000    -0.5187134000    -2.2972819000
   11      C      -1.7586941000     1.0979574000    -1.5999936000
   12      H      -2.4385733000     1.0199690000    -2.4434067000
   13      O      -1.6484532000    -1.0751367000    -0.7062561000
   14      H      -1.9009180000    -0.7902157000     0.1810412000
   15      O       0.4815739000     1.7117281000    -1.3510828000
   16      O      -0.7893224000     2.1049116000    -1.9601144000
   17      O      -0.9947140000    -0.6488105000     3.0731718000
   18      O      -0.7927080000    -0.8662774000     1.8869578000
 ----------------------------------------------------------------
 Nuclear Repulsion Energy =         664.81906244 hartrees
 There are       42 alpha and       41 beta electrons
 Requested basis set is 6-311++G(2df,2p)
 There are 130 shells and 444 basis functions

 Total QAlloc Memory Limit 288000 MB
 Mega-Array Size       188 MB
 MEM_STATIC part       192 MB
 
 Citation of the SMD model:
 Marenich, A.V.; Cramer, C.J.; Truhlar, D.G.
 J. Phys. Chem. B 2009, 113, 6378-6396.
 iSolventCode=           1
 Solvent: water                                                           
 
 vradii
            1           2           3           4           5           6
    1   1.2000000   1.8500000   1.8500000   1.2000000   1.8500000   1.2000000
            7           8           9          10          11          12
    1   1.8500000   1.2000000   1.8500000   1.2000000   1.8500000   1.2000000
           13          14          15          16          17          18
    1   1.5200000   1.2000000   1.5200000   1.5200000   1.5200000   1.5200000
 Changing PCM_VDW_RADII to SMD_RADIUS
 Discretize the solute cavity surface with Lebedev spheres
	Using 110 Lebedev grid points for each H atom
	Using 194 Lebedev grid points for other atoms
	Atomic van der Waals radii will be scaled by 1.20
 Remove points where switching function is < 1.0e-08
 Keep 1352 surface tesserae and discard 1552 interior tesserae
 Molecular Surface Area = 155.523 Angst**2
 A cutoff of  1.0D-11 yielded   7601 shell pairs
 There are     88775 function pairs (    111657 Cartesian)
 Smallest overlap matrix eigenvalue = 2.42E-06

 Q-Chem warning in module stvman/mkSTV.C, line 323:

 Overlap eigenvalue is smaller than square root of threshold
 Use THRESH >= 12 to get rid of this warning

 Guess from superposition of atomic densities
 Warning:  Energy on first SCF cycle will be non-variational
 SAD guess density has 83.000000 electrons

 -----------------------------------------------------------------------
  General SCF calculation program by
  Eric Jon Sundstrom, Paul Horn, Yuezhi Mao, Dmitri Zuev, Alec White,
  David Stuck, Shaama M.S., Shane Yost, Joonho Lee, David Small,
  Daniel Levine, Susi Lehtola, Hugh Burton, Evgeny Epifanovsky,
  Bang C. Huynh
 -----------------------------------------------------------------------
 Exchange:     0.1500 Hartree-Fock + 1.0000 wB97M-V + LR-HF
 Correlation:  1.0000 wB97M-V
 Using SG-2 standard quadrature grid
 Nonlocal Correlation:  VV10 with C = 0.0100 and b = 6.00 and scale = 1.00000
 Grid used for NLC:  SG-1 standard quadrature
 using 16 threads for integral computing
 -------------------------------------------------------
 OpenMP Integral computing Module                
 Release: version 1.0, May 2013, Q-Chem Inc. Pittsburgh 
 -------------------------------------------------------
 
 Citation of the SMD model:
 Marenich, A.V.; Cramer, C.J.; Truhlar, D.G.
 J. Phys. Chem. B 2009, 113, 6378-6396.
 iSolventCode=           1
 Solvent: water                                                           
 
 vradii
            1           2           3           4           5           6
    1   1.2000000   1.8500000   1.8500000   1.2000000   1.8500000   1.2000000
            7           8           9          10          11          12
    1   1.8500000   1.2000000   1.8500000   1.2000000   1.8500000   1.2000000
           13          14          15          16          17          18
    1   1.5200000   1.2000000   1.5200000   1.5200000   1.5200000   1.5200000
 -------------------------------------------------------
 OpenMP BLAS3 based DFT computing Module                
 Release: version 1.0, May 2013, Q-Chem Inc. Pittsburgh 
 -------------------------------------------------------
 A unrestricted SCF calculation will be
 performed using DIIS, GDM
 SCF converges when RMS gradient is below 1.0e-06
 ---------------------------------------
  Cycle       Energy         DIIS error
 ---------------------------------------
    1    -611.4570065705      1.19e-02  
    2    -608.5673240649      1.10e-03  Done DIIS. Switching to GDM
 ---------------------------------------
  Cycle       Energy        RMS Gradient
 ---------------------------------------
    1    -608.5673240649      5.01e-02   Descent step
    2    -608.6522417767      1.96e-02   Normal BFGS step
    3    -608.6672195642      2.84e-02   Normal BFGS step
    4    -608.6698968097      1.33e-02   Normal BFGS step
    5    -608.6710821004      1.40e-02   Normal BFGS step
    6    -608.6715960417      1.18e-02   Normal BFGS step
    7    -608.6725328219      1.59e-02   Normal BFGS step
    8    -608.6734098815      2.02e-02   Normal BFGS step
    9    -608.6747555507      2.43e-02   Normal BFGS step
   10    -608.6777984614      1.38e-02   Normal BFGS step
   11    -608.6782645816      8.54e-03   Normal BFGS step
   12    -608.6787382093      6.69e-03   Normal BFGS step
   13    -608.6788762995      2.14e-03   Normal BFGS step
   14    -608.6789197531      1.27e-03   Normal BFGS step
   15    -608.6789259184      4.55e-04   Normal BFGS step
   16    -608.6789281487      3.08e-04   Normal BFGS step
   17    -608.6789287194      2.32e-04   Normal BFGS step
   18    -608.6789289911      1.44e-04   Normal BFGS step
   19    -608.6789291037      8.68e-05   Normal BFGS step
   20    -608.6789291483      3.70e-05   Normal BFGS step
   21    -608.6789291544      1.59e-05   Normal BFGS step
   22    -608.6789291566      1.04e-05   Normal BFGS step
   23    -608.6789291575      5.63e-06   Normal BFGS step
   24    -608.6789291575      3.33e-06   Normal BFGS step
   25    -608.6789291575      1.41e-06   Normal BFGS step
   26    -608.6789291572      4.49e-07  Convergence criterion met
 ---------------------------------------
 SCF time:   CPU 3541.16s  wall 239.00s 
<S^2> =          1.384680120
(3)  G-ENP(liq) elect-nuc-pol free energy of system     -608.678929157 a.u.
(4)  G-CDS(liq) cavity-dispersion-solvent structure 
     free energy                                                1.7552 kcal/mol
(6)  G-S(liq) free energy of system                     -608.676132049 a.u.
 SCF   energy in the final basis set =     -608.6761320491
 Total energy in the final basis set =     -608.6761320491
 
 --------------------------------------------------------------
 
                    Orbital Energies (a.u.)
 --------------------------------------------------------------
 
 Alpha MOs
 -- Occupied --
-19.4754 -19.4484 -19.4072 -19.3996 -19.3446 -10.4104 -10.4081 -10.4068
-10.3735 -10.3606 -10.3565  -1.3972  -1.2734  -1.1747  -1.0686  -0.9743
 -0.9467  -0.8890  -0.8368  -0.7696  -0.7234  -0.6869  -0.6761  -0.6553
 -0.6466  -0.6389  -0.6129  -0.5892  -0.5660  -0.5620  -0.5374  -0.5307
 -0.5231  -0.5060  -0.4696  -0.4554  -0.4308  -0.4076  -0.4018  -0.3927
 -0.3716  -0.3532
 -- Virtual --
 -0.0126   0.0261   0.0363   0.0379   0.0507   0.0569   0.0579   0.0770
  0.0846   0.0855   0.0999   0.1142   0.1194   0.1332   0.1339   0.1397
  0.1452   0.1486   0.1504   0.1545   0.1570   0.1607   0.1640   0.1661
  0.1796   0.1826   0.1902   0.1980   0.2046   0.2093   0.2130   0.2245
  0.2324   0.2402   0.2417   0.2608   0.2724   0.2838   0.2873   0.2959
  0.2962   0.3023   0.3065   0.3146   0.3199   0.3289   0.3399   0.3457
  0.3539   0.3591   0.3602   0.3683   0.3757   0.3779   0.3818   0.3904
  0.3944   0.4015   0.4032   0.4094   0.4128   0.4215   0.4343   0.4458
  0.4612   0.4646   0.4684   0.4950   0.5048   0.5200   0.5296   0.5497
  0.5595   0.5842   0.6011   0.6068   0.6191   0.6339   0.6553   0.6638
  0.6685   0.6876   0.6933   0.7038   0.7063   0.7096   0.7181   0.7284
  0.7520   0.7575   0.7746   0.7784   0.7931   0.8033   0.8053   0.8272
  0.8308   0.8520   0.8574   0.8818   0.8984   0.9174   0.9380   0.9658
  0.9902   1.0129   1.0231   1.0502   1.0590   1.0813   1.0881   1.1060
  1.1145   1.1287   1.1359   1.1465   1.1560   1.1601   1.1768   1.1791
  1.2016   1.2071   1.2236   1.2260   1.2321   1.2368   1.2482   1.2530
  1.2661   1.2816   1.2849   1.3068   1.3176   1.3243   1.3305   1.3418
  1.3623   1.3663   1.3739   1.3860   1.4097   1.4148   1.4240   1.4290
  1.4504   1.4577   1.4756   1.4807   1.4966   1.5043   1.5106   1.5315
  1.5424   1.5545   1.5659   1.5714   1.5725   1.5802   1.5893   1.6088
  1.6390   1.6496   1.6760   1.6868   1.7064   1.7209   1.7730   1.7893
  1.8041   1.8178   1.8332   1.8421   1.8653   1.8789   1.8917   1.9497
  1.9692   1.9992   2.0066   2.0555   2.0755   2.0956   2.1422   2.1547
  2.2063   2.2386   2.2671   2.2821   2.3018   2.3322   2.3515   2.3775
  2.4145   2.4429   2.4876   2.4915   2.6381   2.6517   2.6903   2.7147
  2.7278   2.7415   2.7769   2.7908   2.8085   2.8363   2.8400   2.8450
  2.8619   2.8800   2.9127   2.9249   2.9519   2.9667   2.9799   3.0196
  3.0272   3.0387   3.0427   3.0738   3.0886   3.1214   3.1518   3.1860
  3.2176   3.2222   3.2410   3.2635   3.2955   3.3002   3.3332   3.3630
  3.3851   3.3996   3.4051   3.4285   3.4310   3.4500   3.4770   3.4801
  3.4960   3.5171   3.5418   3.5574   3.6007   3.6071   3.6137   3.6285
  3.6600   3.6838   3.6989   3.7090   3.7378   3.7627   3.7692   3.7766
  3.7935   3.8163   3.8396   3.8516   3.8623   3.8797   3.9035   3.9239
  3.9511   3.9611   3.9900   4.0016   4.0126   4.0375   4.0522   4.0768
  4.1145   4.1579   4.1761   4.1929   4.2337   4.2702   4.2940   4.3039
  4.3408   4.3453   4.3596   4.3887   4.3998   4.4152   4.4467   4.4652
  4.4814   4.4983   4.5236   4.5468   4.5759   4.5990   4.6041   4.6134
  4.6333   4.6392   4.6578   4.6676   4.6828   4.7091   4.7165   4.7402
  4.7581   4.7916   4.8231   4.8300   4.9035   4.9567   4.9769   4.9783
  5.0158   5.0336   5.0639   5.0887   5.1197   5.1414   5.1726   5.1808
  5.1880   5.2032   5.2238   5.2441   5.2464   5.2773   5.2875   5.2955
  5.3097   5.3179   5.3536   5.3658   5.4045   5.4228   5.4548   5.4779
  5.5097   5.5454   5.5630   5.5810   5.6295   5.6460   5.6944   5.7084
  5.7249   5.7310   5.7530   5.7943   5.8006   5.8401   5.9048   5.9356
  5.9825   6.0275   6.0598   6.0831   6.2501   6.2684   6.5944   6.6145
  6.7280   6.7454   6.7558   6.7718   6.7847   6.7923   6.9008   6.9464
  6.9966   7.0158   7.0381   7.1443   7.2075   7.2948   7.3266   7.3763
  7.3839   7.4025   7.4311   7.4403   7.4693   7.4792   7.5218   7.6253
  7.7737   7.8007   7.9014   7.9217   8.1088   8.1447   8.2328  24.4022
 24.7193  24.7708  24.8878  24.9001  25.2270  50.4784  50.5195  50.5905
 50.6518  50.6623
 
 Beta MOs
 -- Occupied --
-19.4486 -19.4236 -19.4087 -19.4012 -19.3444 -10.4100 -10.4083 -10.4065
-10.3808 -10.3659 -10.3539  -1.3486  -1.2763  -1.1745  -1.0721  -0.9785
 -0.8939  -0.8772  -0.8434  -0.7704  -0.7272  -0.6875  -0.6764  -0.6371
 -0.5999  -0.5955  -0.5768  -0.5696  -0.5566  -0.5510  -0.5368  -0.5315
 -0.5238  -0.5090  -0.4728  -0.4560  -0.4340  -0.4113  -0.4015  -0.3657
 -0.2787
 -- Virtual --
 -0.0232  -0.0103   0.0266   0.0367   0.0382   0.0514   0.0572   0.0585
  0.0738   0.0818   0.0860   0.0978   0.1113   0.1196   0.1333   0.1346
  0.1396   0.1451   0.1488   0.1509   0.1545   0.1569   0.1613   0.1655
  0.1667   0.1783   0.1832   0.1899   0.1995   0.2055   0.2101   0.2147
  0.2237   0.2328   0.2421   0.2438   0.2586   0.2732   0.2807   0.2887
  0.2963   0.2981   0.3023   0.3060   0.3188   0.3226   0.3296   0.3414
  0.3448   0.3561   0.3596   0.3674   0.3693   0.3756   0.3781   0.3831
  0.3902   0.3961   0.4019   0.4033   0.4093   0.4132   0.4244   0.4340
  0.4451   0.4628   0.4650   0.4714   0.4943   0.5034   0.5200   0.5286
  0.5496   0.5577   0.5844   0.5999   0.6023   0.6153   0.6328   0.6545
  0.6615   0.6671   0.6853   0.6915   0.6997   0.7049   0.7076   0.7164
  0.7256   0.7503   0.7559   0.7712   0.7770   0.7871   0.7997   0.8019
  0.8263   0.8297   0.8498   0.8566   0.8803   0.8994   0.9169   0.9355
  0.9643   0.9883   1.0139   1.0240   1.0535   1.0608   1.0849   1.0897
  1.1071   1.1194   1.1357   1.1471   1.1550   1.1574   1.1747   1.1772
  1.1802   1.2079   1.2103   1.2240   1.2283   1.2371   1.2426   1.2515
  1.2550   1.2722   1.2853   1.2876   1.3088   1.3191   1.3243   1.3349
  1.3437   1.3619   1.3716   1.3753   1.3847   1.4104   1.4130   1.4257
  1.4294   1.4492   1.4559   1.4738   1.4812   1.4978   1.5067   1.5198
  1.5333   1.5455   1.5593   1.5662   1.5715   1.5754   1.5900   1.6064
  1.6221   1.6432   1.6556   1.6785   1.6931   1.7081   1.7285   1.7754
  1.7893   1.8088   1.8254   1.8361   1.8519   1.8729   1.8784   1.8920
  1.9480   1.9691   1.9967   2.0073   2.0612   2.0756   2.0982   2.1446
  2.1551   2.2044   2.2403   2.2661   2.2820   2.3019   2.3520   2.3711
  2.3878   2.4192   2.4457   2.4913   2.4954   2.6372   2.6589   2.6867
  2.7130   2.7206   2.7384   2.7730   2.7823   2.8008   2.8232   2.8326
  2.8418   2.8555   2.8740   2.9064   2.9163   2.9428   2.9574   2.9638
  3.0107   3.0126   3.0294   3.0356   3.0608   3.0784   3.1170   3.1371
  3.1795   3.2095   3.2144   3.2316   3.2545   3.2833   3.2924   3.3271
  3.3531   3.3777   3.3899   3.4001   3.4196   3.4244   3.4449   3.4690
  3.4728   3.4904   3.5119   3.5344   3.5447   3.5897   3.5972   3.6082
  3.6180   3.6526   3.6768   3.6856   3.6995   3.7328   3.7480   3.7600
  3.7703   3.7843   3.8123   3.8361   3.8481   3.8555   3.8772   3.8977
  3.9181   3.9488   3.9530   3.9824   3.9990   4.0089   4.0296   4.0455
  4.0698   4.1109   4.1552   4.1675   4.1873   4.2295   4.2617   4.2834
  4.2984   4.3351   4.3434   4.3547   4.3842   4.3953   4.4062   4.4420
  4.4602   4.4743   4.4923   4.5170   4.5434   4.5743   4.5931   4.6100
  4.6322   4.6530   4.6597   4.6635   4.6786   4.6914   4.7100   4.7144
  4.7467   4.7631   4.7950   4.8180   4.8227   4.9008   4.9539   5.0122
  5.0357   5.0451   5.0637   5.1076   5.1282   5.1494   5.1548   5.1707
  5.2150   5.2236   5.2423   5.2572   5.2712   5.2834   5.2872   5.2946
  5.3055   5.3291   5.3485   5.3649   5.3968   5.4049   5.4231   5.4537
  5.4738   5.5050   5.5430   5.5554   5.5806   5.6190   5.6433   5.6900
  5.7056   5.7217   5.7771   5.7876   5.7972   5.8062   5.8368   5.8974
  5.9312   5.9803   6.0221   6.0478   6.0770   6.2487   6.2670   6.5920
  6.6120   6.7374   6.7528   6.8369   6.8427   6.8510   6.8963   7.0004
  7.0216   7.0372   7.0504   7.1029   7.2150   7.2233   7.2929   7.3358
  7.3814   7.3895   7.4198   7.4316   7.4679   7.4804   7.4907   7.5228
  7.6203   7.7741   7.8007   7.8987   7.9190   8.1365   8.1846   8.2313
 24.4002  24.7171  24.7693  24.8876  24.8979  25.2251  50.4981  50.5402
 50.5892  50.6505  50.6625
 --------------------------------------------------------------
 
          Ground-State Mulliken Net Atomic Charges

     Atom                 Charge (a.u.)    Spin (a.u.)
  --------------------------------------------------------
      1 H                     0.355606       0.021059
      2 C                    -0.191168      -0.445375
      3 C                    -0.343347       0.113380
      4 H                     0.290060      -0.007231
      5 C                    -0.223306      -0.338663
      6 H                     0.295624       0.007104
      7 C                    -0.264768      -0.001833
      8 H                     0.290159      -0.004301
      9 C                    -0.215206       0.002720
     10 H                     0.301147       0.001094
     11 C                    -0.234772       0.010231
     12 H                     0.295607      -0.002237
     13 O                    -0.378730      -0.000089
     14 H                     0.329415       0.002630
     15 O                    -0.141379      -0.034848
     16 O                    -0.106907      -0.031538
     17 O                    -0.053872       0.841910
     18 O                    -0.004162       0.865988
  --------------------------------------------------------
  Sum of atomic charges =    -0.000000
  Sum of spin   charges =     1.000000

 -----------------------------------------------------------------
                    Cartesian Multipole Moments
 -----------------------------------------------------------------
    Charge (ESU x 10^10)
                -0.0000
    Dipole Moment (Debye)
         X      -1.2669      Y       0.2030      Z       0.2501
       Tot       1.3072
    Quadrupole Moments (Debye-Ang)
        XX     -55.6706     XY      -8.8466     YY     -73.8697
        XZ       3.7374     YZ       8.1735     ZZ     -67.0971
    Octopole Moments (Debye-Ang^2)
       XXX     158.9540    XXY     -20.0900    XYY      56.9730
       YYY    -138.3349    XXZ       3.9782    XYZ       4.9573
       YYZ      29.3238    XZZ      55.9417    YZZ     -44.2650
       ZZZ       5.3046
    Hexadecapole Moments (Debye-Ang^3)
      XXXX    -625.1162   XXXY      53.8413   XXYY    -209.0755
      XYYY      97.9330   YYYY    -763.9103   XXXZ      -1.7867
      XXYZ      36.0830   XYYZ     -14.9096   YYYZ     193.1377
      XXZZ    -252.5170   XYZZ      20.0322   YYZZ    -302.0962
      XZZZ      25.8323   YZZZ     204.4119   ZZZZ    -999.5089
 -----------------------------------------------------------------
 Calculating analytic gradient of the SCF energy
 Gradient of CDS energy
            1           2           3           4           5           6
    1   0.0000865   0.0002314  -0.0000294  -0.0000601  -0.0002806  -0.0001767
    2  -0.0000536   0.0000080   0.0001596   0.0000426   0.0002745   0.0000910
    3   0.0001897   0.0000839   0.0002341   0.0002012  -0.0000199  -0.0000053
            7           8           9          10          11          12
    1   0.0001870   0.0002037  -0.0019600   0.0001029  -0.0000483  -0.0000811
    2   0.0000700  -0.0000672  -0.0028192   0.0000565   0.0000347   0.0000152
    3  -0.0000827  -0.0000152   0.0016296  -0.0001437  -0.0003200  -0.0002009
           13          14          15          16          17          18
    1   0.0020566  -0.0002994  -0.0000960   0.0001005   0.0000096   0.0000536
    2   0.0024349  -0.0001995   0.0000200  -0.0000445  -0.0000492   0.0000261
    3  -0.0017276   0.0001167  -0.0000724   0.0000435   0.0000126   0.0000762
 Gradient of SCF Energy
            1           2           3           4           5           6
    1   0.0078139  -0.0026815   0.0045793  -0.0050594   0.0295103  -0.0110882
    2   0.0019231  -0.0062464  -0.0091432   0.0009610   0.0225417   0.0023290
    3   0.0075207  -0.0012118  -0.0083972   0.0097814  -0.0164657  -0.0005060
            7           8           9          10          11          12
    1  -0.0227290   0.0072840   0.0327046  -0.0074201  -0.0125006  -0.0036120
    2   0.0143285  -0.0057216  -0.0387264   0.0144968  -0.0199807  -0.0017358
    3  -0.0026281   0.0019411  -0.0555092   0.0244719   0.0195658  -0.0115236
           13          14          15          16          17          18
    1   0.0011052  -0.0059323   0.0053423  -0.0155632  -0.0000801  -0.0016731
    2   0.0265478  -0.0015728   0.0034253  -0.0054007  -0.0014506   0.0034249
    3   0.0013169   0.0125947  -0.0030891   0.0248715  -0.0006145  -0.0021189
 Max gradient component =       5.551E-02
 RMS gradient           =       1.523E-02
 Computing fast CPCM-SWIG gradient
 Updating gradient with PCM contributions...
 -- total gradient after adding PCM contribution --
---------------------------------------------------
  Atom         X              Y              Z     
---------------------------------------------------
   1       0.000517       0.000882      -0.000475
   2       0.003427      -0.005382       0.002233
   3      -0.000964      -0.002237      -0.003870
   4      -0.001102      -0.002948       0.001147
   5       0.023935       0.027009      -0.012143
   6      -0.001047      -0.002480      -0.000262
   7      -0.014922       0.005959       0.004480
   8      -0.000977      -0.000191       0.000580
   9       0.037520      -0.036829      -0.066044
  10      -0.010931       0.017753       0.032305
  11      -0.021983      -0.024216       0.012573
  12       0.003709      -0.000703      -0.003943
  13       0.000653       0.032650       0.007623
  14      -0.003469      -0.005687       0.005505
  15       0.003235       0.002278      -0.002505
  16      -0.015090      -0.007585       0.025343
  17       0.000187      -0.001906      -0.002077
  18      -0.002698       0.003633      -0.000468
---------------------------------------------------
 Number of fixed atoms: 0
 Gradient time:  CPU 373.52 s  wall 30.37 s
 ######################################################
 ######################################################
 # Starting finite difference calculation for IDERIV  #
 Finite diff step size:  1.88973e-03 a.u.
 ----------------------------------------------------------------
             Standard Nuclear Orientation (Angstroms)
    I     Atom           X                Y                Z
 ----------------------------------------------------------------
    1      H       0.4290940000     1.1305117000     1.5638196000
    2      C      -0.2980639000     0.9622754000     0.7843881000
    3      C      -1.5482277000     1.6277616000     0.7939650000
    4      H      -1.9227161000     2.0429023000     1.7203592000
    5      C      -2.2581510000     1.7468155000    -0.3540926000
    6      H      -3.2183552000     2.2412980000    -0.3830952000
    7      C       0.1904622000     0.5401601000    -0.5636458000
    8      H       1.1207145000    -0.0185851000    -0.5161435000
    9      C      -0.8800857000    -0.1387710000    -1.4123971000
   10      H      -0.5041278000    -0.5187134000    -2.2972819000
   11      C      -1.7586941000     1.0979574000    -1.5999936000
   12      H      -2.4385733000     1.0199690000    -2.4434067000
   13      O      -1.6484532000    -1.0751367000    -0.7062561000
   14      H      -1.9009180000    -0.7902157000     0.1810412000
   15      O       0.4815739000     1.7117281000    -1.3510828000
   16      O      -0.7893224000     2.1049116000    -1.9601144000
   17      O      -0.9947140000    -0.6488105000     3.0731718000
   18      O      -0.7927080000    -0.8662774000     1.8869578000
 ----------------------------------------------------------------
 Nuclear Repulsion Energy =         664.81504336 hartrees
 There are       42 alpha and       41 beta electrons
 Discretize the solute cavity surface with Lebedev spheres
	Using 110 Lebedev grid points for each H atom
	Using 194 Lebedev grid points for other atoms
	Atomic van der Waals radii will be scaled by 1.20
 Remove points where switching function is < 1.0e-08
 Keep 1352 surface tesserae and discard 1552 interior tesserae
 Molecular Surface Area = 155.527 Angst**2
 Requested basis set is 6-311++G(2df,2p)
 There are 130 shells and 444 basis functions
 A cutoff of  1.0D-11 yielded   7601 shell pairs
 There are     88775 function pairs (    111657 Cartesian)
 Smallest overlap matrix eigenvalue = 2.42E-06

 Q-Chem warning in module stvman/mkSTV.C, line 323:

 Overlap eigenvalue is smaller than square root of threshold
 Use THRESH >= 12 to get rid of this warning

 Guess MOs from SCF MO coefficient file

 -----------------------------------------------------------------------
  General SCF calculation program by
  Eric Jon Sundstrom, Paul Horn, Yuezhi Mao, Dmitri Zuev, Alec White,
  David Stuck, Shaama M.S., Shane Yost, Joonho Lee, David Small,
  Daniel Levine, Susi Lehtola, Hugh Burton, Evgeny Epifanovsky,
  Bang C. Huynh
 -----------------------------------------------------------------------
 Exchange:     0.1500 Hartree-Fock + 1.0000 wB97M-V + LR-HF
 Correlation:  1.0000 wB97M-V
 Using SG-2 standard quadrature grid
 Nonlocal Correlation:  VV10 with C = 0.0100 and b = 6.00 and scale = 1.00000
 Grid used for NLC:  SG-1 standard quadrature
 
 Citation of the SMD model:
 Marenich, A.V.; Cramer, C.J.; Truhlar, D.G.
 J. Phys. Chem. B 2009, 113, 6378-6396.
 iSolventCode=           1
 Solvent: water                                                           
 
 vradii
            1           2           3           4           5           6
    1   1.2000000   1.8500000   1.8500000   1.2000000   1.8500000   1.2000000
            7           8           9          10          11          12
    1   1.8500000   1.2000000   1.8500000   1.2000000   1.8500000   1.2000000
           13          14          15          16          17          18
    1   1.5200000   1.2000000   1.5200000   1.5200000   1.5200000   1.5200000
 -------------------------------------------------------
 OpenMP BLAS3 based DFT computing Module                
 Release: version 1.0, May 2013, Q-Chem Inc. Pittsburgh 
 -------------------------------------------------------
 A unrestricted SCF calculation will be
 performed using Roothaan-Hall, DIIS, GDM
 SCF converges when RMS gradient is below 1.0e-06
 ---------------------------------------
  Cycle       Energy         DIIS error
 ---------------------------------------
    1    -608.6519966985      1.57e-04  Roothaan Step
 ---------------------------------------
  Cycle       Energy         DIIS error
 ---------------------------------------
    1    -608.6740884723      1.86e-04  
    2    -608.6765464108      1.85e-04  Done DIIS. Switching to GDM
 ---------------------------------------
  Cycle       Energy        RMS Gradient
 ---------------------------------------
    1    -608.6765464108      1.85e-02   Normal BFGS step
    2    -608.6753880388      3.13e-02  Line search: overstep
    3    -608.6787884035      3.79e-03   Normal BFGS step
    4    -608.6788657659      2.89e-03   Normal BFGS step
    5    -608.6789212465      7.28e-04   Normal BFGS step
    6    -608.6789250457      8.53e-04   Normal BFGS step
    7    -608.6789263274      5.10e-04   Normal BFGS step
    8    -608.6789273582      3.05e-04   Normal BFGS step
    9    -608.6789277114      1.30e-04   Normal BFGS step
   10    -608.6789278974      1.12e-04   Normal BFGS step
   11    -608.6789279710      3.58e-05   Normal BFGS step
   12    -608.6789279925      1.28e-05   Normal BFGS step
   13    -608.6789279982      1.33e-05   Normal BFGS step
   14    -608.6789279994      5.88e-06   Normal BFGS step
   15    -608.6789279999      3.70e-06   Normal BFGS step
   16    -608.6789279998      2.38e-06   Normal BFGS step
   17    -608.6789279998      1.24e-06   Normal BFGS step
   18    -608.6789279999      7.17e-07  Convergence criterion met
 ---------------------------------------
 SCF time:   CPU 2534.41s  wall 171.00s 
<S^2> =          1.384623846
(3)  G-ENP(liq) elect-nuc-pol free energy of system     -608.678928000 a.u.
(4)  G-CDS(liq) cavity-dispersion-solvent structure 
     free energy                                                1.7553 kcal/mol
(6)  G-S(liq) free energy of system                     -608.676130728 a.u.
 SCF   energy in the final basis set =     -608.6761307276
 Total energy in the final basis set =     -608.6761307276
 
 --------------------------------------------------------------
 
                    Orbital Energies (a.u.)
 --------------------------------------------------------------
 
 Alpha MOs
 -- Occupied --
-19.4754 -19.4484 -19.4072 -19.3996 -19.3446 -10.4104 -10.4081 -10.4068
-10.3736 -10.3607 -10.3565  -1.3972  -1.2734  -1.1746  -1.0686  -0.9743
 -0.9467  -0.8890  -0.8367  -0.7696  -0.7234  -0.6869  -0.6761  -0.6553
 -0.6466  -0.6389  -0.6129  -0.5891  -0.5660  -0.5620  -0.5374  -0.5307
 -0.5231  -0.5060  -0.4696  -0.4554  -0.4308  -0.4076  -0.4018  -0.3927
 -0.3716  -0.3532
 -- Virtual --
 -0.0126   0.0261   0.0363   0.0379   0.0507   0.0569   0.0579   0.0770
  0.0846   0.0855   0.0999   0.1142   0.1194   0.1332   0.1339   0.1397
  0.1452   0.1486   0.1505   0.1545   0.1570   0.1607   0.1640   0.1661
  0.1796   0.1826   0.1902   0.1980   0.2046   0.2093   0.2130   0.2245
  0.2324   0.2402   0.2417   0.2608   0.2724   0.2838   0.2873   0.2959
  0.2962   0.3023   0.3065   0.3146   0.3199   0.3289   0.3399   0.3457
  0.3539   0.3590   0.3602   0.3683   0.3757   0.3779   0.3818   0.3904
  0.3944   0.4015   0.4032   0.4094   0.4128   0.4215   0.4343   0.4459
  0.4612   0.4646   0.4684   0.4950   0.5048   0.5200   0.5296   0.5497
  0.5595   0.5842   0.6011   0.6068   0.6191   0.6339   0.6553   0.6638
  0.6685   0.6876   0.6932   0.7038   0.7064   0.7095   0.7181   0.7283
  0.7520   0.7575   0.7745   0.7784   0.7931   0.8032   0.8052   0.8272
  0.8308   0.8520   0.8574   0.8818   0.8984   0.9174   0.9380   0.9658
  0.9902   1.0128   1.0231   1.0502   1.0590   1.0813   1.0881   1.1059
  1.1145   1.1287   1.1359   1.1465   1.1560   1.1601   1.1767   1.1791
  1.2016   1.2071   1.2236   1.2260   1.2321   1.2368   1.2481   1.2530
  1.2661   1.2816   1.2848   1.3068   1.3176   1.3243   1.3305   1.3418
  1.3623   1.3663   1.3739   1.3860   1.4096   1.4148   1.4240   1.4290
  1.4504   1.4577   1.4756   1.4807   1.4966   1.5043   1.5106   1.5315
  1.5424   1.5545   1.5658   1.5714   1.5724   1.5802   1.5893   1.6088
  1.6390   1.6496   1.6759   1.6867   1.7064   1.7209   1.7730   1.7893
  1.8041   1.8177   1.8331   1.8420   1.8653   1.8789   1.8916   1.9497
  1.9691   1.9991   2.0066   2.0555   2.0755   2.0956   2.1422   2.1547
  2.2063   2.2386   2.2671   2.2821   2.3018   2.3322   2.3516   2.3775
  2.4145   2.4429   2.4875   2.4915   2.6381   2.6517   2.6903   2.7148
  2.7278   2.7415   2.7769   2.7909   2.8085   2.8363   2.8400   2.8451
  2.8619   2.8800   2.9127   2.9249   2.9519   2.9667   2.9798   3.0196
  3.0271   3.0387   3.0427   3.0737   3.0886   3.1213   3.1516   3.1860
  3.2175   3.2221   3.2409   3.2635   3.2954   3.3002   3.3331   3.3630
  3.3851   3.3996   3.4051   3.4285   3.4309   3.4500   3.4771   3.4799
  3.4960   3.5171   3.5418   3.5573   3.6006   3.6070   3.6136   3.6286
  3.6598   3.6838   3.6989   3.7090   3.7379   3.7627   3.7692   3.7766
  3.7934   3.8163   3.8396   3.8516   3.8622   3.8796   3.9036   3.9240
  3.9511   3.9610   3.9901   4.0016   4.0126   4.0373   4.0521   4.0767
  4.1145   4.1579   4.1760   4.1929   4.2336   4.2702   4.2939   4.3038
  4.3408   4.3453   4.3594   4.3885   4.3998   4.4152   4.4467   4.4651
  4.4813   4.4982   4.5233   4.5466   4.5758   4.5989   4.6041   4.6134
  4.6332   4.6392   4.6578   4.6675   4.6826   4.7090   4.7164   4.7400
  4.7580   4.7916   4.8229   4.8300   4.9034   4.9566   4.9769   4.9783
  5.0158   5.0335   5.0639   5.0887   5.1197   5.1410   5.1724   5.1808
  5.1880   5.2031   5.2237   5.2441   5.2464   5.2773   5.2875   5.2955
  5.3097   5.3179   5.3536   5.3658   5.4045   5.4228   5.4548   5.4779
  5.5097   5.5453   5.5629   5.5810   5.6293   5.6460   5.6944   5.7083
  5.7247   5.7309   5.7530   5.7942   5.8006   5.8401   5.9045   5.9354
  5.9823   6.0275   6.0593   6.0831   6.2501   6.2684   6.5944   6.6145
  6.7280   6.7454   6.7558   6.7718   6.7847   6.7923   6.9009   6.9463
  6.9966   7.0158   7.0381   7.1443   7.2075   7.2948   7.3266   7.3763
  7.3839   7.4024   7.4311   7.4403   7.4693   7.4792   7.5218   7.6253
  7.7737   7.8007   7.9014   7.9217   8.1088   8.1447   8.2328  24.4019
 24.7191  24.7706  24.8877  24.8999  25.2269  50.4784  50.5195  50.5905
 50.6518  50.6623
 
 Beta MOs
 -- Occupied --
-19.4486 -19.4236 -19.4087 -19.4012 -19.3444 -10.4100 -10.4083 -10.4065
-10.3808 -10.3659 -10.3539  -1.3486  -1.2763  -1.1745  -1.0721  -0.9785
 -0.8939  -0.8772  -0.8434  -0.7704  -0.7272  -0.6875  -0.6764  -0.6371
 -0.5999  -0.5955  -0.5768  -0.5696  -0.5566  -0.5510  -0.5368  -0.5315
 -0.5238  -0.5090  -0.4728  -0.4560  -0.4340  -0.4113  -0.4015  -0.3657
 -0.2787
 -- Virtual --
 -0.0232  -0.0103   0.0266   0.0367   0.0382   0.0514   0.0572   0.0585
  0.0738   0.0818   0.0860   0.0978   0.1113   0.1196   0.1333   0.1346
  0.1396   0.1451   0.1488   0.1509   0.1545   0.1569   0.1613   0.1655
  0.1667   0.1783   0.1832   0.1899   0.1995   0.2055   0.2101   0.2147
  0.2237   0.2328   0.2421   0.2438   0.2586   0.2732   0.2807   0.2887
  0.2963   0.2981   0.3023   0.3060   0.3188   0.3226   0.3296   0.3414
  0.3447   0.3561   0.3596   0.3674   0.3693   0.3756   0.3781   0.3831
  0.3902   0.3960   0.4020   0.4033   0.4093   0.4132   0.4244   0.4340
  0.4451   0.4628   0.4650   0.4714   0.4943   0.5034   0.5200   0.5286
  0.5496   0.5577   0.5844   0.5999   0.6023   0.6153   0.6328   0.6545
  0.6615   0.6671   0.6853   0.6914   0.6997   0.7049   0.7076   0.7163
  0.7256   0.7503   0.7559   0.7712   0.7770   0.7871   0.7996   0.8019
  0.8263   0.8297   0.8498   0.8567   0.8803   0.8994   0.9169   0.9355
  0.9643   0.9883   1.0138   1.0240   1.0535   1.0607   1.0849   1.0898
  1.1071   1.1194   1.1357   1.1471   1.1550   1.1574   1.1747   1.1772
  1.1801   1.2079   1.2103   1.2240   1.2283   1.2371   1.2426   1.2514
  1.2549   1.2722   1.2852   1.2876   1.3088   1.3191   1.3243   1.3349
  1.3437   1.3618   1.3715   1.3753   1.3847   1.4104   1.4129   1.4257
  1.4294   1.4491   1.4559   1.4737   1.4812   1.4978   1.5067   1.5198
  1.5333   1.5455   1.5592   1.5662   1.5714   1.5754   1.5899   1.6064
  1.6220   1.6432   1.6556   1.6784   1.6931   1.7081   1.7285   1.7753
  1.7892   1.8088   1.8253   1.8361   1.8519   1.8728   1.8784   1.8920
  1.9480   1.9689   1.9967   2.0072   2.0612   2.0755   2.0982   2.1446
  2.1551   2.2044   2.2403   2.2660   2.2820   2.3019   2.3520   2.3711
  2.3878   2.4192   2.4457   2.4912   2.4954   2.6372   2.6589   2.6867
  2.7130   2.7206   2.7384   2.7730   2.7824   2.8009   2.8232   2.8326
  2.8418   2.8555   2.8741   2.9064   2.9162   2.9428   2.9573   2.9638
  3.0107   3.0126   3.0294   3.0356   3.0608   3.0784   3.1168   3.1370
  3.1796   3.2094   3.2144   3.2315   3.2544   3.2832   3.2924   3.3270
  3.3531   3.3777   3.3899   3.4002   3.4195   3.4244   3.4448   3.4688
  3.4728   3.4903   3.5119   3.5344   3.5446   3.5896   3.5970   3.6082
  3.6180   3.6524   3.6768   3.6856   3.6996   3.7328   3.7481   3.7599
  3.7703   3.7842   3.8123   3.8361   3.8481   3.8554   3.8772   3.8978
  3.9180   3.9488   3.9529   3.9824   3.9989   4.0089   4.0293   4.0455
  4.0697   4.1109   4.1552   4.1674   4.1873   4.2295   4.2617   4.2832
  4.2983   4.3350   4.3434   4.3545   4.3840   4.3953   4.4062   4.4420
  4.4602   4.4742   4.4922   4.5167   4.5432   4.5742   4.5930   4.6100
  4.6321   4.6530   4.6596   4.6634   4.6786   4.6913   4.7100   4.7144
  4.7466   4.7629   4.7949   4.8178   4.8226   4.9007   4.9538   5.0120
  5.0357   5.0451   5.0637   5.1076   5.1278   5.1494   5.1548   5.1705
  5.2150   5.2235   5.2423   5.2572   5.2712   5.2834   5.2872   5.2946
  5.3055   5.3291   5.3485   5.3649   5.3968   5.4049   5.4231   5.4536
  5.4738   5.5049   5.5430   5.5552   5.5806   5.6188   5.6432   5.6900
  5.7053   5.7215   5.7771   5.7874   5.7972   5.8062   5.8367   5.8971
  5.9310   5.9801   6.0221   6.0474   6.0770   6.2487   6.2670   6.5920
  6.6120   6.7374   6.7528   6.8369   6.8427   6.8510   6.8963   7.0004
  7.0216   7.0372   7.0504   7.1029   7.2150   7.2233   7.2929   7.3358
  7.3814   7.3895   7.4198   7.4316   7.4679   7.4804   7.4907   7.5228
  7.6203   7.7741   7.8007   7.8987   7.9190   8.1365   8.1846   8.2313
 24.3999  24.7169  24.7692  24.8876  24.8977  25.2249  50.4981  50.5402
 50.5892  50.6505  50.6625
 --------------------------------------------------------------
 
          Ground-State Mulliken Net Atomic Charges

     Atom                 Charge (a.u.)    Spin (a.u.)
  --------------------------------------------------------
      1 H                     0.355364       0.021075
      2 C                    -0.190618      -0.445401
      3 C                    -0.343710       0.113359
      4 H                     0.290070      -0.007228
      5 C                    -0.223301      -0.338616
      6 H                     0.295630       0.007101
      7 C                    -0.264692      -0.001819
      8 H                     0.290178      -0.004302
      9 C                    -0.215223       0.002720
     10 H                     0.301144       0.001093
     11 C                    -0.234782       0.010233
     12 H                     0.295603      -0.002236
     13 O                    -0.378726      -0.000089
     14 H                     0.329413       0.002630
     15 O                    -0.141382      -0.034851
     16 O                    -0.106904      -0.031536
     17 O                    -0.053893       0.841897
     18 O                    -0.004171       0.865969
  --------------------------------------------------------
  Sum of atomic charges =    -0.000000
  Sum of spin   charges =     1.000000

 -----------------------------------------------------------------
                    Cartesian Multipole Moments
 -----------------------------------------------------------------
    Charge (ESU x 10^10)
                -0.0000
    Dipole Moment (Debye)
         X      -1.2667      Y       0.2033      Z       0.2496
       Tot       1.3070
    Quadrupole Moments (Debye-Ang)
        XX     -55.6689     XY      -8.8470     YY     -73.8701
        XZ       3.7388     YZ       8.1730     ZZ     -67.0992
    Octopole Moments (Debye-Ang^2)
       XXX     158.9484    XXY     -20.0868    XYY      56.9707
       YYY    -138.3358    XXZ       3.9785    XYZ       4.9586
       YYZ      29.3214    XZZ      55.9434    YZZ     -44.2659
       ZZZ       5.2977
    Hexadecapole Moments (Debye-Ang^3)
      XXXX    -625.1077   XXXY      53.8307   XXYY    -209.0701
      XYYY      97.9244   YYYY    -763.9126   XXXZ      -1.7875
      XXYZ      36.0835   XYYZ     -14.9087   YYYZ     193.1323
      XXZZ    -252.5162   XYZZ      20.0320   YYZZ    -302.1005
      XZZZ      25.8345   YZZZ     204.4073   ZZZZ    -999.5310
 -----------------------------------------------------------------
 Calculating analytic gradient of the SCF energy
 Gradient of CDS energy
            1           2           3           4           5           6
    1   0.0000873   0.0002306  -0.0000294  -0.0000601  -0.0002806  -0.0001767
    2  -0.0000534   0.0000079   0.0001596   0.0000426   0.0002745   0.0000910
    3   0.0001902   0.0000834   0.0002341   0.0002012  -0.0000199  -0.0000053
            7           8           9          10          11          12
    1   0.0001869   0.0002037  -0.0019600   0.0001029  -0.0000483  -0.0000811
    2   0.0000700  -0.0000672  -0.0028192   0.0000565   0.0000347   0.0000152
    3  -0.0000826  -0.0000152   0.0016296  -0.0001437  -0.0003200  -0.0002009
           13          14          15          16          17          18
    1   0.0020566  -0.0002994  -0.0000960   0.0001005   0.0000096   0.0000536
    2   0.0024349  -0.0001995   0.0000200  -0.0000445  -0.0000493   0.0000261
    3  -0.0017276   0.0001167  -0.0000724   0.0000435   0.0000126   0.0000762
 Gradient of SCF Energy
            1           2           3           4           5           6
    1   0.0081880  -0.0030468   0.0045606  -0.0050576   0.0294998  -0.0110898
    2   0.0019634  -0.0062798  -0.0091584   0.0009588   0.0225493   0.0023303
    3   0.0078053  -0.0014883  -0.0084323   0.0097801  -0.0164667  -0.0005085
            7           8           9          10          11          12
    1  -0.0227067   0.0072863   0.0327015  -0.0074189  -0.0125009  -0.0036122
    2   0.0143383  -0.0057221  -0.0387267   0.0144973  -0.0199805  -0.0017360
    3  -0.0026008   0.0019402  -0.0555049   0.0244729   0.0195675  -0.0115242
           13          14          15          16          17          18
    1   0.0011054  -0.0059324   0.0053421  -0.0155627  -0.0000789  -0.0016769
    2   0.0265477  -0.0015719   0.0034252  -0.0054009  -0.0014509   0.0034168
    3   0.0013163   0.0125941  -0.0030910   0.0248711  -0.0006200  -0.0021108
 Max gradient component =       5.550E-02
 RMS gradient           =       1.524E-02
 Computing fast CPCM-SWIG gradient
 Updating gradient with PCM contributions...
 -- total gradient after adding PCM contribution --
---------------------------------------------------
  Atom         X              Y              Z     
---------------------------------------------------
   1       0.000881       0.000926      -0.000179
   2       0.003066      -0.005419       0.001947
   3      -0.000977      -0.002250      -0.003904
   4      -0.001100      -0.002949       0.001147
   5       0.023926       0.027015      -0.012144
   6      -0.001047      -0.002479      -0.000265
   7      -0.014901       0.005968       0.004502
   8      -0.000976      -0.000191       0.000578
   9       0.037517      -0.036829      -0.066040
  10      -0.010930       0.017753       0.032306
  11      -0.021984      -0.024216       0.012575
  12       0.003709      -0.000703      -0.003943
  13       0.000653       0.032650       0.007622
  14      -0.003469      -0.005687       0.005505
  15       0.003235       0.002278      -0.002507
  16      -0.015089      -0.007585       0.025342
  17       0.000188      -0.001907      -0.002080
  18      -0.002702       0.003625      -0.000462
---------------------------------------------------
 Number of fixed atoms: 0
 Gradient time:  CPU 380.79 s  wall 30.27 s
 ----------------------------------------------------------------
             Standard Nuclear Orientation (Angstroms)
    I     Atom           X                Y                Z
 ----------------------------------------------------------------
    1      H       0.4270940000     1.1305117000     1.5638196000
    2      C      -0.2980639000     0.9622754000     0.7843881000
    3      C      -1.5482277000     1.6277616000     0.7939650000
    4      H      -1.9227161000     2.0429023000     1.7203592000
    5      C      -2.2581510000     1.7468155000    -0.3540926000
    6      H      -3.2183552000     2.2412980000    -0.3830952000
    7      C       0.1904622000     0.5401601000    -0.5636458000
    8      H       1.1207145000    -0.0185851000    -0.5161435000
    9      C      -0.8800857000    -0.1387710000    -1.4123971000
   10      H      -0.5041278000    -0.5187134000    -2.2972819000
   11      C      -1.7586941000     1.0979574000    -1.5999936000
   12      H      -2.4385733000     1.0199690000    -2.4434067000
   13      O      -1.6484532000    -1.0751367000    -0.7062561000
   14      H      -1.9009180000    -0.7902157000     0.1810412000
   15      O       0.4815739000     1.7117281000    -1.3510828000
   16      O      -0.7893224000     2.1049116000    -1.9601144000
   17      O      -0.9947140000    -0.6488105000     3.0731718000
   18      O      -0.7927080000    -0.8662774000     1.8869578000
 ----------------------------------------------------------------
 Nuclear Repulsion Energy =         664.82308236 hartrees
 There are       42 alpha and       41 beta electrons
 Discretize the solute cavity surface with Lebedev spheres
	Using 110 Lebedev grid points for each H atom
	Using 194 Lebedev grid points for other atoms
	Atomic van der Waals radii will be scaled by 1.20
 Remove points where switching function is < 1.0e-08
 Keep 1352 surface tesserae and discard 1552 interior tesserae
 Molecular Surface Area = 155.518 Angst**2
 Requested basis set is 6-311++G(2df,2p)
 There are 130 shells and 444 basis functions
 A cutoff of  1.0D-11 yielded   7601 shell pairs
 There are     88775 function pairs (    111657 Cartesian)
 Smallest overlap matrix eigenvalue = 2.42E-06

 Q-Chem warning in module stvman/mkSTV.C, line 323:

 Overlap eigenvalue is smaller than square root of threshold
 Use THRESH >= 12 to get rid of this warning

 Guess MOs from SCF MO coefficient file

 -----------------------------------------------------------------------
  General SCF calculation program by
  Eric Jon Sundstrom, Paul Horn, Yuezhi Mao, Dmitri Zuev, Alec White,
  David Stuck, Shaama M.S., Shane Yost, Joonho Lee, David Small,
  Daniel Levine, Susi Lehtola, Hugh Burton, Evgeny Epifanovsky,
  Bang C. Huynh
 -----------------------------------------------------------------------
 Exchange:     0.1500 Hartree-Fock + 1.0000 wB97M-V + LR-HF
 Correlation:  1.0000 wB97M-V
 Using SG-2 standard quadrature grid
 Nonlocal Correlation:  VV10 with C = 0.0100 and b = 6.00 and scale = 1.00000
 Grid used for NLC:  SG-1 standard quadrature
 
 Citation of the SMD model:
 Marenich, A.V.; Cramer, C.J.; Truhlar, D.G.
 J. Phys. Chem. B 2009, 113, 6378-6396.
 iSolventCode=           1
 Solvent: water                                                           
 
 vradii
            1           2           3           4           5           6
    1   1.2000000   1.8500000   1.8500000   1.2000000   1.8500000   1.2000000
            7           8           9          10          11          12
    1   1.8500000   1.2000000   1.8500000   1.2000000   1.8500000   1.2000000
           13          14          15          16          17          18
    1   1.5200000   1.2000000   1.5200000   1.5200000   1.5200000   1.5200000
 -------------------------------------------------------
 OpenMP BLAS3 based DFT computing Module                
 Release: version 1.0, May 2013, Q-Chem Inc. Pittsburgh 
 -------------------------------------------------------
 A unrestricted SCF calculation will be
 performed using Roothaan-Hall, DIIS, GDM
 SCF converges when RMS gradient is below 1.0e-06
 ---------------------------------------
  Cycle       Energy         DIIS error
 ---------------------------------------
    1    -608.6520027763      1.57e-04  Roothaan Step
 ---------------------------------------
  Cycle       Energy         DIIS error
 ---------------------------------------
    1    -608.6740817369      1.86e-04  
    2    -608.6765384098      1.86e-04  Done DIIS. Switching to GDM
 ---------------------------------------
  Cycle       Energy        RMS Gradient
 ---------------------------------------
    1    -608.6765384098      1.85e-02   Normal BFGS step
    2    -608.6753732480      3.13e-02  Line search: overstep
    3    -608.6787897502      3.79e-03   Normal BFGS step
    4    -608.6788672093      2.89e-03   Normal BFGS step
    5    -608.6789228804      7.26e-04   Normal BFGS step
    6    -608.6789266810      8.50e-04   Normal BFGS step
    7    -608.6789279621      5.09e-04   Normal BFGS step
    8    -608.6789289883      3.04e-04   Normal BFGS step
    9    -608.6789293389      1.30e-04   Normal BFGS step
   10    -608.6789295242      1.13e-04   Normal BFGS step
   11    -608.6789295978      3.57e-05   Normal BFGS step
   12    -608.6789296193      1.28e-05   Normal BFGS step
   13    -608.6789296250      1.34e-05   Normal BFGS step
   14    -608.6789296262      6.07e-06   Normal BFGS step
   15    -608.6789296267      3.77e-06   Normal BFGS step
   16    -608.6789296266      2.42e-06   Normal BFGS step
   17    -608.6789296267      1.26e-06   Normal BFGS step
   18    -608.6789296268      7.26e-07  Convergence criterion met
 ---------------------------------------
 SCF time:   CPU 2612.79s  wall 177.00s 
<S^2> =          1.384736249
(3)  G-ENP(liq) elect-nuc-pol free energy of system     -608.678929627 a.u.
(4)  G-CDS(liq) cavity-dispersion-solvent structure 
     free energy                                                1.7551 kcal/mol
(6)  G-S(liq) free energy of system                     -608.676132681 a.u.
 SCF   energy in the final basis set =     -608.6761326815
 Total energy in the final basis set =     -608.6761326815
 
 --------------------------------------------------------------
 
                    Orbital Energies (a.u.)
 --------------------------------------------------------------
 
 Alpha MOs
 -- Occupied --
-19.4754 -19.4484 -19.4072 -19.3996 -19.3446 -10.4104 -10.4081 -10.4068
-10.3735 -10.3606 -10.3565  -1.3972  -1.2734  -1.1747  -1.0686  -0.9743
 -0.9467  -0.8890  -0.8368  -0.7696  -0.7234  -0.6869  -0.6761  -0.6553
 -0.6466  -0.6389  -0.6129  -0.5892  -0.5660  -0.5621  -0.5374  -0.5307
 -0.5231  -0.5060  -0.4696  -0.4554  -0.4308  -0.4076  -0.4018  -0.3927
 -0.3716  -0.3532
 -- Virtual --
 -0.0126   0.0261   0.0363   0.0379   0.0507   0.0569   0.0579   0.0770
  0.0846   0.0855   0.0999   0.1142   0.1194   0.1332   0.1339   0.1397
  0.1452   0.1486   0.1504   0.1545   0.1570   0.1607   0.1640   0.1661
  0.1796   0.1826   0.1902   0.1980   0.2046   0.2093   0.2130   0.2245
  0.2324   0.2402   0.2417   0.2608   0.2725   0.2838   0.2873   0.2959
  0.2962   0.3024   0.3065   0.3146   0.3199   0.3289   0.3399   0.3457
  0.3539   0.3591   0.3602   0.3683   0.3758   0.3779   0.3818   0.3904
  0.3944   0.4015   0.4032   0.4094   0.4128   0.4215   0.4343   0.4458
  0.4613   0.4646   0.4684   0.4950   0.5048   0.5200   0.5296   0.5497
  0.5595   0.5842   0.6011   0.6068   0.6192   0.6339   0.6553   0.6638
  0.6686   0.6876   0.6933   0.7038   0.7063   0.7096   0.7181   0.7284
  0.7520   0.7575   0.7746   0.7784   0.7931   0.8033   0.8053   0.8272
  0.8308   0.8520   0.8573   0.8818   0.8984   0.9174   0.9379   0.9659
  0.9902   1.0129   1.0231   1.0502   1.0590   1.0813   1.0882   1.1060
  1.1145   1.1287   1.1359   1.1466   1.1561   1.1601   1.1768   1.1791
  1.2016   1.2072   1.2236   1.2261   1.2321   1.2368   1.2482   1.2530
  1.2662   1.2816   1.2849   1.3068   1.3176   1.3243   1.3305   1.3418
  1.3624   1.3663   1.3739   1.3860   1.4097   1.4149   1.4240   1.4291
  1.4504   1.4577   1.4756   1.4807   1.4966   1.5043   1.5106   1.5315
  1.5424   1.5546   1.5659   1.5714   1.5725   1.5802   1.5894   1.6089
  1.6390   1.6496   1.6760   1.6868   1.7064   1.7209   1.7731   1.7894
  1.8040   1.8178   1.8332   1.8423   1.8653   1.8789   1.8917   1.9497
  1.9694   1.9992   2.0066   2.0556   2.0756   2.0956   2.1422   2.1547
  2.2064   2.2386   2.2671   2.2821   2.3018   2.3322   2.3515   2.3775
  2.4145   2.4429   2.4876   2.4914   2.6381   2.6517   2.6903   2.7147
  2.7277   2.7415   2.7769   2.7907   2.8084   2.8363   2.8400   2.8450
  2.8619   2.8800   2.9127   2.9250   2.9519   2.9667   2.9799   3.0196
  3.0272   3.0388   3.0427   3.0738   3.0886   3.1215   3.1519   3.1860
  3.2176   3.2222   3.2410   3.2635   3.2956   3.3002   3.3332   3.3630
  3.3851   3.3997   3.4051   3.4285   3.4310   3.4500   3.4770   3.4803
  3.4960   3.5171   3.5418   3.5574   3.6008   3.6073   3.6137   3.6285
  3.6602   3.6838   3.6989   3.7090   3.7378   3.7627   3.7692   3.7766
  3.7935   3.8163   3.8396   3.8515   3.8624   3.8798   3.9035   3.9239
  3.9511   3.9612   3.9900   4.0017   4.0126   4.0377   4.0522   4.0769
  4.1145   4.1579   4.1762   4.1929   4.2337   4.2702   4.2941   4.3039
  4.3408   4.3454   4.3597   4.3889   4.3998   4.4153   4.4467   4.4652
  4.4815   4.4985   4.5239   4.5471   4.5759   4.5990   4.6042   4.6134
  4.6333   4.6392   4.6578   4.6676   4.6830   4.7092   4.7165   4.7403
  4.7583   4.7917   4.8233   4.8301   4.9036   4.9567   4.9769   4.9783
  5.0158   5.0337   5.0639   5.0887   5.1198   5.1418   5.1727   5.1809
  5.1880   5.2032   5.2239   5.2441   5.2465   5.2774   5.2876   5.2955
  5.3097   5.3179   5.3536   5.3658   5.4046   5.4228   5.4549   5.4779
  5.5098   5.5454   5.5632   5.5810   5.6297   5.6461   5.6944   5.7085
  5.7251   5.7311   5.7530   5.7945   5.8006   5.8402   5.9050   5.9359
  5.9826   6.0276   6.0603   6.0832   6.2501   6.2684   6.5944   6.6145
  6.7280   6.7454   6.7558   6.7718   6.7847   6.7923   6.9008   6.9464
  6.9966   7.0158   7.0381   7.1443   7.2075   7.2948   7.3266   7.3763
  7.3839   7.4025   7.4311   7.4403   7.4693   7.4792   7.5218   7.6253
  7.7737   7.8007   7.9014   7.9218   8.1088   8.1447   8.2328  24.4025
 24.7196  24.7709  24.8878  24.9003  25.2272  50.4784  50.5195  50.5905
 50.6518  50.6623
 
 Beta MOs
 -- Occupied --
-19.4486 -19.4236 -19.4087 -19.4012 -19.3444 -10.4100 -10.4083 -10.4065
-10.3807 -10.3659 -10.3539  -1.3486  -1.2763  -1.1745  -1.0721  -0.9785
 -0.8940  -0.8772  -0.8434  -0.7704  -0.7273  -0.6875  -0.6763  -0.6371
 -0.5999  -0.5956  -0.5768  -0.5696  -0.5566  -0.5510  -0.5368  -0.5315
 -0.5238  -0.5090  -0.4728  -0.4560  -0.4340  -0.4113  -0.4015  -0.3657
 -0.2787
 -- Virtual --
 -0.0232  -0.0103   0.0266   0.0367   0.0382   0.0514   0.0572   0.0585
  0.0738   0.0818   0.0860   0.0978   0.1113   0.1196   0.1333   0.1346
  0.1396   0.1451   0.1488   0.1509   0.1545   0.1569   0.1614   0.1655
  0.1667   0.1783   0.1832   0.1899   0.1995   0.2055   0.2101   0.2147
  0.2237   0.2328   0.2421   0.2438   0.2586   0.2732   0.2807   0.2887
  0.2964   0.2981   0.3024   0.3060   0.3188   0.3226   0.3296   0.3414
  0.3448   0.3562   0.3596   0.3675   0.3693   0.3757   0.3782   0.3831
  0.3902   0.3961   0.4019   0.4033   0.4093   0.4132   0.4244   0.4341
  0.4451   0.4629   0.4650   0.4714   0.4943   0.5034   0.5201   0.5285
  0.5496   0.5577   0.5844   0.5999   0.6023   0.6154   0.6329   0.6545
  0.6616   0.6671   0.6853   0.6915   0.6998   0.7049   0.7077   0.7164
  0.7256   0.7503   0.7560   0.7713   0.7770   0.7871   0.7997   0.8019
  0.8263   0.8297   0.8498   0.8566   0.8803   0.8994   0.9169   0.9354
  0.9643   0.9883   1.0139   1.0240   1.0535   1.0608   1.0849   1.0897
  1.1072   1.1194   1.1357   1.1471   1.1550   1.1574   1.1746   1.1772
  1.1802   1.2079   1.2103   1.2240   1.2283   1.2371   1.2426   1.2515
  1.2550   1.2722   1.2853   1.2876   1.3088   1.3191   1.3243   1.3350
  1.3437   1.3619   1.3716   1.3754   1.3848   1.4105   1.4130   1.4257
  1.4295   1.4492   1.4559   1.4738   1.4812   1.4978   1.5067   1.5199
  1.5333   1.5455   1.5593   1.5662   1.5716   1.5754   1.5900   1.6064
  1.6221   1.6432   1.6556   1.6785   1.6931   1.7081   1.7286   1.7754
  1.7893   1.8088   1.8254   1.8361   1.8520   1.8730   1.8784   1.8920
  1.9480   1.9693   1.9967   2.0073   2.0613   2.0756   2.0982   2.1446
  2.1551   2.2044   2.2403   2.2661   2.2820   2.3019   2.3520   2.3711
  2.3878   2.4192   2.4457   2.4913   2.4954   2.6371   2.6589   2.6866
  2.7129   2.7205   2.7384   2.7730   2.7821   2.8008   2.8232   2.8326
  2.8418   2.8554   2.8740   2.9064   2.9163   2.9429   2.9574   2.9638
  3.0108   3.0125   3.0295   3.0356   3.0609   3.0784   3.1171   3.1372
  3.1795   3.2096   3.2144   3.2316   3.2545   3.2833   3.2924   3.3271
  3.3530   3.3777   3.3899   3.4001   3.4196   3.4244   3.4449   3.4691
  3.4728   3.4904   3.5119   3.5344   3.5447   3.5898   3.5974   3.6082
  3.6180   3.6527   3.6768   3.6856   3.6995   3.7327   3.7480   3.7600
  3.7703   3.7843   3.8123   3.8362   3.8481   3.8556   3.8773   3.8977
  3.9181   3.9488   3.9530   3.9824   3.9990   4.0090   4.0299   4.0454
  4.0698   4.1109   4.1552   4.1675   4.1873   4.2296   4.2616   4.2835
  4.2985   4.3351   4.3433   4.3549   4.3844   4.3953   4.4063   4.4419
  4.4603   4.4744   4.4924   4.5173   4.5437   4.5743   4.5931   4.6101
  4.6323   4.6530   4.6598   4.6635   4.6786   4.6915   4.7101   4.7145
  4.7468   4.7632   4.7950   4.8182   4.8227   4.9008   4.9540   5.0123
  5.0357   5.0451   5.0637   5.1076   5.1285   5.1494   5.1549   5.1709
  5.2151   5.2237   5.2423   5.2572   5.2712   5.2834   5.2872   5.2946
  5.3055   5.3291   5.3486   5.3649   5.3968   5.4049   5.4231   5.4537
  5.4738   5.5051   5.5430   5.5557   5.5806   5.6193   5.6433   5.6901
  5.7058   5.7219   5.7771   5.7877   5.7972   5.8062   5.8368   5.8976
  5.9314   5.9804   6.0221   6.0483   6.0771   6.2487   6.2670   6.5920
  6.6120   6.7374   6.7528   6.8369   6.8427   6.8509   6.8964   7.0004
  7.0216   7.0372   7.0505   7.1029   7.2150   7.2233   7.2929   7.3358
  7.3814   7.3895   7.4198   7.4316   7.4679   7.4804   7.4907   7.5228
  7.6203   7.7741   7.8007   7.8987   7.9190   8.1365   8.1846   8.2313
 24.4005  24.7174  24.7695  24.8876  24.8981  25.2252  50.4981  50.5402
 50.5892  50.6505  50.6625
 --------------------------------------------------------------
 
          Ground-State Mulliken Net Atomic Charges

     Atom                 Charge (a.u.)    Spin (a.u.)
  --------------------------------------------------------
      1 H                     0.355847       0.021044
      2 C                    -0.191714      -0.445351
      3 C                    -0.342988       0.113401
      4 H                     0.290050      -0.007233
      5 C                    -0.223309      -0.338712
      6 H                     0.295617       0.007107
      7 C                    -0.264848      -0.001847
      8 H                     0.290141      -0.004301
      9 C                    -0.215186       0.002719
     10 H                     0.301151       0.001094
     11 C                    -0.234762       0.010229
     12 H                     0.295610      -0.002237
     13 O                    -0.378735      -0.000089
     14 H                     0.329418       0.002630
     15 O                    -0.141376      -0.034845
     16 O                    -0.106911      -0.031540
     17 O                    -0.053852       0.841924
     18 O                    -0.004153       0.866007
  --------------------------------------------------------
  Sum of atomic charges =    -0.000000
  Sum of spin   charges =     1.000000

 -----------------------------------------------------------------
                    Cartesian Multipole Moments
 -----------------------------------------------------------------
    Charge (ESU x 10^10)
                -0.0000
    Dipole Moment (Debye)
         X      -1.2671      Y       0.2028      Z       0.2505
       Tot       1.3075
    Quadrupole Moments (Debye-Ang)
        XX     -55.6722     XY      -8.8462     YY     -73.8693
        XZ       3.7360     YZ       8.1740     ZZ     -67.0950
    Octopole Moments (Debye-Ang^2)
       XXX     158.9595    XXY     -20.0933    XYY      56.9754
       YYY    -138.3341    XXZ       3.9780    XYZ       4.9560
       YYZ      29.3263    XZZ      55.9400    YZZ     -44.2642
       ZZZ       5.3115
    Hexadecapole Moments (Debye-Ang^3)
      XXXX    -625.1248   XXXY      53.8518   XXYY    -209.0808
      XYYY      97.9415   YYYY    -763.9081   XXXZ      -1.7858
      XXYZ      36.0825   XYYZ     -14.9105   YYYZ     193.1430
      XXZZ    -252.5178   XYZZ      20.0325   YYZZ    -302.0919
      XZZZ      25.8300   YZZZ     204.4165   ZZZZ    -999.4868
 -----------------------------------------------------------------
 Calculating analytic gradient of the SCF energy
 Gradient of CDS energy
            1           2           3           4           5           6
    1   0.0000858   0.0002322  -0.0000295  -0.0000601  -0.0002806  -0.0001767
    2  -0.0000538   0.0000082   0.0001597   0.0000426   0.0002745   0.0000910
    3   0.0001892   0.0000845   0.0002341   0.0002012  -0.0000199  -0.0000053
            7           8           9          10          11          12
    1   0.0001870   0.0002037  -0.0019600   0.0001029  -0.0000483  -0.0000811
    2   0.0000700  -0.0000672  -0.0028192   0.0000565   0.0000347   0.0000152
    3  -0.0000828  -0.0000152   0.0016296  -0.0001437  -0.0003200  -0.0002009
           13          14          15          16          17          18
    1   0.0020566  -0.0002994  -0.0000960   0.0001005   0.0000096   0.0000536
    2   0.0024349  -0.0001995   0.0000200  -0.0000445  -0.0000492   0.0000261
    3  -0.0017276   0.0001167  -0.0000724   0.0000435   0.0000126   0.0000762
 Gradient of SCF Energy
            1           2           3           4           5           6
    1   0.0074390  -0.0023157   0.0045983  -0.0050612   0.0295208  -0.0110866
    2   0.0018824  -0.0062125  -0.0091280   0.0009631   0.0225340   0.0023277
    3   0.0072346  -0.0009342  -0.0083618   0.0097827  -0.0164646  -0.0005035
            7           8           9          10          11          12
    1  -0.0227513   0.0072817   0.0327077  -0.0074214  -0.0125002  -0.0036119
    2   0.0143185  -0.0057211  -0.0387261   0.0144964  -0.0199809  -0.0017355
    3  -0.0026552   0.0019420  -0.0555136   0.0244709   0.0195641  -0.0115230
           13          14          15          16          17          18
    1   0.0011050  -0.0059322   0.0053423  -0.0155636  -0.0000811  -0.0016696
    2   0.0265480  -0.0015736   0.0034254  -0.0054004  -0.0014503   0.0034329
    3   0.0013175   0.0125953  -0.0030872   0.0248719  -0.0006089  -0.0021271
 Max gradient component =       5.551E-02
 RMS gradient           =       1.523E-02
 Computing fast CPCM-SWIG gradient
 Updating gradient with PCM contributions...
 -- total gradient after adding PCM contribution --
---------------------------------------------------
  Atom         X              Y              Z     
---------------------------------------------------
   1       0.000152       0.000838      -0.000771
   2       0.003789      -0.005343       0.002519
   3      -0.000950      -0.002224      -0.003836
   4      -0.001104      -0.002946       0.001146
   5       0.023945       0.027002      -0.012142
   6      -0.001047      -0.002480      -0.000260
   7      -0.014944       0.005950       0.004458
   8      -0.000978      -0.000190       0.000581
   9       0.037523      -0.036829      -0.066049
  10      -0.010933       0.017752       0.032304
  11      -0.021982      -0.024216       0.012571
  12       0.003709      -0.000703      -0.003943
  13       0.000653       0.032650       0.007624
  14      -0.003469      -0.005688       0.005505
  15       0.003234       0.002278      -0.002503
  16      -0.015090      -0.007585       0.025343
  17       0.000186      -0.001906      -0.002074
  18      -0.002695       0.003640      -0.000474
---------------------------------------------------
 Number of fixed atoms: 0
 Gradient time:  CPU 381.27 s  wall 30.57 s
 ----------------------------------------------------------------
             Standard Nuclear Orientation (Angstroms)
    I     Atom           X                Y                Z
 ----------------------------------------------------------------
    1      H       0.4280940000     1.1315117000     1.5638196000
    2      C      -0.2980639000     0.9622754000     0.7843881000
    3      C      -1.5482277000     1.6277616000     0.7939650000
    4      H      -1.9227161000     2.0429023000     1.7203592000
    5      C      -2.2581510000     1.7468155000    -0.3540926000
    6      H      -3.2183552000     2.2412980000    -0.3830952000
    7      C       0.1904622000     0.5401601000    -0.5636458000
    8      H       1.1207145000    -0.0185851000    -0.5161435000
    9      C      -0.8800857000    -0.1387710000    -1.4123971000
   10      H      -0.5041278000    -0.5187134000    -2.2972819000
   11      C      -1.7586941000     1.0979574000    -1.5999936000
   12      H      -2.4385733000     1.0199690000    -2.4434067000
   13      O      -1.6484532000    -1.0751367000    -0.7062561000
   14      H      -1.9009180000    -0.7902157000     0.1810412000
   15      O       0.4815739000     1.7117281000    -1.3510828000
   16      O      -0.7893224000     2.1049116000    -1.9601144000
   17      O      -0.9947140000    -0.6488105000     3.0731718000
   18      O      -0.7927080000    -0.8662774000     1.8869578000
 ----------------------------------------------------------------
 Nuclear Repulsion Energy =         664.81751349 hartrees
 There are       42 alpha and       41 beta electrons
 Discretize the solute cavity surface with Lebedev spheres
	Using 110 Lebedev grid points for each H atom
	Using 194 Lebedev grid points for other atoms
	Atomic van der Waals radii will be scaled by 1.20
 Remove points where switching function is < 1.0e-08
 Keep 1352 surface tesserae and discard 1552 interior tesserae
 Molecular Surface Area = 155.524 Angst**2
 Requested basis set is 6-311++G(2df,2p)
 There are 130 shells and 444 basis functions
 A cutoff of  1.0D-11 yielded   7601 shell pairs
 There are     88775 function pairs (    111657 Cartesian)
 Smallest overlap matrix eigenvalue = 2.42E-06

 Q-Chem warning in module stvman/mkSTV.C, line 323:

 Overlap eigenvalue is smaller than square root of threshold
 Use THRESH >= 12 to get rid of this warning

 Guess MOs from SCF MO coefficient file

 -----------------------------------------------------------------------
  General SCF calculation program by
  Eric Jon Sundstrom, Paul Horn, Yuezhi Mao, Dmitri Zuev, Alec White,
  David Stuck, Shaama M.S., Shane Yost, Joonho Lee, David Small,
  Daniel Levine, Susi Lehtola, Hugh Burton, Evgeny Epifanovsky,
  Bang C. Huynh
 -----------------------------------------------------------------------
 Exchange:     0.1500 Hartree-Fock + 1.0000 wB97M-V + LR-HF
 Correlation:  1.0000 wB97M-V
 Using SG-2 standard quadrature grid
 Nonlocal Correlation:  VV10 with C = 0.0100 and b = 6.00 and scale = 1.00000
 Grid used for NLC:  SG-1 standard quadrature
 
 Citation of the SMD model:
 Marenich, A.V.; Cramer, C.J.; Truhlar, D.G.
 J. Phys. Chem. B 2009, 113, 6378-6396.
 iSolventCode=           1
 Solvent: water                                                           
 
 vradii
            1           2           3           4           5           6
    1   1.2000000   1.8500000   1.8500000   1.2000000   1.8500000   1.2000000
            7           8           9          10          11          12
    1   1.8500000   1.2000000   1.8500000   1.2000000   1.8500000   1.2000000
           13          14          15          16          17          18
    1   1.5200000   1.2000000   1.5200000   1.5200000   1.5200000   1.5200000
 -------------------------------------------------------
 OpenMP BLAS3 based DFT computing Module                
 Release: version 1.0, May 2013, Q-Chem Inc. Pittsburgh 
 -------------------------------------------------------
 A unrestricted SCF calculation will be
 performed using Roothaan-Hall, DIIS, GDM
 SCF converges when RMS gradient is below 1.0e-06
 ---------------------------------------
  Cycle       Energy         DIIS error
 ---------------------------------------
    1    -608.6519983329      1.57e-04  Roothaan Step
 ---------------------------------------
  Cycle       Energy         DIIS error
 ---------------------------------------
    1    -608.6740901455      1.86e-04  
    2    -608.6765478397      1.85e-04  Done DIIS. Switching to GDM
 ---------------------------------------
  Cycle       Energy        RMS Gradient
 ---------------------------------------
    1    -608.6765478397      1.85e-02   Normal BFGS step
    2    -608.6753914791      3.12e-02  Line search: overstep
    3    -608.6787877410      3.79e-03   Normal BFGS step
    4    -608.6788650738      2.89e-03   Normal BFGS step
    5    -608.6789205212      7.36e-04   Normal BFGS step
    6    -608.6789243312      8.60e-04   Normal BFGS step
    7    -608.6789256246      5.15e-04   Normal BFGS step
    8    -608.6789266753      3.05e-04   Normal BFGS step
    9    -608.6789270333      1.30e-04   Normal BFGS step
   10    -608.6789272213      1.12e-04   Normal BFGS step
   11    -608.6789272952      3.54e-05   Normal BFGS step
   12    -608.6789273166      1.29e-05   Normal BFGS step
   13    -608.6789273222      1.32e-05   Normal BFGS step
   14    -608.6789273234      5.78e-06   Normal BFGS step
   15    -608.6789273239      3.64e-06   Normal BFGS step
   16    -608.6789273238      2.35e-06   Normal BFGS step
   17    -608.6789273239      1.23e-06   Normal BFGS step
   18    -608.6789273240      7.10e-07  Convergence criterion met
 ---------------------------------------
 SCF time:   CPU 2635.10s  wall 178.00s 
<S^2> =          1.384472396
(3)  G-ENP(liq) elect-nuc-pol free energy of system     -608.678927324 a.u.
(4)  G-CDS(liq) cavity-dispersion-solvent structure 
     free energy                                                1.7551 kcal/mol
(6)  G-S(liq) free energy of system                     -608.676130317 a.u.
 SCF   energy in the final basis set =     -608.6761303169
 Total energy in the final basis set =     -608.6761303169
 
 --------------------------------------------------------------
 
                    Orbital Energies (a.u.)
 --------------------------------------------------------------
 
 Alpha MOs
 -- Occupied --
-19.4754 -19.4484 -19.4073 -19.3996 -19.3446 -10.4104 -10.4081 -10.4068
-10.3735 -10.3607 -10.3565  -1.3972  -1.2734  -1.1747  -1.0686  -0.9743
 -0.9467  -0.8890  -0.8368  -0.7696  -0.7234  -0.6869  -0.6761  -0.6553
 -0.6466  -0.6388  -0.6129  -0.5892  -0.5660  -0.5620  -0.5374  -0.5307
 -0.5231  -0.5060  -0.4696  -0.4554  -0.4308  -0.4076  -0.4018  -0.3927
 -0.3716  -0.3532
 -- Virtual --
 -0.0126   0.0261   0.0363   0.0379   0.0507   0.0569   0.0579   0.0770
  0.0846   0.0855   0.1000   0.1142   0.1194   0.1332   0.1339   0.1397
  0.1452   0.1486   0.1504   0.1545   0.1570   0.1607   0.1640   0.1661
  0.1796   0.1826   0.1902   0.1980   0.2046   0.2093   0.2130   0.2245
  0.2324   0.2402   0.2417   0.2608   0.2724   0.2838   0.2873   0.2959
  0.2962   0.3024   0.3065   0.3146   0.3199   0.3289   0.3399   0.3457
  0.3539   0.3591   0.3602   0.3683   0.3757   0.3779   0.3818   0.3904
  0.3944   0.4015   0.4032   0.4095   0.4128   0.4215   0.4343   0.4459
  0.4613   0.4646   0.4684   0.4950   0.5048   0.5200   0.5296   0.5497
  0.5595   0.5842   0.6010   0.6068   0.6191   0.6339   0.6553   0.6637
  0.6685   0.6876   0.6932   0.7038   0.7063   0.7096   0.7181   0.7283
  0.7520   0.7575   0.7746   0.7784   0.7932   0.8032   0.8052   0.8272
  0.8308   0.8520   0.8574   0.8818   0.8984   0.9174   0.9380   0.9658
  0.9902   1.0128   1.0231   1.0501   1.0590   1.0813   1.0881   1.1060
  1.1145   1.1287   1.1359   1.1465   1.1560   1.1601   1.1768   1.1791
  1.2016   1.2071   1.2236   1.2260   1.2321   1.2368   1.2482   1.2530
  1.2662   1.2816   1.2849   1.3068   1.3176   1.3243   1.3305   1.3418
  1.3623   1.3663   1.3738   1.3861   1.4097   1.4148   1.4240   1.4290
  1.4504   1.4577   1.4756   1.4807   1.4966   1.5043   1.5106   1.5315
  1.5424   1.5545   1.5658   1.5714   1.5724   1.5802   1.5893   1.6088
  1.6390   1.6495   1.6760   1.6867   1.7064   1.7209   1.7730   1.7893
  1.8040   1.8178   1.8331   1.8422   1.8653   1.8789   1.8917   1.9496
  1.9691   1.9992   2.0066   2.0556   2.0755   2.0956   2.1422   2.1547
  2.2064   2.2386   2.2671   2.2821   2.3018   2.3322   2.3516   2.3775
  2.4145   2.4429   2.4876   2.4915   2.6381   2.6517   2.6903   2.7147
  2.7278   2.7414   2.7769   2.7909   2.8085   2.8363   2.8400   2.8450
  2.8619   2.8800   2.9127   2.9249   2.9519   2.9667   2.9798   3.0196
  3.0271   3.0387   3.0427   3.0738   3.0887   3.1214   3.1517   3.1860
  3.2176   3.2221   3.2410   3.2635   3.2954   3.3002   3.3332   3.3630
  3.3851   3.3996   3.4051   3.4285   3.4310   3.4500   3.4770   3.4802
  3.4960   3.5171   3.5417   3.5574   3.6006   3.6071   3.6137   3.6285
  3.6600   3.6838   3.6989   3.7090   3.7378   3.7627   3.7692   3.7765
  3.7935   3.8163   3.8396   3.8515   3.8622   3.8797   3.9035   3.9240
  3.9511   3.9611   3.9900   4.0016   4.0126   4.0376   4.0521   4.0768
  4.1145   4.1580   4.1762   4.1929   4.2337   4.2702   4.2939   4.3039
  4.3407   4.3453   4.3595   4.3887   4.3998   4.4153   4.4468   4.4652
  4.4813   4.4982   4.5235   4.5468   4.5758   4.5990   4.6041   4.6134
  4.6332   4.6392   4.6578   4.6676   4.6827   4.7092   4.7164   4.7401
  4.7581   4.7916   4.8231   4.8300   4.9034   4.9566   4.9769   4.9783
  5.0158   5.0336   5.0639   5.0887   5.1197   5.1413   5.1725   5.1808
  5.1879   5.2031   5.2238   5.2441   5.2464   5.2773   5.2876   5.2955
  5.3097   5.3179   5.3536   5.3658   5.4046   5.4228   5.4548   5.4778
  5.5097   5.5453   5.5631   5.5810   5.6294   5.6460   5.6944   5.7083
[...]
      XXZZ    -249.0053   XYZZ      13.2296   YYZZ    -280.9348
      XZZZ      25.5436   YZZZ     192.0053   ZZZZ    -852.9528
 -----------------------------------------------------------------
 Calculating analytic gradient of the SCF energy
 Gradient of CDS energy
            1           2           3           4           5           6
    1   0.0001184   0.0002177  -0.0000096  -0.0000667  -0.0003229  -0.0001822
    2  -0.0000322   0.0000560   0.0001576   0.0000607   0.0002225   0.0000762
    3   0.0001813   0.0000874   0.0002205   0.0001955   0.0000065   0.0000049
            7           8           9          10          11          12
    1   0.0001697   0.0001942  -0.0015506   0.0000955   0.0000422  -0.0001190
    2   0.0000454  -0.0000946  -0.0026600  -0.0000177   0.0000482   0.0000160
    3  -0.0001266   0.0000096   0.0014364  -0.0001944  -0.0003388  -0.0001779
           13          14          15          16          17          18
    1   0.0016529  -0.0003154  -0.0001004   0.0001127   0.0001142  -0.0000507
    2   0.0024149  -0.0001971   0.0000125  -0.0000467  -0.0000232  -0.0000387
    3  -0.0013955   0.0000264  -0.0000753   0.0000308   0.0000882   0.0000209
 Gradient of SCF Energy
            1           2           3           4           5           6
    1   0.0074163  -0.0079993   0.0070533  -0.0036135   0.0043861  -0.0117116
    2   0.0020975  -0.0030986  -0.0066400   0.0047523  -0.0040923   0.0049995
    3   0.0077046  -0.0025069  -0.0045888   0.0096619  -0.0053415   0.0004544
            7           8           9          10          11          12
    1  -0.0041560   0.0072667  -0.0050916   0.0019765   0.0121329  -0.0083142
    2   0.0083181  -0.0048649  -0.0011789  -0.0019823   0.0041436  -0.0010770
    3  -0.0076430   0.0013543   0.0084432  -0.0050295   0.0062708  -0.0063946
           13          14          15          16          17          18
    1   0.0036796  -0.0050665   0.0022396  -0.0006697  -0.0007622   0.0012336
    2  -0.0087862   0.0044370   0.0011537   0.0015404  -0.0000773   0.0003554
    3  -0.0062069   0.0050251  -0.0008254  -0.0012638   0.0012936  -0.0004074
 Max gradient component =       1.213E-02
 RMS gradient           =       5.366E-03
 Computing fast CPCM-SWIG gradient
 Updating gradient with PCM contributions...
 -- total gradient after adding PCM contribution --
---------------------------------------------------
  Atom         X              Y              Z     
---------------------------------------------------
   1      -0.000000      -0.000003      -0.000002
   2      -0.000010      -0.000038       0.000016
   3      -0.000030       0.000028      -0.000019
   4       0.000003       0.000003      -0.000003
   5       0.000023       0.000017       0.000024
   6       0.000003       0.000004      -0.000004
   7       0.000004      -0.000008       0.000002
   8       0.000002      -0.000000       0.000003
   9       0.000008      -0.000026       0.000008
  10       0.000004       0.000018      -0.000002
  11      -0.000007      -0.000016      -0.000017
  12       0.000002       0.000003      -0.000001
  13       0.000003       0.000018      -0.000002
  14      -0.000024      -0.000005       0.000000
  15      -0.000001      -0.000011       0.000002
  16       0.000005      -0.000007       0.000008
  17      -0.000087      -0.000005      -0.000001
  18       0.000101       0.000028      -0.000011
---------------------------------------------------
 Number of fixed atoms: 0
 Gradient time:  CPU 439.04 s  wall 34.19 s
 Geometry Optimization Parameters
   NAtoms,    NIC,     NZ,  NCons,   NDum,   NFix, NCnnct, MaxDiis
       18     137       0       0       0       0       0       0

 Cartesian Hessian Update
 Hessian updated using Powell/Murtagh-Sargent update
  Mixing factors:     0.998181 Powell                      0.001819 Murtagh-Sargent


** GEOMETRY OPTIMIZATION IN DELOCALIZED INTERNAL COORDINATES **
   Searching for a Transition State

   Optimization Cycle:  61

                       Coordinates (Angstroms)
     ATOM                X               Y               Z
      1  H         0.5906379914    1.3933246678    1.4855869677
      2  C        -0.1760361526    1.1250209978    0.7760007418
      3  C        -1.4686099818    1.6961545426    0.8485175636
      4  H        -1.8011284630    2.1432855116    1.7759471124
      5  C        -2.2849890460    1.6616967333   -0.2331791997
      6  H        -3.2815072922    2.0786360675   -0.2062195019
      7  C         0.2394186968    0.5433902691   -0.5421778743
      8  H         1.1431972857   -0.0570396423   -0.4918669024
      9  C        -0.9154213202   -0.1334001729   -1.2893377129
     10  H        -0.5442664284   -0.5195938662   -2.2350992624
     11  C        -1.7392193065    1.1286053670   -1.5299141438
     12  H        -2.4864708714    1.0250900971   -2.3108219934
     13  O        -1.5773968804   -1.1887190255   -0.6414291226
     14  H        -2.0858757565   -0.8505665971    0.1072418071
     15  O         0.5348009789    1.6327756872   -1.4372866816
     16  O        -0.7436958905    2.0254488727   -2.0493995709
     17  O        -1.6550477466   -0.9062343901    2.2938039307
     18  O        -0.4806556167   -0.6280942199    2.0958268426
   Point Group: c1    Number of degrees of freedom:    48


   Energy is   -608.696440237

 Hessian updated using Powell/Murtagh-Sargent update
  Mixing factors:     0.999025 Powell                      0.000975 Murtagh-Sargent

 48 Hessian modes will be used to form the next step
  Hessian Eigenvalues:
    -1.104334    0.002402    0.003698    0.010577    0.011767    0.016140
     0.018199    0.019318    0.021389    0.023033    0.029265    0.030417
     0.035955    0.036660    0.046451    0.056238    0.061490    0.062147
     0.073677    0.079764    0.094607    0.100050    0.102649    0.113626
     0.121451    0.137048    0.167035    0.189909    0.193655    0.218541
     0.233692    0.246543    0.257200    0.284367    0.303452    0.335280
     0.340023    0.351344    0.354047    0.361591    0.365472    0.368702
     0.390669    0.466906    0.477239    0.495309    0.551461    0.792914

 Transition state search - taking P-RFO step
 Searching for Lamda that Maximizes Along the Lowest mode
 Value Taken    Lamda =   0.00000003
 Searching for Lamda that Minimizes Along All other modes
 Value Taken    Lamda =  -0.00000009
 Step Taken.  Stepsize is  0.003188

                             Maximum     Tolerance    Cnvgd?
         Gradient           0.000143      0.000300     YES
         Displacement       0.001499      0.001200      NO
         Energy change     -0.000000      0.000001     YES

 Final energy is   -608.696440236732     


 ******************************
 **  OPTIMIZATION CONVERGED  **
 ******************************

                       Coordinates (Angstroms)
     ATOM                X               Y               Z
      1  H         0.5906379914    1.3933246678    1.4855869677
      2  C        -0.1760361526    1.1250209978    0.7760007418
      3  C        -1.4686099818    1.6961545426    0.8485175636
      4  H        -1.8011284630    2.1432855116    1.7759471124
      5  C        -2.2849890460    1.6616967333   -0.2331791997
      6  H        -3.2815072922    2.0786360675   -0.2062195019
      7  C         0.2394186968    0.5433902691   -0.5421778743
      8  H         1.1431972857   -0.0570396423   -0.4918669024
      9  C        -0.9154213202   -0.1334001729   -1.2893377129
     10  H        -0.5442664284   -0.5195938662   -2.2350992624
     11  C        -1.7392193065    1.1286053670   -1.5299141438
     12  H        -2.4864708714    1.0250900971   -2.3108219934
     13  O        -1.5773968804   -1.1887190255   -0.6414291226
     14  H        -2.0858757565   -0.8505665971    0.1072418071
     15  O         0.5348009789    1.6327756872   -1.4372866816
     16  O        -0.7436958905    2.0254488727   -2.0493995709
     17  O        -1.6550477466   -0.9062343901    2.2938039307
     18  O        -0.4806556167   -0.6280942199    2.0958268426

Z-matrix Print:
$molecule
0 2
O 
C  1 1.440566
H  2 1.086215 1 106.032976
O  1 1.470860 2 106.394070 3 151.739145 0
C  4 1.437101 1 106.564439 2 -1.858077 0
H  5 1.085780 4 106.037265 1 -149.447946 0
C  2 1.499497 1 108.041725 3 122.407300 0
H  7 1.078559 2 118.547973 1 -84.979911 0
C  7 1.414991 2 117.046056 1 74.457918 0
H  9 1.081952 7 119.437817 2 -178.877743 0
C  9 1.355629 7 119.931306 2 2.098636 0
H  11 1.080562 9 121.712653 7 179.276827 0
C  5 1.526165 4 101.484616 1 -30.140232 0
H  13 1.086907 5 109.936230 4 -64.456330 0
O  13 1.404171 5 116.087141 4 173.706081 0
H  15 0.966129 13 110.037047 5 -44.479282 0
O  7 2.215434 2 104.765329 1 -176.629033 0
O  17 1.223010 7 114.106469 2 -104.168186 0
$end

 
 --------------------------------------------------------------
 
                    Orbital Energies (a.u.)
 --------------------------------------------------------------
 
 Alpha MOs
 -- Occupied --
-19.4762 -19.4506 -19.4058 -19.4047 -19.3505 -10.4109 -10.4104 -10.4100
-10.3736 -10.3616 -10.3596  -1.3981  -1.2708  -1.1740  -1.0690  -0.9763
 -0.9451  -0.8862  -0.8384  -0.7632  -0.7207  -0.6843  -0.6750  -0.6553
 -0.6474  -0.6389  -0.6119  -0.5890  -0.5606  -0.5564  -0.5371  -0.5272
 -0.5215  -0.5047  -0.4709  -0.4658  -0.4202  -0.4077  -0.4041  -0.3958
 -0.3789  -0.3582
 -- Virtual --
 -0.0171   0.0265   0.0364   0.0377   0.0510   0.0567   0.0579   0.0795
  0.0798   0.0853   0.0987   0.1132   0.1197   0.1314   0.1355   0.1403
  0.1444   0.1458   0.1494   0.1538   0.1572   0.1593   0.1610   0.1660
  0.1835   0.1872   0.1922   0.1957   0.2021   0.2086   0.2125   0.2301
  0.2329   0.2388   0.2591   0.2628   0.2704   0.2789   0.2905   0.2929
  0.2982   0.3083   0.3127   0.3162   0.3198   0.3319   0.3403   0.3428
  0.3485   0.3576   0.3596   0.3650   0.3716   0.3794   0.3839   0.3856
  0.3906   0.3907   0.4033   0.4093   0.4165   0.4191   0.4353   0.4387
  0.4450   0.4532   0.4690   0.4862   0.4952   0.5027   0.5255   0.5417
  0.5503   0.5944   0.6064   0.6160   0.6308   0.6366   0.6527   0.6621
  0.6672   0.6845   0.6987   0.7000   0.7069   0.7162   0.7212   0.7333
  0.7447   0.7502   0.7686   0.7801   0.7896   0.7923   0.8096   0.8266
  0.8355   0.8427   0.8482   0.8665   0.8927   0.9191   0.9454   0.9583
  0.9755   1.0100   1.0264   1.0416   1.0610   1.0871   1.0979   1.1081
  1.1147   1.1182   1.1354   1.1449   1.1532   1.1707   1.1788   1.1881
  1.1901   1.2000   1.2205   1.2209   1.2346   1.2372   1.2499   1.2568
  1.2656   1.2752   1.2835   1.2905   1.3136   1.3179   1.3219   1.3334
  1.3549   1.3614   1.3736   1.3855   1.3957   1.4067   1.4149   1.4293
  1.4363   1.4482   1.4747   1.4791   1.4864   1.4915   1.5196   1.5312
  1.5386   1.5478   1.5494   1.5605   1.5836   1.5865   1.5995   1.6062
  1.6195   1.6556   1.6581   1.6961   1.7126   1.7199   1.7502   1.7780
  1.7922   1.8227   1.8491   1.8544   1.8602   1.8788   1.8977   1.9554
  1.9720   1.9951   2.0118   2.0698   2.0830   2.1152   2.1260   2.1464
  2.1572   2.2487   2.2792   2.2924   2.2993   2.3302   2.3599   2.3865
  2.4142   2.4474   2.4679   2.4944   2.6319   2.6596   2.6988   2.7005
  2.7258   2.7337   2.7941   2.7988   2.8043   2.8070   2.8342   2.8423
  2.8907   2.9051   2.9177   2.9501   2.9535   2.9694   2.9880   3.0033
  3.0234   3.0326   3.0401   3.0559   3.0753   3.1202   3.1250   3.1707
  3.2046   3.2178   3.2230   3.2507   3.2888   3.2926   3.3069   3.3625
  3.3743   3.3818   3.4045   3.4271   3.4325   3.4451   3.4657   3.4752
  3.5010   3.5285   3.5343   3.5641   3.5883   3.6087   3.6302   3.6307
  3.6608   3.6800   3.6961   3.7145   3.7357   3.7383   3.7472   3.7718
  3.7825   3.8072   3.8183   3.8339   3.8678   3.8819   3.9108   3.9210
  3.9356   3.9503   3.9673   3.9849   4.0129   4.0279   4.0381   4.0721
  4.0947   4.1238   4.1504   4.1800   4.2309   4.2553   4.2761   4.2957
  4.3179   4.3333   4.3583   4.3728   4.3897   4.4170   4.4295   4.4458
  4.4785   4.4899   4.5064   4.5307   4.5534   4.5728   4.5836   4.6072
  4.6168   4.6253   4.6382   4.6517   4.6545   4.6902   4.7199   4.7342
  4.7442   4.7730   4.7867   4.8174   4.8763   4.9467   4.9652   4.9844
  4.9934   5.0141   5.0582   5.0964   5.1132   5.1501   5.1522   5.1663
  5.1770   5.1869   5.1988   5.2259   5.2512   5.2656   5.2878   5.2981
  5.3017   5.3074   5.3292   5.3555   5.3805   5.4177   5.4490   5.4694
  5.5112   5.5177   5.5356   5.5952   5.6148   5.6362   5.6780   5.6975
  5.7033   5.7109   5.7381   5.7423   5.7722   5.8277   5.8921   5.9176
  5.9554   6.0216   6.0558   6.0900   6.1450   6.2519   6.6093   6.6214
  6.7190   6.7445   6.7637   6.7711   6.7950   6.8063   6.9136   6.9387
  7.0119   7.0133   7.0207   7.1473   7.1691   7.2907   7.3199   7.3684
  7.3805   7.4090   7.4126   7.4262   7.4673   7.4711   7.5161   7.6255
  7.7241   7.8172   7.8843   7.9227   8.1116   8.1517   8.2279  24.3713
 24.6984  24.7299  24.8117  24.8871  25.2129  50.4782  50.5143  50.5886
 50.6444  50.6520
 
 Beta MOs
 -- Occupied --
-19.4491 -19.4259 -19.4072 -19.4055 -19.3505 -10.4105 -10.4103 -10.4100
-10.3812 -10.3662 -10.3573  -1.3493  -1.2729  -1.1742  -1.0716  -0.9806
 -0.8879  -0.8787  -0.8447  -0.7642  -0.7250  -0.6846  -0.6770  -0.6344
 -0.6013  -0.5920  -0.5739  -0.5603  -0.5585  -0.5497  -0.5391  -0.5282
 -0.5229  -0.5058  -0.4743  -0.4668  -0.4240  -0.4152  -0.4071  -0.3633
 -0.2870
 -- Virtual --
 -0.0248  -0.0090   0.0268   0.0368   0.0379   0.0513   0.0570   0.0584
  0.0770   0.0774   0.0854   0.0960   0.1108   0.1200   0.1319   0.1361
  0.1401   0.1447   0.1461   0.1499   0.1539   0.1573   0.1596   0.1624
  0.1674   0.1838   0.1872   0.1927   0.1951   0.2044   0.2083   0.2144
  0.2307   0.2329   0.2409   0.2576   0.2637   0.2721   0.2794   0.2902
  0.2909   0.2987   0.3098   0.3130   0.3187   0.3246   0.3334   0.3419
  0.3431   0.3501   0.3580   0.3592   0.3647   0.3707   0.3793   0.3858
  0.3868   0.3900   0.3951   0.4036   0.4073   0.4183   0.4237   0.4344
  0.4414   0.4456   0.4574   0.4685   0.4846   0.4952   0.5003   0.5253
  0.5406   0.5497   0.5924   0.6031   0.6134   0.6271   0.6359   0.6516
  0.6615   0.6672   0.6843   0.6956   0.6988   0.7045   0.7145   0.7184
  0.7296   0.7424   0.7493   0.7646   0.7764   0.7860   0.7885   0.8075
  0.8268   0.8347   0.8394   0.8480   0.8652   0.8913   0.9192   0.9421
  0.9561   0.9742   1.0098   1.0270   1.0430   1.0627   1.0885   1.1028
  1.1107   1.1202   1.1213   1.1351   1.1465   1.1603   1.1750   1.1818
  1.1933   1.1995   1.2047   1.2209   1.2274   1.2396   1.2447   1.2494
  1.2682   1.2755   1.2804   1.2858   1.2942   1.3144   1.3190   1.3256
  1.3313   1.3566   1.3618   1.3792   1.3846   1.3966   1.4063   1.4142
  1.4290   1.4360   1.4472   1.4746   1.4843   1.4915   1.4945   1.5244
  1.5327   1.5399   1.5449   1.5610   1.5643   1.5828   1.5930   1.6058
  1.6156   1.6326   1.6561   1.6598   1.7001   1.7118   1.7242   1.7682
  1.7796   1.8000   1.8209   1.8506   1.8561   1.8640   1.8793   1.9072
  1.9525   1.9721   1.9922   2.0178   2.0736   2.0845   2.1143   2.1312
  2.1495   2.1562   2.2481   2.2786   2.2967   2.2993   2.3494   2.3816
  2.4019   2.4154   2.4517   2.4734   2.4925   2.6272   2.6699   2.6926
  2.6965   2.7223   2.7319   2.7842   2.7898   2.7978   2.8026   2.8236
  2.8390   2.8847   2.8983   2.9115   2.9351   2.9441   2.9647   2.9712
  2.9906   3.0154   3.0248   3.0340   3.0457   3.0580   3.1097   3.1140
  3.1625   3.1956   3.2064   3.2153   3.2399   3.2783   3.2827   3.2982
  3.3563   3.3685   3.3769   3.3947   3.4185   3.4262   3.4375   3.4576
  3.4690   3.4953   3.5206   3.5232   3.5552   3.5815   3.5952   3.6225
  3.6247   3.6540   3.6704   3.6802   3.7026   3.7271   3.7304   3.7388
  3.7636   3.7753   3.8021   3.8128   3.8296   3.8632   3.8744   3.9061
  3.9173   3.9337   3.9402   3.9601   3.9789   4.0114   4.0175   4.0335
  4.0663   4.0892   4.1207   4.1457   4.1709   4.2271   4.2471   4.2701
  4.2921   4.3118   4.3237   4.3563   4.3685   4.3837   4.4066   4.4243
  4.4366   4.4692   4.4869   4.5021   4.5274   4.5502   4.5667   4.6025
  4.6101   4.6228   4.6363   4.6475   4.6690   4.6724   4.6993   4.7160
  4.7303   4.7528   4.7770   4.7832   4.8132   4.8718   4.9450   4.9957
  5.0182   5.0347   5.0498   5.1007   5.1094   5.1477   5.1490   5.1856
  5.2077   5.2211   5.2426   5.2501   5.2574   5.2644   5.2720   5.2969
  5.3026   5.3100   5.3418   5.3670   5.3703   5.3788   5.4163   5.4483
  5.4669   5.5055   5.5151   5.5294   5.5909   5.6065   5.6313   5.6767
  5.6919   5.7028   5.7099   5.7608   5.7856   5.7966   5.8254   5.8861
  5.9158   5.9521   6.0095   6.0492   6.0836   6.1435   6.2507   6.6071
  6.6197   6.7176   6.7531   6.8294   6.8460   6.8801   6.9081   7.0158
  7.0180   7.0320   7.0688   7.0931   7.1616   7.2401   7.2885   7.3208
  7.3784   7.4029   7.4109   7.4216   7.4355   7.4671   7.5031   7.5196
  7.6218   7.7244   7.8170   7.8820   7.9203   8.1425   8.1893   8.2268
 24.3693  24.6968  24.7279  24.8115  24.8847  25.2111  50.4982  50.5347
 50.5877  50.6436  50.6521
 --------------------------------------------------------------
 
          Ground-State Mulliken Net Atomic Charges

     Atom                 Charge (a.u.)    Spin (a.u.)
  --------------------------------------------------------
      1 H                     0.366726       0.019295
      2 C                    -0.050096      -0.454629
      3 C                    -0.437067       0.098521
      4 H                     0.304533      -0.004768
      5 C                    -0.166015      -0.317489
      6 H                     0.304957       0.007312
      7 C                    -0.452695      -0.019431
      8 H                     0.290046      -0.004784
      9 C                    -0.056555      -0.002296
     10 H                     0.284761       0.001609
     11 C                    -0.276176       0.017447
     12 H                     0.295659      -0.002558
     13 O                    -0.413937      -0.007034
     14 H                     0.317230       0.001805
     15 O                    -0.126756      -0.030028
     16 O                    -0.124723      -0.018004
     17 O                    -0.071145       0.832867
     18 O                     0.011251       0.882163
  --------------------------------------------------------
  Sum of atomic charges =     0.000000
  Sum of spin   charges =     1.000000

 -----------------------------------------------------------------
                    Cartesian Multipole Moments
 -----------------------------------------------------------------
    Charge (ESU x 10^10)
                 0.0000
    Dipole Moment (Debye)
         X      -1.5561      Y       0.8253      Z       1.3149
       Tot       2.1981
    Quadrupole Moments (Debye-Ang)
        XX     -54.7041     XY      -8.8005     YY     -72.9919
        XZ       4.2289     YZ       9.2905     ZZ     -66.7690
    Octopole Moments (Debye-Ang^2)
       XXX     154.6099    XXY     -20.1856    XYY      57.8057
       YYY    -132.5180    XXZ       2.6041    XYZ       3.1559
       YYZ      32.5479    XZZ      56.1860    YZZ     -43.6844
       ZZZ      31.2301
    Hexadecapole Moments (Debye-Ang^3)
      XXXX    -642.0813   XXXY      38.5123   XXYY    -218.5760
      XYYY      79.7121   YYYY    -760.8239   XXXZ      23.8924
      XXYZ      39.1902   XYYZ      -9.9831   YYYZ     181.9354
      XXZZ    -249.0053   XYZZ      13.2296   YYZZ    -280.9348
      XZZZ      25.5436   YZZZ     192.0053   ZZZZ    -852.9528
 -----------------------------------------------------------------
 Total job time:  15871.90s(wall), 228668.46s(cpu) 
 Tue May 14 20:56:25 2024

        *************************************************************
        *                                                           *
        *  Thank you very much for using Q-Chem.  Have a nice day.  *
        *                                                           *
        *************************************************************


