
Running Job 1 of 1 Q_in.in
qchem Q_in.in_114927.0 /scratch/ari.fischer/qChem2235139.hpc-mn1/qchem114927/ 0
/usr/local/qchem-5.4.1/exe/qcprog.exe_s Q_in.in_114927.0 /scratch/ari.fischer/qChem2235139.hpc-mn1/qchem114927/
                  Welcome to Q-Chem
     A Quantum Leap Into The Future Of Chemistry


 Q-Chem 5.4, Q-Chem, Inc., Pleasanton, CA (2021)

 License issued to: Nanyang Technological University (site)

 E. Epifanovsky,  A. T. B. Gilbert,  Xintian Feng,  Joonho Lee,  Yuezhi Mao,  
 N. Mardirossian,  P. Pokhilko,  A. White,  M. Wormit,  M. P. Coons,  
 A. L. Dempwolff,  Zhengting Gan,  D. Hait,  P. R. Horn,  L. D. Jacobson,  
 I. Kaliman,  J. Kussmann,  A. W. Lange,  Ka Un Lao,  D. S. Levine,  Jie Liu,  
 S. C. McKenzie,  A. F. Morrison,  K. Nanda,  F. Plasser,  D. R. Rehn,  
 M. L. Vidal,  Zhi-Qiang You,  Ying Zhu,  B. Alam,  B. Albrecht,  
 A. Aldossary,  E. Alguire,  J. H. Andersen,  D. Barton,  K. Begam,  A. Behn,  
 Y. A. Bernard,  E. J. Berquist,  H. Burton,  A. Carreras,  K. Carter-Fenk,  
 R. Chakraborty,  A. D. Chien,  K. D. Closser,  V. Cofer-Shabica,  
 S. Dasgupta,  Jia Deng,  M. de Wergifosse,  M. Diedenhofen,  Hainam Do,  
 S. Ehlert,  Po-Tung Fang,  S. Fatehi,  Qingguo Feng,  T. Friedhoff,  
 J. Gayvert,  Qinghui Ge,  G. Gidofalvi,  M. Goldey,  J. Gomes,  
 C. Gonzalez-Espinoza,  S. Gulania,  A. Gunina,  M. W. D. Hanson-Heine,  
 P. H. P. Harbach,  A. W. Hauser,  M. F. Herbst,  M. Hernandez Vera,  
 M. Hodecker,  Z. C. Holden,  S. Houck,  Xunkun Huang,  Kerwin Hui,  
 B. C. Huynh,  M. Ivanov,  Hyunjun Ji,  Hanjie Jiang,  B. Kaduk,  S. Kaehler,  
 K. Khistyaev,  Jaehoon Kim,  P. Klunzinger,  Z. Koczor-Benda,  
 Joong Hoon Koh,  D. Kosenkov,  L. Koulias,  T. Kowalczyk,  C. M. Krauter,  
 K. Kue,  A. Kunitsa,  T. Kus,  A. Landau,  K. V. Lawler,  D. Lefrancois,  
 S. Lehtola,  Rain Li,  Yi-Pei Li,  Jiashu Liang,  M. Liebenthal,  
 Hung-Hsuan Lin,  You-Sheng Lin,  Fenglai Liu,  Kuan-Yu Liu,  
 M. Loipersberger,  A. Luenser,  A. Manjanath,  P. Manohar,  E. Mansoor,  
 S. F. Manzer,  Shan-Ping Mao,  A. V. Marenich,  T. Markovich,  S. Mason,  
 S. A. Maurer,  P. F. McLaughlin,  M. F. S. J. Menger,  J.-M. Mewes,  
 S. A. Mewes,  P. Morgante,  J. W. Mullinax,  K. J. Oosterbaan,  G. Paran,  
 Alexander C. Paul,  Suranjan K. Paul,  F. Pavosevic,  Zheng Pei,  S. Prager,  
 E. I. Proynov,  E. Ramos,  B. Rana,  A. E. Rask,  A. Rettig,  R. M. Richard,  
 F. Rob,  E. Rossomme,  T. Scheele,  M. Scheurer,  M. Schneider,  
 N. Sergueev,  S. M. Sharada,  W. Skomorowski,  D. W. Small,  C. J. Stein,  
 Yu-Chuan Su,  E. J. Sundstrom,  Zhen Tao,  J. Thirman,  T. Tsuchimochi,  
 N. M. Tubman,  S. P. Veccham,  O. Vydrov,  J. Wenzel,  J. Witte,  A. Yamada,  
 Kun Yao,  S. Yeganeh,  S. R. Yost,  A. Zech,  Igor Ying Zhang,  Xing Zhang,  
 Yu Zhang,  D. Zuev,  A. Aspuru-Guzik,  A. T. Bell,  N. A. Besley,  
 K. B. Bravaya,  B. R. Brooks,  D. Casanova,  Jeng-Da Chai,  S. Coriani,  
 C. J. Cramer,  A. E. DePrince, III,  R. A. DiStasio Jr.,  A. Dreuw,  
 B. D. Dunietz,  T. R. Furlani,  W. A. Goddard III,  S. Grimme,  
 S. Hammes-Schiffer,  T. Head-Gordon,  W. J. Hehre,  Chao-Ping Hsu,  
 T.-C. Jagau,  Yousung Jung,  A. Klamt,  Jing Kong,  D. S. Lambrecht,  
 WanZhen Liang,  N. J. Mayhall,  C. W. McCurdy,  J. B. Neaton,  
 C. Ochsenfeld,  J. A. Parkhill,  R. Peverati,  V. A. Rassolov,  Yihan Shao,  
 L. V. Slipchenko,  T. Stauch,  R. P. Steele,  J. E. Subotnik,  
 A. J. W. Thom,  A. Tkatchenko,  D. G. Truhlar,  T. Van Voorhis,  
 T. A. Wesolowski,  K. B. Whaley,  H. L. Woodcock III,  P. M. Zimmerman,  
 S. Faraji,  P. M. W. Gill,  M. Head-Gordon,  J. M. Herbert,  A. I. Krylov

 Additional authors for Version 5.4.1: 
 S. Kotaru,  Shaozhi Li,  Xiangyuan Li,  F. Matz,  A. Molle,  Haisheng Ren,  
 Yingli Su,  Hung-Yi Tsai,  C. Utku,  Fang Wang

 Contributors to earlier versions of Q-Chem not listed above: 
 R. D. Adamson,  B. Austin,  R. Baer,  J. Baker,  G. J. O. Beran,  
 K. Brandhorst,  S. T. Brown,  E. F. C. Byrd,  A. K. Chakraborty,  
 G. K. L. Chan,  Chun-Min Chang,  Yunqing Chen,  C.-L. Cheng,  
 Siu Hung Chien,  D. M. Chipman,  D. L. Crittenden,  H. Dachsel,  
 R. J. Doerksen,  A. D. Dutoi,  R. G. Edgar,  J. Fosso-Tande,  
 L. Fusti-Molnar,  D. Ghosh,  A. Ghysels,  A. Golubeva-Zadorozhnaya,  
 J. Gonthier,  M. S. Gordon,  S. R. Gwaltney,  G. Hawkins,  J. E. Herr,  
 A. Heyden,  S. Hirata,  E. G. Hohenstein,  G. Kedziora,  F. J. Keil,  
 C. Kelley,  Jihan Kim,  R. A. King,  R. Z. Khaliullin,  P. P. Korambath,  
 W. Kurlancheek,  A. Laurent,  A. M. Lee,  M. S. Lee,  S. V. Levchenko,  
 Ching Yeh Lin,  D. Liotard,  E. Livshits,  R. C. Lochan,  I. Lotan,  
 L. A. Martinez-Martinez,  P. E. Maslen,  N. Nair,  D. P. O'Neill,  
 D. Neuhauser,  E. Neuscamman,  C. M. Oana,  R. Olivares-Amaya,  R. Olson,  
 T. M. Perrine,  B. Peters,  P. A. Pieniazek,  A. Prociuk,  Y. M. Rhee,  
 J. Ritchie,  M. A. Rohrdanz,  E. Rosta,  N. J. Russ,  H. F. Schaefer III,  
 M. W. Schmidt,  N. E. Schultz,  S. Sharma,  N. Shenvi,  C. D. Sherrill,  
 A. C. Simmonett,  A. Sodt,  T. Stein,  D. Stuck,  K. S. Thanthiriwatte,  
 V. Vanovschi,  L. Vogt,  Tao Wang,  A. Warshel,  M. A. Watson,  
 C. F. Williams,  Q. Wu,  X. Xu,  Jun Yang,  W. Zhang,  Yan Zhao

 Please cite Q-Chem as follows:
 Y. Shao et al., Mol. Phys. 113, 184-215 (2015)
 DOI: 10.1080/00268976.2014.952696

 Q-Chem 5.4.1 for Intel X86 EM64T Linux

 Parts of Q-Chem use Armadillo 9.800.1 (Horizon Scraper).
 http://arma.sourceforge.net/

 Q-Chem begins on Sat Jul 13 06:13:21 2024  

 Host: 
0

     Scratch files written to /scratch/ari.fischer/qChem2235139.hpc-mn1/qchem114927//
 Aug1521 |scratch|qcdevops|jenkins|workspace|build_RNUM 8249   
 Processing $rem in /usr/local/qchem-5.4.1/config/preferences:
 Processing $rem in /home/ari.fischer/.qchemrc:
 Symmetry turned off for PCM/SM12/SMD calculation


!!********************************************.
!!******************Warning*******************.
!!Desired Analytical derivatives not available.
!!Finite difference job might take a long time.
!!********************************************.
!!********************************************.


 2-order derivative to be evaluated numerically with 1-order analytical derivatives

 Checking the input file for inconsistencies... 	...done.

--------------------------------------------------------------
User input:
--------------------------------------------------------------
$molecule
0 2
C         2.3265989285   -1.2003247668   -0.8080398755
O         1.5855263136   -0.6455998246    0.2411026411
C         3.7775777768   -1.3618100507   -0.3598081852
O         3.9058977228   -1.6120189808    0.9384698621
C         2.7937628928    1.8686914797    0.2817583745
O         3.9595764327    1.6011318364    0.0757606221
H         2.3142253864   -0.5675307671   -1.6928316347
H         0.7650516517   -0.2950855500   -0.1271510992
H         2.4124031010    1.9869035545    1.3023563338
H         2.0893227776    2.0232938564   -0.5444509349
O         1.8321272808   -2.4539279610   -1.2153669942
H         1.8390115753   -3.0516334791   -0.4556891397
O         4.7025176426   -1.3188246093   -1.1375561095
O         4.4672419019    1.0642761123   -2.6299426345
H         4.8447327371   -1.7566367526    1.1411351766
H         4.3211640785    1.2695940024   -1.6755179029
$end

$rem
BASIS = 6-311++G(2df,2p)
GUI = 2
JOB_TYPE = Frequency
METHOD = wB97M-V
SOLVENT_METHOD = SMD
SCF_ALGORITHM = DIIS_GDM
MAX_SCF_CYCLES = 400
SCF_CONVERGENCE = 7
THRESH = 12
$end
--------------------------------------------------------------
 ----------------------------------------------------------------
             Standard Nuclear Orientation (Angstroms)
    I     Atom           X                Y                Z
 ----------------------------------------------------------------
    1      C       2.3265989285    -1.2003247668    -0.8080398755
    2      O       1.5855263136    -0.6455998246     0.2411026411
    3      C       3.7775777768    -1.3618100507    -0.3598081852
    4      O       3.9058977228    -1.6120189808     0.9384698621
    5      C       2.7937628928     1.8686914797     0.2817583745
    6      O       3.9595764327     1.6011318364     0.0757606221
    7      H       2.3142253864    -0.5675307671    -1.6928316347
    8      H       0.7650516517    -0.2950855500    -0.1271510992
    9      H       2.4124031010     1.9869035545     1.3023563338
   10      H       2.0893227776     2.0232938564    -0.5444509349
   11      O       1.8321272808    -2.4539279610    -1.2153669942
   12      H       1.8390115753    -3.0516334791    -0.4556891397
   13      O       4.7025176426    -1.3188246093    -1.1375561095
   14      O       4.4672419019     1.0642761123    -2.6299426345
   15      H       4.8447327371    -1.7566367526     1.1411351766
   16      H       4.3211640785     1.2695940024    -1.6755179029
 ----------------------------------------------------------------
 Nuclear Repulsion Energy =         487.33888843 hartrees
 There are       37 alpha and       36 beta electrons
 Requested basis set is 6-311++G(2df,2p)
 There are 114 shells and 376 basis functions

 Total QAlloc Memory Limit 288000 MB
 Mega-Array Size       188 MB
 MEM_STATIC part       192 MB
 
 Citation of the SMD model:
 Marenich, A.V.; Cramer, C.J.; Truhlar, D.G.
 J. Phys. Chem. B 2009, 113, 6378-6396.
 iSolventCode=           1
 Solvent: water                                                           
 
 vradii
            1           2           3           4           5           6
    1   1.8500000   1.5200000   1.8500000   1.5200000   1.8500000   1.5200000
            7           8           9          10          11          12
    1   1.2000000   1.2000000   1.2000000   1.2000000   1.5200000   1.2000000
           13          14          15          16
    1   1.5200000   1.5200000   1.2000000   1.2000000
 Changing PCM_VDW_RADII to SMD_RADIUS
 Discretize the solute cavity surface with Lebedev spheres
	Using 110 Lebedev grid points for each H atom
	Using 194 Lebedev grid points for other atoms
	Atomic van der Waals radii will be scaled by 1.20
 Remove points where switching function is < 1.0e-08
 Keep 1427 surface tesserae and discard 1089 interior tesserae
 Molecular Surface Area = 166.535 Angst**2
 A cutoff of  1.0D-12 yielded   5776 shell pairs
 There are     62634 function pairs (     78025 Cartesian)
 Smallest overlap matrix eigenvalue = 2.97E-05
 Guess from superposition of atomic densities
 Warning:  Energy on first SCF cycle will be non-variational
 SAD guess density has 73.000000 electrons

 -----------------------------------------------------------------------
  General SCF calculation program by
  Eric Jon Sundstrom, Paul Horn, Yuezhi Mao, Dmitri Zuev, Alec White,
  David Stuck, Shaama M.S., Shane Yost, Joonho Lee, David Small,
  Daniel Levine, Susi Lehtola, Hugh Burton, Evgeny Epifanovsky,
  Bang C. Huynh
 -----------------------------------------------------------------------
 Exchange:     0.1500 Hartree-Fock + 1.0000 wB97M-V + LR-HF
 Correlation:  1.0000 wB97M-V
 Using SG-2 standard quadrature grid
 Nonlocal Correlation:  VV10 with C = 0.0100 and b = 6.00 and scale = 1.00000
 Grid used for NLC:  SG-1 standard quadrature
 using 16 threads for integral computing
 -------------------------------------------------------
 OpenMP Integral computing Module                
 Release: version 1.0, May 2013, Q-Chem Inc. Pittsburgh 
 -------------------------------------------------------
 
 Citation of the SMD model:
 Marenich, A.V.; Cramer, C.J.; Truhlar, D.G.
 J. Phys. Chem. B 2009, 113, 6378-6396.
 iSolventCode=           1
 Solvent: water                                                           
 
 vradii
            1           2           3           4           5           6
    1   1.8500000   1.5200000   1.8500000   1.5200000   1.8500000   1.5200000
            7           8           9          10          11          12
    1   1.2000000   1.2000000   1.2000000   1.2000000   1.5200000   1.2000000
           13          14          15          16
    1   1.5200000   1.5200000   1.2000000   1.2000000
 -------------------------------------------------------
 OpenMP BLAS3 based DFT computing Module                
 Release: version 1.0, May 2013, Q-Chem Inc. Pittsburgh 
 -------------------------------------------------------
 A unrestricted SCF calculation will be
 performed using DIIS, GDM
 SCF converges when RMS gradient is below 1.0e-07
 ---------------------------------------
  Cycle       Energy         DIIS error
 ---------------------------------------
    1    -570.9388130775      1.26e-02  
    2    -569.3758179171      2.52e-03  Done DIIS. Switching to GDM
 ---------------------------------------
  Cycle       Energy        RMS Gradient
 ---------------------------------------
    1    -569.3758179171      2.81e-01   Descent step
    2    -569.6795572707      7.45e-02   Descent step
    3    -569.7411428323      5.51e-02   Normal BFGS step
    4    -569.7584512237      1.80e-02   Normal BFGS step
    5    -569.7600277689      1.37e-02   Normal BFGS step
    6    -569.7606798720      3.88e-03   Normal BFGS step
    7    -569.7608659918      2.20e-03   Normal BFGS step
    8    -569.7609117675      1.80e-03   Normal BFGS step
    9    -569.7609284771      2.13e-03   Normal BFGS step
   10    -569.7609448663      2.55e-03   Normal BFGS step
   11    -569.7610363859      5.82e-03   Normal BFGS step
   12    -569.7564826056      3.02e-02  Line search: overstep
   13    -569.7611195328      8.14e-03  Line search: understep
   14    -569.7578836023      2.67e-02  Line search: overstep
   15    -569.7611760349      1.04e-02   Dog-leg BFGS step
   16    -569.7568007696      3.37e-02  Line search: overstep
   17    -569.7612898575      1.21e-02  Line search: understep
   18    -569.7581243998      3.05e-02  Line search: overstep
   19    -569.7613670778      1.30e-02   Dog-leg BFGS step
   20    -569.7625816202      3.57e-02   Dog-leg BFGS step
   21    -569.8061387102      1.31e-01   Dog-leg BFGS step
   22    -569.8373058868      1.62e-02   Dog-leg BFGS step
   23    -569.7910314259      6.82e-02  Line search: overstep
   24    -569.8375123075      1.75e-02   Dog-leg BFGS step
   25    -569.8022636831      8.37e-02  Line search: overstep
   26    -569.8395424505      9.52e-03   Normal BFGS step
   27    -569.8400875096      5.85e-03   Normal BFGS step
   28    -569.8402386674      2.52e-03   Normal BFGS step
   29    -569.8403043244      2.77e-03   Normal BFGS step
   30    -569.8403397327      2.57e-03   Normal BFGS step
   31    -569.8403825498      2.44e-03   Normal BFGS step
   32    -569.8404768781      2.88e-03   Normal BFGS step
   33    -569.8406116160      3.62e-03   Normal BFGS step
   34    -569.8408803759      4.24e-03   Normal BFGS step
   35    -569.8411696599      3.57e-03   Normal BFGS step
   36    -569.8414709799      1.29e-03   Normal BFGS step
   37    -569.8415214274      6.13e-04   Normal BFGS step
   38    -569.8415296289      3.85e-04   Normal BFGS step
   39    -569.8415326005      1.93e-04   Normal BFGS step
   40    -569.8415329888      8.59e-05   Normal BFGS step
   41    -569.8415330880      2.56e-05   Normal BFGS step
   42    -569.8415331034      9.81e-06   Normal BFGS step
   43    -569.8415331065      3.53e-06   Normal BFGS step
   44    -569.8415331070      2.04e-06   Normal BFGS step
   45    -569.8415331070      1.44e-06   Normal BFGS step
   46    -569.8415331070      6.65e-07   Normal BFGS step
   47    -569.8415331070      3.01e-07   Normal BFGS step
   48    -569.8415331070      1.24e-07   Normal BFGS step
   49    -569.8415331070      4.08e-08  Convergence criterion met
 ---------------------------------------
 SCF time:   CPU 4269.63s  wall 295.00s 
<S^2> =          0.752914916
(3)  G-ENP(liq) elect-nuc-pol free energy of system     -569.841533107 a.u.
(4)  G-CDS(liq) cavity-dispersion-solvent structure 
     free energy                                                6.1538 kcal/mol
(6)  G-S(liq) free energy of system                     -569.831726354 a.u.
 SCF   energy in the final basis set =     -569.8317263543
 Total energy in the final basis set =     -569.8317263543
 
 --------------------------------------------------------------
 
                    Orbital Energies (a.u.)
 --------------------------------------------------------------
 
 Alpha MOs
 -- Occupied --
-19.3924 -19.3875 -19.3593 -19.3578 -19.3566 -19.3430 -10.4955 -10.4646
-10.4432  -1.2612  -1.2108  -1.2015  -1.1689  -1.1465  -1.1265  -0.8563
 -0.7532  -0.7514  -0.6763  -0.6456  -0.6258  -0.6199  -0.6100  -0.5912
 -0.5676  -0.5579  -0.5416  -0.5355  -0.5153  -0.5087  -0.4663  -0.4560
 -0.4515  -0.4419  -0.4188  -0.3980  -0.3861
 -- Virtual --
  0.0264   0.0332   0.0394   0.0481   0.0492   0.0651   0.0703   0.0766
  0.0820   0.0918   0.1052   0.1210   0.1295   0.1348   0.1391   0.1427
  0.1554   0.1602   0.1631   0.1771   0.1909   0.2064   0.2248   0.2300
  0.2468   0.2508   0.2578   0.2648   0.2741   0.2779   0.2791   0.2861
  0.2950   0.3027   0.3143   0.3176   0.3261   0.3329   0.3352   0.3428
  0.3518   0.3583   0.3675   0.3713   0.3774   0.3811   0.3936   0.4075
  0.4103   0.4142   0.4219   0.4347   0.4440   0.4586   0.4632   0.5058
  0.5246   0.5500   0.5689   0.5734   0.5882   0.6090   0.6129   0.6313
  0.6471   0.6569   0.6599   0.6759   0.6902   0.7006   0.7219   0.7318
  0.7463   0.7672   0.7772   0.7913   0.8119   0.8448   0.8475   0.8552
  0.8627   0.8811   0.9009   0.9145   0.9498   0.9586   0.9872   1.0130
  1.0245   1.0467   1.0633   1.0751   1.0794   1.0953   1.0969   1.1043
  1.1208   1.1428   1.1587   1.1641   1.1718   1.1758   1.1948   1.2047
  1.2181   1.2221   1.2351   1.2432   1.2696   1.2786   1.2882   1.2974
  1.3155   1.3376   1.3467   1.3640   1.3801   1.4049   1.4223   1.4508
  1.4591   1.4726   1.4998   1.5076   1.5312   1.5325   1.5493   1.5575
  1.5732   1.5901   1.6332   1.6370   1.6562   1.6997   1.7054   1.7349
  1.7529   1.7772   1.8072   1.8166   1.8542   1.8723   1.8914   1.9239
  1.9439   1.9510   1.9706   1.9951   2.0572   2.0923   2.1223   2.1486
  2.2102   2.2701   2.2878   2.2948   2.3355   2.3530   2.3659   2.4056
  2.4080   2.4603   2.4765   2.5234   2.5428   2.5865   2.6618   2.6865
  2.6966   2.7616   2.7771   2.8133   2.8817   2.9014   2.9059   2.9558
  2.9840   3.0131   3.0332   3.0686   3.1143   3.1213   3.1498   3.1616
  3.1710   3.2221   3.2267   3.2782   3.2888   3.2955   3.3397   3.3514
  3.3646   3.3927   3.4179   3.4527   3.4680   3.5250   3.5463   3.6022
  3.6104   3.6435   3.6583   3.6707   3.6919   3.6961   3.7607   3.7857
  3.8093   3.8199   3.8350   3.8563   3.8687   3.8909   3.9088   3.9181
  3.9536   4.0003   4.0264   4.1036   4.1210   4.1474   4.1732   4.1946
  4.2155   4.2185   4.2377   4.2534   4.2937   4.3570   4.3714   4.4007
  4.4113   4.4521   4.5402   4.6460   4.7615   5.0380   5.0478   5.0715
  5.0747   5.0775   5.0934   5.1377   5.1397   5.1586   5.1654   5.1739
  5.1902   5.1978   5.2223   5.2379   5.2423   5.2668   5.2767   5.2964
  5.3016   5.3212   5.3298   5.3530   5.3778   5.3939   5.4472   5.4607
  5.4791   5.5062   5.5144   5.5216   5.5365   5.5476   5.5583   5.5835
  5.5889   5.6001   5.6106   5.6222   5.6524   5.6785   5.7260   5.7901
  5.8136   5.9292   5.9462   6.0354   6.0505   6.1224   6.1656   6.3118
  6.4611   6.5229   6.5755   6.7382   6.7445   6.7662   6.7705   6.8789
  6.9289   6.9946   7.0001   7.0225   7.0485   7.0629   7.0686   7.0875
  7.1147   7.1372   7.1859   7.2313   7.2589   7.2712   7.2770   7.2978
  7.3031   7.3166   7.3455   7.3550   7.4130   7.4321   7.4542   7.5255
  7.6104   7.6205   7.6583   7.6623   7.7785   7.7820   7.7924   7.8233
  7.8993   7.9238  24.7731  24.9240  25.1446  50.3777  50.5733  50.6021
 50.6155  50.7015  50.7460
 
 Beta MOs
 -- Occupied --
-19.3923 -19.3631 -19.3594 -19.3578 -19.3566 -19.3425 -10.4955 -10.4646
-10.4432  -1.2609  -1.2108  -1.2015  -1.1682  -1.1465  -1.0562  -0.8562
 -0.7531  -0.7513  -0.6762  -0.6454  -0.6238  -0.6176  -0.6089  -0.5866
 -0.5673  -0.5413  -0.5379  -0.5342  -0.5151  -0.4658  -0.4550  -0.4434
 -0.4221  -0.4176  -0.3982  -0.3852
 -- Virtual --
 -0.0604   0.0265   0.0332   0.0396   0.0483   0.0502   0.0654   0.0720
  0.0770   0.0824   0.0927   0.1058   0.1212   0.1298   0.1354   0.1392
  0.1429   0.1557   0.1612   0.1646   0.1791   0.1915   0.2079   0.2256
  0.2303   0.2476   0.2515   0.2601   0.2648   0.2756   0.2797   0.2803
  0.2875   0.2961   0.3073   0.3145   0.3177   0.3268   0.3342   0.3355
  0.3445   0.3533   0.3591   0.3682   0.3721   0.3783   0.3815   0.3951
  0.4081   0.4108   0.4163   0.4232   0.4357   0.4446   0.4591   0.4646
  0.5073   0.5254   0.5500   0.5692   0.5737   0.5886   0.6092   0.6130
  0.6315   0.6472   0.6571   0.6604   0.6766   0.6917   0.7013   0.7223
  0.7322   0.7465   0.7675   0.7780   0.7917   0.8124   0.8450   0.8479
  0.8555   0.8637   0.8831   0.9024   0.9161   0.9512   0.9589   0.9901
  1.0156   1.0256   1.0475   1.0677   1.0769   1.0815   1.0975   1.1010
  1.1093   1.1219   1.1474   1.1598   1.1680   1.1728   1.1778   1.1987
  1.2119   1.2204   1.2314   1.2380   1.2468   1.2764   1.2813   1.2919
  1.2995   1.3164   1.3393   1.3475   1.3645   1.3849   1.4059   1.4241
  1.4545   1.4609   1.4739   1.5017   1.5120   1.5344   1.5491   1.5549
  1.5582   1.5986   1.6119   1.6444   1.6534   1.6682   1.7072   1.7155
  1.7413   1.7551   1.7843   1.8080   1.8177   1.8547   1.8731   1.8958
  1.9244   1.9508   1.9602   1.9747   2.0145   2.0578   2.0928   2.1227
  2.1498   2.2106   2.2726   2.2885   2.3038   2.3357   2.3532   2.3667
  2.4061   2.4083   2.4615   2.4829   2.5237   2.5437   2.5868   2.6622
  2.6881   2.6969   2.7618   2.7777   2.8134   2.8825   2.9022   2.9145
  2.9561   2.9887   3.0135   3.0334   3.0692   3.1143   3.1215   3.1499
  3.1617   3.1712   3.2222   3.2271   3.2783   3.2889   3.2957   3.3399
  3.3516   3.3649   3.3928   3.4181   3.4528   3.4682   3.5252   3.5468
  3.6024   3.6105   3.6436   3.6586   3.6711   3.6923   3.6966   3.7656
  3.7881   3.8107   3.8214   3.8390   3.8633   3.8715   3.8916   3.9093
  3.9223   3.9540   4.0006   4.0265   4.1039   4.1212   4.1476   4.1733
  4.1947   4.2156   4.2186   4.2378   4.2534   4.2938   4.3576   4.3715
  4.4088   4.4147   4.4525   4.5405   4.6461   4.7617   5.0399   5.1321
  5.1347   5.1360   5.1430   5.1559   5.1611   5.1674   5.1708   5.1759
  5.1876   5.2002   5.2122   5.2232   5.2393   5.2427   5.2702   5.2858
  5.2965   5.3024   5.3220   5.3314   5.3553   5.3799   5.3958   5.4486
  5.4742   5.4843   5.5067   5.5172   5.5219   5.5370   5.5486   5.5837
  5.6005   5.6052   5.6194   5.6237   5.6284   5.6529   5.6787   5.7263
  5.7904   5.8138   5.9296   5.9464   6.0356   6.0507   6.1226   6.1657
  6.3117   6.4618   6.5233   6.5755   6.7387   6.7491   6.8788   6.8885
  6.9199   6.9423   7.0013   7.0403   7.0493   7.0629   7.0679   7.0848
  7.0925   7.1192   7.1565   7.1885   7.2320   7.2592   7.2718   7.2914
  7.2985   7.3047   7.3181   7.3460   7.3552   7.4140   7.4359   7.4650
  7.5259   7.6110   7.6556   7.6626   7.6684   7.7801   7.7831   7.7937
  7.8242   7.8995   7.9240  24.7731  24.9240  25.1446  50.3945  50.5734
 50.6021  50.6155  50.7014  50.7464
 --------------------------------------------------------------
 
          Ground-State Mulliken Net Atomic Charges

     Atom                 Charge (a.u.)    Spin (a.u.)
  --------------------------------------------------------
      1 C                    -0.041503      -0.002241
      2 O                    -0.366035       0.000045
      3 C                     0.173268       0.012277
      4 O                    -0.254262       0.001835
      5 C                    -0.074393      -0.000425
      6 O                    -0.298740      -0.000595
      7 H                     0.278023      -0.000310
      8 H                     0.342460       0.000006
      9 H                     0.189294      -0.000218
     10 H                     0.217910      -0.000174
     11 O                    -0.398721      -0.000040
     12 H                     0.347581       0.000025
     13 O                    -0.440011       0.002295
     14 O                    -0.405215       0.998366
     15 H                     0.352937      -0.000158
     16 H                     0.377407      -0.010688
  --------------------------------------------------------
  Sum of atomic charges =     0.000000
  Sum of spin   charges =     1.000000

 -----------------------------------------------------------------
                    Cartesian Multipole Moments
 -----------------------------------------------------------------
    Charge (ESU x 10^10)
                 0.0000
    Dipole Moment (Debye)
         X      -5.5859      Y       1.3028      Z       5.3112
       Tot       7.8171
    Quadrupole Moments (Debye-Ang)
        XX     -87.3963     XY      -3.6436     YY     -45.1872
        XZ      27.6072     YZ      -4.5198     ZZ     -68.1998
    Octopole Moments (Debye-Ang^2)
       XXX    -695.3172    XXY     -15.2056    XYY    -153.7775
       YYY      60.1592    XXZ     170.0881    XYZ     -16.4382
       YYZ      48.4251    XZZ    -232.7388    YZZ      28.0286
       ZZZ     127.3426
    Hexadecapole Moments (Debye-Ang^3)
      XXXX   -4683.9414   XXXY     -72.3654   XXYY    -731.4878
      XYYY     130.8853   YYYY    -709.0518   XXXZ    1043.8640
      XXYZ     -93.5889   XYYZ     168.1347   YYYZ     -74.8140
      XXZZ    -979.7161   XYZZ      39.3776   YYZZ    -247.8575
      XZZZ     503.8474   YZZZ     -23.4386   ZZZZ    -594.0251
 -----------------------------------------------------------------
 Calculating analytic gradient of the SCF energy
 Gradient of CDS energy
            1           2           3           4           5           6
    1  -0.0024933   0.0015562   0.0016793  -0.0004710   0.0008834  -0.0009519
    2  -0.0012087  -0.0010875  -0.0008862   0.0005918   0.0013110   0.0000713
    3   0.0008983  -0.0021986   0.0021724  -0.0030502   0.0006068   0.0000046
            7           8           9          10          11          12
    1   0.0001190  -0.0004696  -0.0000799   0.0000998   0.0008518  -0.0002489
    2   0.0001400  -0.0000258  -0.0001975  -0.0004651   0.0023072  -0.0004587
    3  -0.0000030   0.0001675  -0.0000381  -0.0001571   0.0007957   0.0000617
           13          14          15          16
    1  -0.0008379  -0.0000666   0.0002725   0.0001572
    2  -0.0000684  -0.0001125  -0.0000893   0.0001782
    3   0.0006852  -0.0002396   0.0003207  -0.0000263
 Gradient of SCF Energy
            1           2           3           4           5           6
    1   0.0010817   0.0188641   0.0015892  -0.0144856   0.0129825   0.0069599
    2  -0.0059632  -0.0115080   0.0005897   0.0044982  -0.0031623  -0.0016233
    3   0.0091247   0.0113888  -0.0026899   0.0001571  -0.0004823  -0.0001020
            7           8           9          10          11          12
    1  -0.0035486  -0.0174115  -0.0068016  -0.0125528   0.0005839  -0.0002566
    2   0.0076498   0.0123829   0.0024776   0.0017730   0.0047117  -0.0076769
    3  -0.0036692  -0.0085342   0.0115964  -0.0113915  -0.0145705   0.0108812
           13          14          15          16
    1   0.0026230   0.0036585   0.0126614  -0.0059471
    2  -0.0002731  -0.0024850  -0.0039764   0.0025853
    3  -0.0071431  -0.0035228   0.0057625   0.0031948
 Max gradient component =       1.886E-02
 RMS gradient           =       7.988E-03
 Computing fast CPCM-SWIG gradient
 Updating gradient with PCM contributions...
 -- total gradient after adding PCM contribution --
---------------------------------------------------
  Atom         X              Y              Z     
---------------------------------------------------
   1       0.000137       0.000093       0.000040
   2       0.000022       0.000023       0.000058
   3      -0.000075       0.000026      -0.000046
   4      -0.000014      -0.000008       0.000027
   5      -0.000013      -0.000025       0.000019
   6       0.000001       0.000061      -0.000099
   7      -0.000124      -0.000057      -0.000040
   8      -0.000018      -0.000005       0.000007
   9       0.000008      -0.000008      -0.000001
  10      -0.000013       0.000008       0.000002
  11      -0.000058      -0.000016       0.000023
  12       0.000045      -0.000036       0.000033
  13       0.000067      -0.000033      -0.000047
  14      -0.000046      -0.000038      -0.000028
  15       0.000051       0.000003      -0.000019
  16       0.000028       0.000012       0.000071
---------------------------------------------------
 Number of fixed atoms: 0
 Gradient time:  CPU 216.94 s  wall 18.74 s
 ######################################################
 ######################################################
 # Starting finite difference calculation for IDERIV  #
 Finite diff step size:  1.88973e-03 a.u.
 ----------------------------------------------------------------
             Standard Nuclear Orientation (Angstroms)
    I     Atom           X                Y                Z
 ----------------------------------------------------------------
    1      C       2.3275989285    -1.2003247668    -0.8080398755
    2      O       1.5855263136    -0.6455998246     0.2411026411
    3      C       3.7775777768    -1.3618100507    -0.3598081852
    4      O       3.9058977228    -1.6120189808     0.9384698621
    5      C       2.7937628928     1.8686914797     0.2817583745
    6      O       3.9595764327     1.6011318364     0.0757606221
    7      H       2.3142253864    -0.5675307671    -1.6928316347
    8      H       0.7650516517    -0.2950855500    -0.1271510992
    9      H       2.4124031010     1.9869035545     1.3023563338
   10      H       2.0893227776     2.0232938564    -0.5444509349
   11      O       1.8321272808    -2.4539279610    -1.2153669942
   12      H       1.8390115753    -3.0516334791    -0.4556891397
   13      O       4.7025176426    -1.3188246093    -1.1375561095
   14      O       4.4672419019     1.0642761123    -2.6299426345
   15      H       4.8447327371    -1.7566367526     1.1411351766
   16      H       4.3211640785     1.2695940024    -1.6755179029
 ----------------------------------------------------------------
 Nuclear Repulsion Energy =         487.34453480 hartrees
 There are       37 alpha and       36 beta electrons
 Discretize the solute cavity surface with Lebedev spheres
	Using 110 Lebedev grid points for each H atom
	Using 194 Lebedev grid points for other atoms
	Atomic van der Waals radii will be scaled by 1.20
 Remove points where switching function is < 1.0e-08
 Keep 1427 surface tesserae and discard 1089 interior tesserae
 Molecular Surface Area = 166.535 Angst**2
 Requested basis set is 6-311++G(2df,2p)
 There are 114 shells and 376 basis functions
 A cutoff of  1.0D-12 yielded   5776 shell pairs
 There are     62634 function pairs (     78025 Cartesian)
 Smallest overlap matrix eigenvalue = 2.96E-05
 Guess MOs from SCF MO coefficient file

 -----------------------------------------------------------------------
  General SCF calculation program by
  Eric Jon Sundstrom, Paul Horn, Yuezhi Mao, Dmitri Zuev, Alec White,
  David Stuck, Shaama M.S., Shane Yost, Joonho Lee, David Small,
  Daniel Levine, Susi Lehtola, Hugh Burton, Evgeny Epifanovsky,
  Bang C. Huynh
 -----------------------------------------------------------------------
 Exchange:     0.1500 Hartree-Fock + 1.0000 wB97M-V + LR-HF
 Correlation:  1.0000 wB97M-V
 Using SG-2 standard quadrature grid
 Nonlocal Correlation:  VV10 with C = 0.0100 and b = 6.00 and scale = 1.00000
 Grid used for NLC:  SG-1 standard quadrature
 
 Citation of the SMD model:
 Marenich, A.V.; Cramer, C.J.; Truhlar, D.G.
 J. Phys. Chem. B 2009, 113, 6378-6396.
 iSolventCode=           1
 Solvent: water                                                           
 
 vradii
            1           2           3           4           5           6
    1   1.8500000   1.5200000   1.8500000   1.5200000   1.8500000   1.5200000
            7           8           9          10          11          12
    1   1.2000000   1.2000000   1.2000000   1.2000000   1.5200000   1.2000000
           13          14          15          16
    1   1.5200000   1.5200000   1.2000000   1.2000000
 -------------------------------------------------------
 OpenMP BLAS3 based DFT computing Module                
 Release: version 1.0, May 2013, Q-Chem Inc. Pittsburgh 
 -------------------------------------------------------
 A unrestricted SCF calculation will be
 performed using Roothaan-Hall, DIIS, GDM
 SCF converges when RMS gradient is below 1.0e-07
 ---------------------------------------
  Cycle       Energy         DIIS error
 ---------------------------------------
    1    -569.7823862731      2.84e-04  Roothaan Step
 ---------------------------------------
  Cycle       Energy         DIIS error
 ---------------------------------------
    1    -569.8301264297      3.37e-04  
    2    -569.8356981326      3.52e-04  Done DIIS. Switching to GDM
 ---------------------------------------
  Cycle       Energy        RMS Gradient
 ---------------------------------------
    1    -569.8356981326      2.19e-02   Normal BFGS step
    2    -569.8329997459      3.37e-02  Line search: overstep
    3    -569.8412260475      3.16e-03   Normal BFGS step
    4    -569.8414763018      1.17e-03   Normal BFGS step
    5    -569.8415164533      4.83e-04   Normal BFGS step
    6    -569.8415264206      1.45e-04   Normal BFGS step
    7    -569.8415269168      1.14e-04   Normal BFGS step
    8    -569.8415271647      6.17e-05   Normal BFGS step
    9    -569.8415271831      4.40e-05   Normal BFGS step
   10    -569.8415271922      2.96e-05   Normal BFGS step
   11    -569.8415271948      1.72e-05   Normal BFGS step
   12    -569.8415271962      1.22e-05   Normal BFGS step
   13    -569.8415271970      1.19e-05   Normal BFGS step
   14    -569.8415271974      1.16e-05   Normal BFGS step
   15    -569.8415271983      1.09e-05   Normal BFGS step
   16    -569.8415272000      1.52e-05   Normal BFGS step
   17    -569.8415272030      2.22e-05   Normal BFGS step
   18    -569.8415272061      1.99e-05   Normal BFGS step
   19    -569.8415272077      8.94e-06   Normal BFGS step
   20    -569.8415272081      2.55e-06   Normal BFGS step
   21    -569.8415272082      9.98e-07   Normal BFGS step
   22    -569.8415272083      4.50e-07   Normal BFGS step
   23    -569.8415272083      1.76e-07   Normal BFGS step
   24    -569.8415272082      6.17e-08  Convergence criterion met
 ---------------------------------------
 SCF time:   CPU 2067.09s  wall 143.00s 
<S^2> =          0.752914817
(3)  G-ENP(liq) elect-nuc-pol free energy of system     -569.841527208 a.u.
(4)  G-CDS(liq) cavity-dispersion-solvent structure 
     free energy                                                6.1509 kcal/mol
(6)  G-S(liq) free energy of system                     -569.831725109 a.u.
 SCF   energy in the final basis set =     -569.8317251090
 Total energy in the final basis set =     -569.8317251090
 
 --------------------------------------------------------------
 
                    Orbital Energies (a.u.)
 --------------------------------------------------------------
 
 Alpha MOs
 -- Occupied --
-19.3924 -19.3875 -19.3593 -19.3577 -19.3566 -19.3430 -10.4956 -10.4646
-10.4432  -1.2613  -1.2107  -1.2015  -1.1689  -1.1464  -1.1265  -0.8565
 -0.7532  -0.7515  -0.6762  -0.6457  -0.6258  -0.6199  -0.6100  -0.5912
 -0.5675  -0.5579  -0.5415  -0.5356  -0.5153  -0.5087  -0.4663  -0.4560
 -0.4515  -0.4419  -0.4187  -0.3981  -0.3861
 -- Virtual --
  0.0264   0.0332   0.0394   0.0481   0.0492   0.0651   0.0702   0.0765
  0.0820   0.0917   0.1052   0.1210   0.1295   0.1348   0.1391   0.1427
  0.1554   0.1602   0.1631   0.1771   0.1909   0.2064   0.2248   0.2300
  0.2468   0.2508   0.2578   0.2648   0.2741   0.2778   0.2791   0.2861
  0.2950   0.3026   0.3143   0.3176   0.3261   0.3329   0.3351   0.3428
  0.3518   0.3583   0.3675   0.3713   0.3774   0.3811   0.3936   0.4075
  0.4103   0.4143   0.4219   0.4347   0.4440   0.4586   0.4632   0.5059
  0.5246   0.5500   0.5690   0.5734   0.5882   0.6090   0.6129   0.6313
  0.6471   0.6568   0.6599   0.6759   0.6902   0.7006   0.7219   0.7317
  0.7463   0.7672   0.7771   0.7914   0.8119   0.8448   0.8475   0.8552
  0.8627   0.8811   0.9009   0.9145   0.9499   0.9585   0.9872   1.0130
  1.0245   1.0467   1.0633   1.0751   1.0794   1.0954   1.0969   1.1044
  1.1208   1.1428   1.1587   1.1641   1.1718   1.1758   1.1947   1.2047
  1.2181   1.2222   1.2350   1.2432   1.2696   1.2787   1.2882   1.2974
  1.3155   1.3375   1.3467   1.3642   1.3801   1.4049   1.4223   1.4507
  1.4592   1.4726   1.4998   1.5077   1.5312   1.5326   1.5493   1.5575
  1.5732   1.5900   1.6333   1.6370   1.6562   1.6997   1.7054   1.7349
  1.7529   1.7774   1.8073   1.8165   1.8543   1.8722   1.8915   1.9239
  1.9440   1.9511   1.9705   1.9950   2.0572   2.0925   2.1221   2.1486
  2.2101   2.2701   2.2878   2.2948   2.3353   2.3531   2.3659   2.4055
  2.4080   2.4603   2.4765   2.5234   2.5428   2.5865   2.6618   2.6865
  2.6969   2.7614   2.7773   2.8134   2.8818   2.9013   2.9059   2.9557
  2.9840   3.0129   3.0332   3.0685   3.1143   3.1216   3.1498   3.1616
  3.1711   3.2219   3.2266   3.2781   3.2887   3.2954   3.3397   3.3514
  3.3645   3.3924   3.4179   3.4528   3.4676   3.5252   3.5465   3.6022
  3.6105   3.6434   3.6583   3.6708   3.6920   3.6962   3.7608   3.7856
  3.8095   3.8198   3.8350   3.8562   3.8687   3.8912   3.9088   3.9181
  3.9534   4.0011   4.0267   4.1036   4.1210   4.1479   4.1736   4.1947
  4.2155   4.2188   4.2380   4.2536   4.2938   4.3572   4.3715   4.4008
  4.4115   4.4521   4.5407   4.6461   4.7620   5.0380   5.0478   5.0715
  5.0747   5.0775   5.0934   5.1377   5.1397   5.1586   5.1654   5.1739
  5.1902   5.1977   5.2224   5.2378   5.2423   5.2669   5.2767   5.2965
  5.3016   5.3211   5.3298   5.3530   5.3779   5.3939   5.4471   5.4607
  5.4789   5.5062   5.5144   5.5214   5.5366   5.5476   5.5583   5.5837
  5.5889   5.6000   5.6106   5.6222   5.6522   5.6785   5.7259   5.7903
  5.8135   5.9292   5.9461   6.0348   6.0505   6.1222   6.1634   6.3118
  6.4612   6.5223   6.5755   6.7378   6.7442   6.7661   6.7703   6.8789
  6.9289   6.9946   7.0002   7.0225   7.0485   7.0630   7.0686   7.0874
  7.1148   7.1373   7.1861   7.2313   7.2589   7.2712   7.2770   7.2978
  7.3030   7.3166   7.3455   7.3549   7.4131   7.4321   7.4542   7.5253
  7.6104   7.6205   7.6580   7.6624   7.7786   7.7821   7.7924   7.8233
  7.8993   7.9237  24.7722  24.9240  25.1454  50.3777  50.5732  50.6020
 50.6153  50.7015  50.7460
 
 Beta MOs
 -- Occupied --
-19.3924 -19.3632 -19.3594 -19.3577 -19.3566 -19.3425 -10.4956 -10.4646
-10.4432  -1.2610  -1.2106  -1.2015  -1.1683  -1.1464  -1.0562  -0.8565
 -0.7531  -0.7514  -0.6761  -0.6455  -0.6239  -0.6176  -0.6089  -0.5866
 -0.5672  -0.5412  -0.5379  -0.5342  -0.5151  -0.4658  -0.4549  -0.4434
 -0.4221  -0.4176  -0.3983  -0.3852
 -- Virtual --
 -0.0604   0.0265   0.0332   0.0396   0.0483   0.0502   0.0653   0.0719
  0.0770   0.0824   0.0927   0.1058   0.1212   0.1298   0.1354   0.1392
  0.1429   0.1557   0.1612   0.1646   0.1791   0.1915   0.2079   0.2256
  0.2303   0.2476   0.2515   0.2601   0.2649   0.2756   0.2797   0.2803
  0.2875   0.2960   0.3073   0.3146   0.3177   0.3268   0.3342   0.3355
  0.3445   0.3533   0.3591   0.3682   0.3721   0.3783   0.3815   0.3951
  0.4081   0.4108   0.4163   0.4232   0.4357   0.4446   0.4592   0.4645
  0.5073   0.5253   0.5500   0.5693   0.5737   0.5886   0.6091   0.6129
  0.6314   0.6472   0.6571   0.6604   0.6766   0.6917   0.7012   0.7224
  0.7321   0.7465   0.7675   0.7779   0.7917   0.8123   0.8450   0.8479
  0.8555   0.8637   0.8831   0.9024   0.9161   0.9512   0.9588   0.9901
  1.0156   1.0257   1.0475   1.0677   1.0769   1.0815   1.0975   1.1010
  1.1094   1.1219   1.1474   1.1598   1.1680   1.1727   1.1779   1.1987
  1.2120   1.2204   1.2314   1.2380   1.2468   1.2764   1.2814   1.2920
  1.2996   1.3164   1.3393   1.3475   1.3647   1.3849   1.4059   1.4241
  1.4544   1.4609   1.4739   1.5017   1.5120   1.5345   1.5491   1.5550
  1.5582   1.5986   1.6119   1.6445   1.6534   1.6682   1.7073   1.7155
  1.7413   1.7552   1.7844   1.8080   1.8176   1.8548   1.8730   1.8958
  1.9244   1.9509   1.9602   1.9746   2.0144   2.0578   2.0930   2.1225
  2.1498   2.2105   2.2727   2.2885   2.3038   2.3354   2.3532   2.3666
  2.4060   2.4083   2.4615   2.4829   2.5237   2.5437   2.5868   2.6622
  2.6881   2.6971   2.7616   2.7779   2.8136   2.8826   2.9021   2.9145
  2.9560   2.9886   3.0133   3.0334   3.0691   3.1144   3.1218   3.1499
  3.1617   3.1713   3.2220   3.2269   3.2782   3.2888   3.2956   3.3399
  3.3515   3.3648   3.3924   3.4181   3.4529   3.4679   3.5254   3.5470
  3.6024   3.6106   3.6436   3.6586   3.6713   3.6924   3.6966   3.7657
  3.7880   3.8108   3.8213   3.8390   3.8632   3.8715   3.8919   3.9092
  3.9223   3.9538   4.0014   4.0268   4.1038   4.1212   4.1481   4.1738
  4.1948   4.2155   4.2189   4.2381   4.2536   4.2939   4.3579   4.3715
  4.4089   4.4148   4.4525   4.5409   4.6461   4.7622   5.0399   5.1321
  5.1347   5.1360   5.1430   5.1559   5.1611   5.1674   5.1708   5.1759
  5.1876   5.2001   5.2122   5.2232   5.2393   5.2427   5.2702   5.2858
  5.2966   5.3024   5.3218   5.3313   5.3553   5.3800   5.3959   5.4485
  5.4741   5.4842   5.5067   5.5172   5.5217   5.5371   5.5485   5.5839
  5.6004   5.6052   5.6194   5.6237   5.6284   5.6528   5.6787   5.7262
  5.7906   5.8136   5.9296   5.9464   6.0350   6.0507   6.1224   6.1634
  6.3117   6.4619   6.5227   6.5755   6.7383   6.7485   6.8788   6.8885
  6.9199   6.9423   7.0014   7.0403   7.0493   7.0630   7.0678   7.0848
  7.0925   7.1193   7.1565   7.1886   7.2319   7.2592   7.2718   7.2914
  7.2984   7.3046   7.3181   7.3460   7.3551   7.4140   7.4359   7.4650
  7.5256   7.6110   7.6554   7.6626   7.6684   7.7802   7.7831   7.7937
  7.8242   7.8994   7.9239  24.7722  24.9240  25.1454  50.3945  50.5733
 50.6020  50.6153  50.7014  50.7464
 --------------------------------------------------------------
 
          Ground-State Mulliken Net Atomic Charges

     Atom                 Charge (a.u.)    Spin (a.u.)
  --------------------------------------------------------
      1 C                    -0.041315      -0.002241
      2 O                    -0.366409       0.000045
      3 C                     0.173317       0.012281
      4 O                    -0.254273       0.001835
      5 C                    -0.074381      -0.000425
      6 O                    -0.298760      -0.000595
      7 H                     0.278137      -0.000312
      8 H                     0.342477       0.000006
      9 H                     0.189297      -0.000218
     10 H                     0.217916      -0.000174
     11 O                    -0.398841      -0.000040
     12 H                     0.347570       0.000025
     13 O                    -0.439901       0.002288
     14 O                    -0.405203       0.998371
     15 H                     0.352961      -0.000158
     16 H                     0.377410      -0.010688
  --------------------------------------------------------
  Sum of atomic charges =     0.000000
  Sum of spin   charges =     1.000000

 -----------------------------------------------------------------
                    Cartesian Multipole Moments
 -----------------------------------------------------------------
    Charge (ESU x 10^10)
                 0.0000
    Dipole Moment (Debye)
         X      -5.5811      Y       1.3026      Z       5.3097
       Tot       7.8127
    Quadrupole Moments (Debye-Ang)
        XX     -87.3702     XY      -3.6499     YY     -45.1884
        XZ      27.6028     YZ      -4.5200     ZZ     -68.1975
    Octopole Moments (Debye-Ang^2)
       XXX    -695.2101    XXY     -15.2410    XYY    -153.7761
       YYY      60.1641    XXZ     170.0729    XYZ     -16.4377
       YYZ      48.4270    XZZ    -232.7330    YZZ      28.0273
       ZZZ     127.3372
    Hexadecapole Moments (Debye-Ang^3)
      XXXX   -4683.5092   XXXY     -72.5176   XXYY    -731.4596
      XYYY     130.9009   YYYY    -709.0784   XXXZ    1043.8177
      XXYZ     -93.5829   XYYZ     168.1437   YYYZ     -74.8247
      XXZZ    -979.6907   XYZZ      39.3739   YYZZ    -247.8580
      XZZZ     503.8465   YZZZ     -23.4409   ZZZZ    -594.0121
 -----------------------------------------------------------------
 Calculating analytic gradient of the SCF energy
 Gradient of CDS energy
            1           2           3           4           5           6
    1  -0.0024315   0.0015290   0.0016788  -0.0004713   0.0008833  -0.0009519
    2  -0.0011463  -0.0010648  -0.0008861   0.0005918   0.0013109   0.0000713
    3   0.0008843  -0.0021572   0.0021723  -0.0030501   0.0006069   0.0000046
            7           8           9          10          11          12
    1   0.0001182  -0.0004702  -0.0000800   0.0000998   0.0008196  -0.0002491
    2   0.0001400  -0.0000261  -0.0001976  -0.0004651   0.0022228  -0.0004588
    3  -0.0000034   0.0001678  -0.0000380  -0.0001571   0.0007682   0.0000617
           13          14          15          16
    1  -0.0008378  -0.0000666   0.0002725   0.0001572
    2  -0.0000685  -0.0001125  -0.0000893   0.0001782
    3   0.0006853  -0.0002396   0.0003207  -0.0000263
 Gradient of SCF Energy
            1           2           3           4           5           6
    1   0.0021475   0.0185555   0.0012275  -0.0144881   0.0129835   0.0069557
    2  -0.0059315  -0.0114175   0.0006358   0.0044979  -0.0031620  -0.0016195
    3   0.0091286   0.0114892  -0.0027972   0.0001626  -0.0004817  -0.0000998
            7           8           9          10          11          12
    1  -0.0036718  -0.0174477  -0.0067997  -0.0125505   0.0003626  -0.0002582
    2   0.0076652   0.0124095   0.0024768   0.0017729   0.0045002  -0.0076774
    3  -0.0036905  -0.0084590   0.0115939  -0.0113915  -0.0146216   0.0108724
           13          14          15          16
    1   0.0026000   0.0036586   0.0126726  -0.0059474
    2  -0.0002692  -0.0024847  -0.0039791   0.0025826
    3  -0.0071442  -0.0035278   0.0057674   0.0031991
 Max gradient component =       1.856E-02
 RMS gradient           =       7.979E-03
 Computing fast CPCM-SWIG gradient
 Updating gradient with PCM contributions...
 -- total gradient after adding PCM contribution --
---------------------------------------------------
  Atom         X              Y              Z     
---------------------------------------------------
   1       0.001181       0.000127       0.000037
   2      -0.000267       0.000112       0.000165
   3      -0.000436       0.000075      -0.000153
   4      -0.000008      -0.000010       0.000032
   5      -0.000009      -0.000024       0.000018
   6      -0.000002       0.000062      -0.000098
   7      -0.000234      -0.000044      -0.000060
   8      -0.000064       0.000025       0.000078
   9       0.000008      -0.000009      -0.000001
  10      -0.000013       0.000007       0.000002
  11      -0.000270      -0.000227      -0.000034
  12       0.000040      -0.000039       0.000030
  13       0.000038      -0.000031      -0.000043
  14      -0.000047      -0.000038      -0.000027
  15       0.000053       0.000002      -0.000015
  16       0.000028       0.000012       0.000071
---------------------------------------------------
 Number of fixed atoms: 0
 Gradient time:  CPU 210.40 s  wall 17.87 s
 ----------------------------------------------------------------
             Standard Nuclear Orientation (Angstroms)
    I     Atom           X                Y                Z
 ----------------------------------------------------------------
    1      C       2.3255989285    -1.2003247668    -0.8080398755
    2      O       1.5855263136    -0.6455998246     0.2411026411
    3      C       3.7775777768    -1.3618100507    -0.3598081852
    4      O       3.9058977228    -1.6120189808     0.9384698621
    5      C       2.7937628928     1.8686914797     0.2817583745
    6      O       3.9595764327     1.6011318364     0.0757606221
    7      H       2.3142253864    -0.5675307671    -1.6928316347
    8      H       0.7650516517    -0.2950855500    -0.1271510992
    9      H       2.4124031010     1.9869035545     1.3023563338
   10      H       2.0893227776     2.0232938564    -0.5444509349
   11      O       1.8321272808    -2.4539279610    -1.2153669942
   12      H       1.8390115753    -3.0516334791    -0.4556891397
   13      O       4.7025176426    -1.3188246093    -1.1375561095
   14      O       4.4672419019     1.0642761123    -2.6299426345
   15      H       4.8447327371    -1.7566367526     1.1411351766
   16      H       4.3211640785     1.2695940024    -1.6755179029
 ----------------------------------------------------------------
 Nuclear Repulsion Energy =         487.33324499 hartrees
 There are       37 alpha and       36 beta electrons
 Discretize the solute cavity surface with Lebedev spheres
	Using 110 Lebedev grid points for each H atom
	Using 194 Lebedev grid points for other atoms
	Atomic van der Waals radii will be scaled by 1.20
 Remove points where switching function is < 1.0e-08
 Keep 1427 surface tesserae and discard 1089 interior tesserae
 Molecular Surface Area = 166.536 Angst**2
 Requested basis set is 6-311++G(2df,2p)
 There are 114 shells and 376 basis functions
 A cutoff of  1.0D-12 yielded   5776 shell pairs
 There are     62634 function pairs (     78025 Cartesian)
 Smallest overlap matrix eigenvalue = 2.98E-05
 Guess MOs from SCF MO coefficient file

 -----------------------------------------------------------------------
  General SCF calculation program by
  Eric Jon Sundstrom, Paul Horn, Yuezhi Mao, Dmitri Zuev, Alec White,
  David Stuck, Shaama M.S., Shane Yost, Joonho Lee, David Small,
  Daniel Levine, Susi Lehtola, Hugh Burton, Evgeny Epifanovsky,
  Bang C. Huynh
 -----------------------------------------------------------------------
 Exchange:     0.1500 Hartree-Fock + 1.0000 wB97M-V + LR-HF
 Correlation:  1.0000 wB97M-V
 Using SG-2 standard quadrature grid
 Nonlocal Correlation:  VV10 with C = 0.0100 and b = 6.00 and scale = 1.00000
 Grid used for NLC:  SG-1 standard quadrature
 
 Citation of the SMD model:
 Marenich, A.V.; Cramer, C.J.; Truhlar, D.G.
 J. Phys. Chem. B 2009, 113, 6378-6396.
 iSolventCode=           1
 Solvent: water                                                           
 
 vradii
            1           2           3           4           5           6
    1   1.8500000   1.5200000   1.8500000   1.5200000   1.8500000   1.5200000
            7           8           9          10          11          12
    1   1.2000000   1.2000000   1.2000000   1.2000000   1.5200000   1.2000000
           13          14          15          16
    1   1.5200000   1.5200000   1.2000000   1.2000000
 -------------------------------------------------------
 OpenMP BLAS3 based DFT computing Module                
 Release: version 1.0, May 2013, Q-Chem Inc. Pittsburgh 
 -------------------------------------------------------
 A unrestricted SCF calculation will be
 performed using Roothaan-Hall, DIIS, GDM
 SCF converges when RMS gradient is below 1.0e-07
 ---------------------------------------
  Cycle       Energy         DIIS error
 ---------------------------------------
    1    -569.7823934678      2.83e-04  Roothaan Step
 ---------------------------------------
  Cycle       Energy         DIIS error
 ---------------------------------------
    1    -569.8301593606      3.36e-04  
    2    -569.8357466185      3.51e-04  Done DIIS. Switching to GDM
 ---------------------------------------
  Cycle       Energy        RMS Gradient
 ---------------------------------------
    1    -569.8357466185      2.20e-02   Normal BFGS step
    2    -569.8330703627      3.37e-02  Line search: overstep
    3    -569.8412359920      3.16e-03   Normal BFGS step
    4    -569.8414864336      1.17e-03   Normal BFGS step
    5    -569.8415264318      4.75e-04   Normal BFGS step
    6    -569.8415363652      1.45e-04   Normal BFGS step
    7    -569.8415368604      1.12e-04   Normal BFGS step
    8    -569.8415371073      6.16e-05   Normal BFGS step
    9    -569.8415371259      4.40e-05   Normal BFGS step
   10    -569.8415371349      2.96e-05   Normal BFGS step
   11    -569.8415371375      1.71e-05   Normal BFGS step
   12    -569.8415371389      1.23e-05   Normal BFGS step
   13    -569.8415371397      1.20e-05   Normal BFGS step
   14    -569.8415371402      1.18e-05   Normal BFGS step
   15    -569.8415371411      1.12e-05   Normal BFGS step
   16    -569.8415371430      1.55e-05   Normal BFGS step
   17    -569.8415371461      2.27e-05   Normal BFGS step
   18    -569.8415371493      2.01e-05   Normal BFGS step
   19    -569.8415371510      8.91e-06   Normal BFGS step
   20    -569.8415371514      2.53e-06   Normal BFGS step
   21    -569.8415371515      1.01e-06   Normal BFGS step
   22    -569.8415371515      4.51e-07   Normal BFGS step
   23    -569.8415371515      1.77e-07   Normal BFGS step
   24    -569.8415371515      6.10e-08  Convergence criterion met
 ---------------------------------------
 SCF time:   CPU 2082.23s  wall 144.00s 
<S^2> =          0.752915012
(3)  G-ENP(liq) elect-nuc-pol free energy of system     -569.841537151 a.u.
(4)  G-CDS(liq) cavity-dispersion-solvent structure 
     free energy                                                6.1568 kcal/mol
(6)  G-S(liq) free energy of system                     -569.831725630 a.u.
 SCF   energy in the final basis set =     -569.8317256301
 Total energy in the final basis set =     -569.8317256301
 
 --------------------------------------------------------------
 
                    Orbital Energies (a.u.)
 --------------------------------------------------------------
 
 Alpha MOs
 -- Occupied --
-19.3924 -19.3875 -19.3593 -19.3578 -19.3566 -19.3429 -10.4955 -10.4646
-10.4432  -1.2612  -1.2110  -1.2015  -1.1688  -1.1467  -1.1265  -0.8561
 -0.7532  -0.7514  -0.6764  -0.6455  -0.6258  -0.6199  -0.6100  -0.5912
 -0.5676  -0.5579  -0.5417  -0.5355  -0.5153  -0.5087  -0.4663  -0.4560
 -0.4515  -0.4419  -0.4188  -0.3978  -0.3861
 -- Virtual --
  0.0264   0.0332   0.0394   0.0481   0.0492   0.0652   0.0703   0.0766
  0.0820   0.0918   0.1052   0.1210   0.1295   0.1348   0.1391   0.1427
  0.1554   0.1602   0.1631   0.1771   0.1909   0.2064   0.2248   0.2300
  0.2468   0.2508   0.2579   0.2648   0.2741   0.2779   0.2791   0.2861
  0.2950   0.3028   0.3142   0.3175   0.3261   0.3329   0.3353   0.3428
  0.3518   0.3583   0.3676   0.3713   0.3774   0.3811   0.3936   0.4075
  0.4103   0.4142   0.4219   0.4347   0.4440   0.4585   0.4632   0.5058
  0.5246   0.5500   0.5688   0.5734   0.5882   0.6091   0.6129   0.6314
  0.6471   0.6569   0.6599   0.6759   0.6902   0.7006   0.7218   0.7319
  0.7464   0.7671   0.7772   0.7913   0.8120   0.8447   0.8475   0.8552
  0.8626   0.8811   0.9009   0.9145   0.9498   0.9587   0.9872   1.0130
  1.0244   1.0466   1.0633   1.0751   1.0794   1.0953   1.0969   1.1043
  1.1207   1.1428   1.1586   1.1642   1.1719   1.1758   1.1948   1.2047
  1.2181   1.2221   1.2351   1.2432   1.2696   1.2786   1.2881   1.2974
  1.3156   1.3376   1.3467   1.3639   1.3801   1.4049   1.4223   1.4508
  1.4591   1.4726   1.4998   1.5076   1.5312   1.5325   1.5492   1.5575
  1.5732   1.5901   1.6331   1.6370   1.6562   1.6997   1.7053   1.7349
  1.7528   1.7771   1.8072   1.8166   1.8541   1.8724   1.8914   1.9239
  1.9439   1.9509   1.9707   1.9951   2.0573   2.0922   2.1225   2.1487
  2.2103   2.2701   2.2877   2.2948   2.3358   2.3529   2.3660   2.4056
  2.4080   2.4603   2.4765   2.5235   2.5427   2.5866   2.6618   2.6865
  2.6963   2.7618   2.7769   2.8131   2.8816   2.9014   2.9058   2.9558
  2.9841   3.0133   3.0332   3.0687   3.1142   3.1211   3.1498   3.1616
  3.1710   3.2222   3.2269   3.2783   3.2889   3.2957   3.3397   3.3515
  3.3647   3.3930   3.4180   3.4526   3.4683   3.5248   3.5461   3.6021
  3.6104   3.6435   3.6583   3.6706   3.6918   3.6961   3.7606   3.7859
  3.8092   3.8199   3.8350   3.8563   3.8687   3.8907   3.9089   3.9180
  3.9539   3.9995   4.0261   4.1037   4.1211   4.1469   4.1728   4.1945
  4.2156   4.2182   4.2374   4.2532   4.2936   4.3567   4.3714   4.4007
  4.4111   4.4521   4.5397   4.6460   4.7610   5.0380   5.0478   5.0715
  5.0747   5.0775   5.0933   5.1377   5.1397   5.1586   5.1655   5.1739
  5.1902   5.1979   5.2223   5.2379   5.2423   5.2668   5.2767   5.2963
  5.3016   5.3214   5.3299   5.3530   5.3777   5.3938   5.4473   5.4606
  5.4792   5.5063   5.5143   5.5219   5.5364   5.5477   5.5583   5.5832
  5.5889   5.6003   5.6106   5.6222   5.6525   5.6785   5.7262   5.7898
  5.8138   5.9292   5.9462   6.0360   6.0505   6.1225   6.1679   6.3118
  6.4611   6.5234   6.5755   6.7386   6.7450   6.7662   6.7706   6.8789
  6.9289   6.9945   7.0000   7.0225   7.0485   7.0628   7.0686   7.0875
  7.1147   7.1371   7.1857   7.2314   7.2590   7.2711   7.2770   7.2978
  7.3031   7.3166   7.3456   7.3551   7.4129   7.4321   7.4542   7.5258
  7.6104   7.6206   7.6585   7.6623   7.7784   7.7820   7.7924   7.8232
  7.8994   7.9239  24.7740  24.9240  25.1438  50.3776  50.5734  50.6022
 50.6156  50.7015  50.7460
 
 Beta MOs
 -- Occupied --
-19.3923 -19.3631 -19.3594 -19.3578 -19.3566 -19.3425 -10.4955 -10.4646
-10.4432  -1.2609  -1.2109  -1.2015  -1.1682  -1.1466  -1.0562  -0.8560
 -0.7531  -0.7513  -0.6763  -0.6453  -0.6238  -0.6176  -0.6089  -0.5866
 -0.5673  -0.5414  -0.5379  -0.5342  -0.5151  -0.4658  -0.4550  -0.4434
 -0.4221  -0.4177  -0.3980  -0.3852
 -- Virtual --
 -0.0604   0.0265   0.0332   0.0396   0.0483   0.0502   0.0654   0.0720
  0.0771   0.0824   0.0927   0.1058   0.1212   0.1298   0.1353   0.1392
  0.1429   0.1557   0.1612   0.1646   0.1791   0.1915   0.2079   0.2256
  0.2302   0.2476   0.2515   0.2602   0.2648   0.2756   0.2797   0.2803
  0.2875   0.2961   0.3074   0.3145   0.3176   0.3268   0.3342   0.3356
  0.3445   0.3533   0.3591   0.3682   0.3721   0.3783   0.3815   0.3951
  0.4081   0.4108   0.4163   0.4232   0.4357   0.4446   0.4591   0.4646
  0.5072   0.5254   0.5500   0.5692   0.5736   0.5886   0.6092   0.6130
  0.6315   0.6472   0.6572   0.6604   0.6766   0.6917   0.7013   0.7223
  0.7323   0.7465   0.7675   0.7780   0.7916   0.8124   0.8449   0.8479
  0.8555   0.8636   0.8831   0.9023   0.9161   0.9511   0.9590   0.9901
  1.0156   1.0255   1.0475   1.0677   1.0769   1.0814   1.0974   1.1010
  1.1093   1.1218   1.1475   1.1597   1.1680   1.1728   1.1778   1.1987
  1.2119   1.2205   1.2314   1.2381   1.2467   1.2764   1.2813   1.2919
  1.2995   1.3164   1.3393   1.3474   1.3644   1.3848   1.4059   1.4241
  1.4545   1.4609   1.4739   1.5017   1.5120   1.5344   1.5491   1.5549
  1.5582   1.5985   1.6119   1.6444   1.6533   1.6682   1.7072   1.7155
  1.7412   1.7550   1.7842   1.8079   1.8177   1.8546   1.8732   1.8957
  1.9244   1.9508   1.9603   1.9748   2.0145   2.0578   2.0926   2.1228
  2.1499   2.2107   2.2726   2.2884   2.3038   2.3360   2.3531   2.3667
  2.4061   2.4083   2.4615   2.4829   2.5238   2.5437   2.5869   2.6622
  2.6881   2.6966   2.7621   2.7775   2.8133   2.8824   2.9023   2.9146
  2.9562   2.9888   3.0137   3.0334   3.0693   3.1143   3.1213   3.1499
  3.1617   3.1711   3.2224   3.2273   3.2784   3.2891   3.2958   3.3399
  3.3516   3.3650   3.3931   3.4182   3.4526   3.4686   3.5250   3.5466
  3.6023   3.6105   3.6436   3.6586   3.6710   3.6922   3.6965   3.7655
  3.7883   3.8106   3.8214   3.8390   3.8633   3.8715   3.8914   3.9093
  3.9222   3.9542   3.9998   4.0263   4.1039   4.1212   4.1471   4.1729
  4.1946   4.2156   4.2183   4.2375   4.2532   4.2937   4.3574   4.3714
  4.4087   4.4145   4.4525   4.5400   4.6461   4.7612   5.0399   5.1321
  5.1347   5.1360   5.1430   5.1559   5.1610   5.1674   5.1708   5.1759
  5.1876   5.2002   5.2123   5.2232   5.2393   5.2427   5.2701   5.2858
  5.2964   5.3024   5.3222   5.3314   5.3553   5.3798   5.3958   5.4486
  5.4742   5.4843   5.5068   5.5171   5.5222   5.5370   5.5486   5.5835
  5.6007   5.6052   5.6195   5.6237   5.6284   5.6530   5.6787   5.7264
  5.7902   5.8139   5.9296   5.9465   6.0361   6.0507   6.1227   6.1679
  6.3118   6.4618   6.5238   6.5755   6.7389   6.7499   6.8788   6.8885
  6.9200   6.9423   7.0012   7.0403   7.0493   7.0628   7.0679   7.0848
  7.0925   7.1192   7.1564   7.1883   7.2320   7.2593   7.2718   7.2914
  7.2985   7.3047   7.3181   7.3461   7.3553   7.4139   7.4359   7.4650
  7.5261   7.6110   7.6559   7.6625   7.6684   7.7800   7.7831   7.7937
  7.8242   7.8996   7.9241  24.7740  24.9240  25.1439  50.3945  50.5734
 50.6022  50.6157  50.7014  50.7464
 --------------------------------------------------------------
 
          Ground-State Mulliken Net Atomic Charges

     Atom                 Charge (a.u.)    Spin (a.u.)
  --------------------------------------------------------
      1 C                    -0.041691      -0.002241
      2 O                    -0.365661       0.000045
      3 C                     0.173218       0.012273
      4 O                    -0.254251       0.001834
      5 C                    -0.074404      -0.000424
      6 O                    -0.298720      -0.000596
      7 H                     0.277909      -0.000309
      8 H                     0.342443       0.000006
      9 H                     0.189291      -0.000218
     10 H                     0.217903      -0.000174
     11 O                    -0.398600      -0.000040
     12 H                     0.347593       0.000025
     13 O                    -0.440122       0.002301
     14 O                    -0.405228       0.998362
     15 H                     0.352914      -0.000158
     16 H                     0.377404      -0.010688
  --------------------------------------------------------
  Sum of atomic charges =     0.000000
  Sum of spin   charges =     1.000000

 -----------------------------------------------------------------
                    Cartesian Multipole Moments
 -----------------------------------------------------------------
    Charge (ESU x 10^10)
                 0.0000
    Dipole Moment (Debye)
         X      -5.5907      Y       1.3029      Z       5.3126
       Tot       7.8216
    Quadrupole Moments (Debye-Ang)
        XX     -87.4225     XY      -3.6374     YY     -45.1861
        XZ      27.6117     YZ      -4.5196     ZZ     -68.2022
    Octopole Moments (Debye-Ang^2)
       XXX    -695.4244    XXY     -15.1702    XYY    -153.7789
       YYY      60.1542    XXZ     170.1033    XYZ     -16.4387
       YYZ      48.4233    XZZ    -232.7446    YZZ      28.0298
       ZZZ     127.3480
    Hexadecapole Moments (Debye-Ang^3)
      XXXX   -4684.3747   XXXY     -72.2128   XXYY    -731.5159
      XYYY     130.8697   YYYY    -709.0252   XXXZ    1043.9103
      XXYZ     -93.5949   XYYZ     168.1257   YYYZ     -74.8033
      XXZZ    -979.7415   XYZZ      39.3813   YYZZ    -247.8570
      XZZZ     503.8483   YZZZ     -23.4363   ZZZZ    -594.0382
 -----------------------------------------------------------------
 Calculating analytic gradient of the SCF energy
 Gradient of CDS energy
            1           2           3           4           5           6
    1  -0.0025534   0.0015821   0.0016799  -0.0004707   0.0008835  -0.0009520
    2  -0.0012715  -0.0011093  -0.0008864   0.0005917   0.0013112   0.0000713
    3   0.0009108  -0.0022382   0.0021724  -0.0030504   0.0006067   0.0000046
            7           8           9          10          11          12
    1   0.0001197  -0.0004691  -0.0000798   0.0000998   0.0008836  -0.0002487
    2   0.0001401  -0.0000255  -0.0001973  -0.0004651   0.0023912  -0.0004586
    3  -0.0000027   0.0001673  -0.0000381  -0.0001571   0.0008231   0.0000616
           13          14          15          16
    1  -0.0008380  -0.0000666   0.0002725   0.0001572
    2  -0.0000683  -0.0001125  -0.0000893   0.0001782
    3   0.0006851  -0.0002396   0.0003208  -0.0000263
 Gradient of SCF Energy
            1           2           3           4           5           6
    1   0.0000194   0.0191718   0.0019489  -0.0144832   0.0129815   0.0069640
    2  -0.0059956  -0.0115979   0.0005438   0.0044985  -0.0031626  -0.0016270
    3   0.0091212   0.0112893  -0.0025833   0.0001516  -0.0004829  -0.0001042
            7           8           9          10          11          12
    1  -0.0034255  -0.0173753  -0.0068036  -0.0125551   0.0008049  -0.0002550
    2   0.0076347   0.0123562   0.0024783   0.0017732   0.0049229  -0.0076763
    3  -0.0036482  -0.0086095   0.0115988  -0.0113915  -0.0145196   0.0108900
           13          14          15          16
    1   0.0026457   0.0036583   0.0126501  -0.0059468
    2  -0.0002770  -0.0024854  -0.0039738   0.0025880
    3  -0.0071420  -0.0035179   0.0057575   0.0031905
 Max gradient component =       1.917E-02
 RMS gradient           =       8.002E-03
 Computing fast CPCM-SWIG gradient
 Updating gradient with PCM contributions...
 -- total gradient after adding PCM contribution --
---------------------------------------------------
  Atom         X              Y              Z     
---------------------------------------------------
   1      -0.000903       0.000058       0.000044
   2       0.000309      -0.000065      -0.000049
   3       0.000284      -0.000023       0.000061
   4      -0.000020      -0.000007       0.000022
   5      -0.000017      -0.000026       0.000020
   6       0.000004       0.000061      -0.000100
   7      -0.000013      -0.000071      -0.000020
   8       0.000027      -0.000035      -0.000065
   9       0.000009      -0.000007      -0.000002
  10      -0.000012       0.000008       0.000003
  11       0.000153       0.000195       0.000081
  12       0.000050      -0.000033       0.000037
  13       0.000096      -0.000035      -0.000052
  14      -0.000046      -0.000037      -0.000029
  15       0.000050       0.000004      -0.000022
  16       0.000028       0.000013       0.000071
---------------------------------------------------
 Number of fixed atoms: 0
 Gradient time:  CPU 217.45 s  wall 18.43 s
 ----------------------------------------------------------------
             Standard Nuclear Orientation (Angstroms)
    I     Atom           X                Y                Z
 ----------------------------------------------------------------
    1      C       2.3265989285    -1.1993247668    -0.8080398755
    2      O       1.5855263136    -0.6455998246     0.2411026411
    3      C       3.7775777768    -1.3618100507    -0.3598081852
    4      O       3.9058977228    -1.6120189808     0.9384698621
    5      C       2.7937628928     1.8686914797     0.2817583745
    6      O       3.9595764327     1.6011318364     0.0757606221
    7      H       2.3142253864    -0.5675307671    -1.6928316347
    8      H       0.7650516517    -0.2950855500    -0.1271510992
    9      H       2.4124031010     1.9869035545     1.3023563338
   10      H       2.0893227776     2.0232938564    -0.5444509349
   11      O       1.8321272808    -2.4539279610    -1.2153669942
   12      H       1.8390115753    -3.0516334791    -0.4556891397
   13      O       4.7025176426    -1.3188246093    -1.1375561095
   14      O       4.4672419019     1.0642761123    -2.6299426345
   15      H       4.8447327371    -1.7566367526     1.1411351766
   16      H       4.3211640785     1.2695940024    -1.6755179029
 ----------------------------------------------------------------
 Nuclear Repulsion Energy =         487.33732660 hartrees
 There are       37 alpha and       36 beta electrons
 Discretize the solute cavity surface with Lebedev spheres
	Using 110 Lebedev grid points for each H atom
	Using 194 Lebedev grid points for other atoms
	Atomic van der Waals radii will be scaled by 1.20
 Remove points where switching function is < 1.0e-08
 Keep 1427 surface tesserae and discard 1089 interior tesserae
 Molecular Surface Area = 166.533 Angst**2
 Requested basis set is 6-311++G(2df,2p)
 There are 114 shells and 376 basis functions
 A cutoff of  1.0D-12 yielded   5776 shell pairs
 There are     62634 function pairs (     78025 Cartesian)
 Smallest overlap matrix eigenvalue = 2.97E-05
 Guess MOs from SCF MO coefficient file

 -----------------------------------------------------------------------
  General SCF calculation program by
  Eric Jon Sundstrom, Paul Horn, Yuezhi Mao, Dmitri Zuev, Alec White,
  David Stuck, Shaama M.S., Shane Yost, Joonho Lee, David Small,
  Daniel Levine, Susi Lehtola, Hugh Burton, Evgeny Epifanovsky,
  Bang C. Huynh
 -----------------------------------------------------------------------
 Exchange:     0.1500 Hartree-Fock + 1.0000 wB97M-V + LR-HF
 Correlation:  1.0000 wB97M-V
 Using SG-2 standard quadrature grid
 Nonlocal Correlation:  VV10 with C = 0.0100 and b = 6.00 and scale = 1.00000
 Grid used for NLC:  SG-1 standard quadrature
 
 Citation of the SMD model:
 Marenich, A.V.; Cramer, C.J.; Truhlar, D.G.
 J. Phys. Chem. B 2009, 113, 6378-6396.
 iSolventCode=           1
 Solvent: water                                                           
 
 vradii
            1           2           3           4           5           6
    1   1.8500000   1.5200000   1.8500000   1.5200000   1.8500000   1.5200000
            7           8           9          10          11          12
    1   1.2000000   1.2000000   1.2000000   1.2000000   1.5200000   1.2000000
           13          14          15          16
    1   1.5200000   1.5200000   1.2000000   1.2000000
 -------------------------------------------------------
 OpenMP BLAS3 based DFT computing Module                
 Release: version 1.0, May 2013, Q-Chem Inc. Pittsburgh 
 -------------------------------------------------------
 A unrestricted SCF calculation will be
 performed using Roothaan-Hall, DIIS, GDM
 SCF converges when RMS gradient is below 1.0e-07
 ---------------------------------------
  Cycle       Energy         DIIS error
 ---------------------------------------
    1    -569.7823722721      2.84e-04  Roothaan Step
 ---------------------------------------
  Cycle       Energy         DIIS error
 ---------------------------------------
    1    -569.8301161018      3.37e-04  
    2    -569.8356905340      3.52e-04  Done DIIS. Switching to GDM
 ---------------------------------------
  Cycle       Energy        RMS Gradient
 ---------------------------------------
    1    -569.8356905340      2.20e-02   Normal BFGS step
    2    -569.8329878003      3.37e-02  Line search: overstep
    3    -569.8412283356      3.17e-03   Normal BFGS step
    4    -569.8414788292      1.16e-03   Normal BFGS step
    5    -569.8415190076      4.81e-04   Normal BFGS step
    6    -569.8415289983      1.45e-04   Normal BFGS step
    7    -569.8415294944      1.13e-04   Normal BFGS step
    8    -569.8415297423      6.17e-05   Normal BFGS step
    9    -569.8415297607      4.41e-05   Normal BFGS step
   10    -569.8415297697      2.96e-05   Normal BFGS step
   11    -569.8415297723      1.72e-05   Normal BFGS step
   12    -569.8415297737      1.17e-05   Normal BFGS step
   13    -569.8415297744      1.15e-05   Normal BFGS step
   14    -569.8415297748      1.12e-05   Normal BFGS step
   15    -569.8415297756      1.05e-05   Normal BFGS step
   16    -569.8415297772      1.48e-05   Normal BFGS step
   17    -569.8415297799      2.18e-05   Normal BFGS step
   18    -569.8415297828      1.98e-05   Normal BFGS step
   19    -569.8415297844      9.13e-06   Normal BFGS step
   20    -569.8415297849      2.58e-06   Normal BFGS step
   21    -569.8415297849      9.86e-07   Normal BFGS step
   22    -569.8415297850      4.40e-07   Normal BFGS step
   23    -569.8415297850      1.80e-07   Normal BFGS step
   24    -569.8415297850      6.16e-08  Convergence criterion met
 ---------------------------------------
 SCF time:   CPU 2082.73s  wall 144.00s 
<S^2> =          0.752914932
(3)  G-ENP(liq) elect-nuc-pol free energy of system     -569.841529785 a.u.
(4)  G-CDS(liq) cavity-dispersion-solvent structure 
     free energy                                                6.1525 kcal/mol
(6)  G-S(liq) free energy of system                     -569.831725099 a.u.
 SCF   energy in the final basis set =     -569.8317250994
 Total energy in the final basis set =     -569.8317250994
 
 --------------------------------------------------------------
 
                    Orbital Energies (a.u.)
 --------------------------------------------------------------
 
 Alpha MOs
 -- Occupied --
-19.3924 -19.3875 -19.3593 -19.3579 -19.3565 -19.3430 -10.4956 -10.4646
-10.4432  -1.2612  -1.2108  -1.2015  -1.1689  -1.1465  -1.1265  -0.8563
 -0.7532  -0.7514  -0.6763  -0.6455  -0.6258  -0.6199  -0.6100  -0.5912
 -0.5676  -0.5579  -0.5416  -0.5355  -0.5153  -0.5087  -0.4664  -0.4560
 -0.4515  -0.4419  -0.4187  -0.3980  -0.3861
 -- Virtual --
  0.0264   0.0332   0.0394   0.0481   0.0492   0.0651   0.0703   0.0765
  0.0820   0.0918   0.1052   0.1210   0.1295   0.1348   0.1391   0.1428
  0.1554   0.1602   0.1631   0.1771   0.1909   0.2064   0.2248   0.2300
  0.2468   0.2508   0.2578   0.2648   0.2741   0.2779   0.2790   0.2861
  0.2950   0.3027   0.3143   0.3175   0.3260   0.3329   0.3351   0.3428
  0.3518   0.3583   0.3675   0.3713   0.3773   0.3811   0.3936   0.4075
  0.4103   0.4142   0.4220   0.4347   0.4440   0.4586   0.4632   0.5058
  0.5246   0.5499   0.5689   0.5734   0.5882   0.6091   0.6129   0.6313
  0.6471   0.6569   0.6599   0.6760   0.6903   0.7006   0.7220   0.7318
  0.7463   0.7672   0.7772   0.7913   0.8119   0.8447   0.8475   0.8552
  0.8626   0.8812   0.9009   0.9146   0.9498   0.9585   0.9872   1.0131
  1.0245   1.0467   1.0633   1.0751   1.0794   1.0954   1.0969   1.1043
  1.1208   1.1428   1.1587   1.1642   1.1718   1.1759   1.1948   1.2047
  1.2180   1.2221   1.2351   1.2432   1.2696   1.2786   1.2882   1.2974
  1.3156   1.3376   1.3467   1.3641   1.3801   1.4050   1.4222   1.4506
  1.4591   1.4725   1.4998   1.5077   1.5312   1.5325   1.5493   1.5576
  1.5732   1.5900   1.6332   1.6371   1.6563   1.6997   1.7055   1.7349
  1.7528   1.7772   1.8072   1.8166   1.8543   1.8723   1.8914   1.9237
  1.9440   1.9510   1.9707   1.9950   2.0572   2.0922   2.1223   2.1486
  2.2100   2.2701   2.2877   2.2948   2.3356   2.3529   2.3660   2.4054
  2.4080   2.4603   2.4765   2.5235   2.5427   2.5865   2.6618   2.6865
  2.6964   2.7615   2.7770   2.8131   2.8815   2.9010   2.9058   2.9557
  2.9841   3.0130   3.0332   3.0685   3.1142   3.1214   3.1497   3.1616
  3.1710   3.2222   3.2268   3.2783   3.2887   3.2955   3.3397   3.3515
  3.3645   3.3930   3.4178   3.4524   3.4680   3.5251   3.5462   3.6023
  3.6104   3.6436   3.6584   3.6708   3.6919   3.6963   3.7606   3.7857
  3.8093   3.8198   3.8350   3.8561   3.8687   3.8909   3.9088   3.9180
  3.9538   4.0005   4.0265   4.1037   4.1210   4.1474   4.1731   4.1945
  4.2156   4.2184   4.2376   4.2533   4.2937   4.3570   4.3713   4.4007
  4.4111   4.4533   4.5409   4.6460   4.7615   5.0380   5.0478   5.0715
  5.0747   5.0775   5.0934   5.1377   5.1397   5.1586   5.1655   5.1739
  5.1901   5.1977   5.2224   5.2378   5.2423   5.2669   5.2766   5.2965
  5.3016   5.3212   5.3299   5.3530   5.3778   5.3939   5.4471   5.4607
  5.4791   5.5062   5.5144   5.5220   5.5364   5.5476   5.5583   5.5834
  5.5889   5.6004   5.6106   5.6222   5.6523   5.6785   5.7263   5.7902
  5.8132   5.9292   5.9459   6.0350   6.0505   6.1224   6.1644   6.3118
  6.4610   6.5228   6.5755   6.7377   6.7445   6.7661   6.7704   6.8789
  6.9289   6.9946   7.0001   7.0225   7.0485   7.0628   7.0686   7.0874
  7.1147   7.1372   7.1859   7.2313   7.2590   7.2711   7.2770   7.2977
  7.3030   7.3165   7.3457   7.3549   7.4129   7.4321   7.4542   7.5255
  7.6104   7.6205   7.6581   7.6622   7.7786   7.7821   7.7924   7.8232
  7.8992   7.9238  24.7731  24.9240  25.1445  50.3777  50.5732  50.6019
 50.6156  50.7015  50.7460
 
 Beta MOs
 -- Occupied --
-19.3924 -19.3632 -19.3594 -19.3579 -19.3565 -19.3425 -10.4955 -10.4646
-10.4432  -1.2609  -1.2107  -1.2015  -1.1682  -1.1464  -1.0562  -0.8563
 -0.7531  -0.7513  -0.6762  -0.6453  -0.6238  -0.6176  -0.6089  -0.5866
 -0.5673  -0.5413  -0.5379  -0.5342  -0.5151  -0.4659  -0.4550  -0.4434
 -0.4221  -0.4176  -0.3982  -0.3852
 -- Virtual --
 -0.0604   0.0265   0.0332   0.0396   0.0483   0.0502   0.0654   0.0720
  0.0770   0.0824   0.0927   0.1058   0.1212   0.1298   0.1353   0.1392
  0.1429   0.1557   0.1612   0.1646   0.1791   0.1916   0.2079   0.2256
  0.2302   0.2476   0.2514   0.2602   0.2648   0.2756   0.2797   0.2802
  0.2875   0.2961   0.3073   0.3145   0.3177   0.3268   0.3342   0.3354
  0.3445   0.3533   0.3591   0.3681   0.3721   0.3782   0.3815   0.3951
  0.4081   0.4108   0.4163   0.4233   0.4357   0.4446   0.4592   0.4646
  0.5073   0.5253   0.5499   0.5692   0.5737   0.5886   0.6093   0.6130
  0.6314   0.6472   0.6571   0.6604   0.6767   0.6917   0.7013   0.7224
  0.7322   0.7465   0.7675   0.7780   0.7916   0.8123   0.8449   0.8479
  0.8554   0.8637   0.8831   0.9023   0.9161   0.9511   0.9588   0.9901
  1.0157   1.0256   1.0475   1.0677   1.0769   1.0814   1.0975   1.1010
  1.1094   1.1219   1.1474   1.1598   1.1681   1.1728   1.1779   1.1987
  1.2120   1.2204   1.2313   1.2380   1.2468   1.2765   1.2813   1.2920
  1.2995   1.3164   1.3393   1.3475   1.3645   1.3849   1.4060   1.4240
  1.4543   1.4609   1.4738   1.5016   1.5121   1.5345   1.5491   1.5549
  1.5583   1.5986   1.6120   1.6445   1.6535   1.6682   1.7074   1.7155
  1.7413   1.7550   1.7843   1.8080   1.8177   1.8548   1.8732   1.8957
  1.9242   1.9509   1.9602   1.9748   2.0144   2.0578   2.0927   2.1226
  2.1499   2.2104   2.2727   2.2884   2.3038   2.3358   2.3530   2.3667
  2.4058   2.4083   2.4615   2.4829   2.5237   2.5436   2.5868   2.6622
  2.6881   2.6967   2.7617   2.7776   2.8133   2.8823   2.9019   2.9145
  2.9561   2.9887   3.0134   3.0334   3.0691   3.1143   3.1216   3.1498
  3.1617   3.1712   3.2223   3.2271   3.2784   3.2888   3.2957   3.3399
  3.3516   3.3648   3.3931   3.4180   3.4525   3.4683   3.5252   3.5467
  3.6025   3.6105   3.6437   3.6587   3.6712   3.6923   3.6968   3.7654
  3.7880   3.8106   3.8213   3.8390   3.8631   3.8715   3.8916   3.9093
  3.9222   3.9542   4.0008   4.0267   4.1039   4.1212   4.1475   4.1732
  4.1947   4.2156   4.2185   4.2377   4.2533   4.2938   4.3577   4.3714
  4.4088   4.4146   4.4537   4.5411   4.6461   4.7617   5.0399   5.1321
  5.1347   5.1360   5.1430   5.1559   5.1611   5.1674   5.1708   5.1759
  5.1876   5.2001   5.2122   5.2232   5.2392   5.2427   5.2702   5.2858
  5.2966   5.3023   5.3220   5.3315   5.3553   5.3799   5.3958   5.4485
  5.4742   5.4843   5.5066   5.5172   5.5223   5.5369   5.5485   5.5837
  5.6008   5.6052   5.6194   5.6237   5.6285   5.6528   5.6787   5.7266
  5.7905   5.8134   5.9296   5.9461   6.0352   6.0507   6.1226   6.1644
  6.3117   6.4617   6.5232   6.5755   6.7382   6.7490   6.8788   6.8884
  6.9199   6.9423   7.0014   7.0403   7.0493   7.0629   7.0678   7.0848
  7.0925   7.1192   7.1565   7.1885   7.2320   7.2593   7.2717   7.2914
  7.2984   7.3046   7.3180   7.3461   7.3551   7.4138   7.4359   7.4650
  7.5258   7.6109   7.6554   7.6625   7.6683   7.7802   7.7831   7.7937
  7.8242   7.8994   7.9240  24.7731  24.9240  25.1445  50.3945  50.5732
 50.6020  50.6156  50.7014  50.7464
 --------------------------------------------------------------
 
          Ground-State Mulliken Net Atomic Charges

     Atom                 Charge (a.u.)    Spin (a.u.)
  --------------------------------------------------------
      1 C                    -0.041724      -0.002233
      2 O                    -0.365606       0.000044
      3 C                     0.173220       0.012264
[...]
 H          0.002  0.024 -0.006    0.020  0.073 -0.015    0.009  0.007 -0.007
 O         -0.037 -0.013 -0.029    0.049 -0.016  0.013   -0.226  0.119  0.169
 H          0.602 -0.293 -0.257   -0.519  0.222  0.206    0.544 -0.030  0.042
 O         -0.018  0.015  0.006    0.027 -0.001 -0.007    0.389 -0.085  0.103
 O         -0.001  0.001 -0.001   -0.001 -0.001  0.002   -0.004 -0.002  0.001
 H          0.030  0.074  0.009   -0.066 -0.025  0.013    0.044 -0.181 -0.130
 H         -0.002 -0.005 -0.000    0.014  0.034 -0.003    0.027  0.124 -0.021
 TransDip   0.416  0.105 -0.147   -0.122  0.458  0.041    0.155  0.055 -0.123

 Mode:                16                     17                     18
 Frequency:       538.65                 578.44                 589.75
 Force Cnst:      0.1773                 0.2445                 0.9402
 Red. Mass:       1.0372                 1.2403                 4.5878
 IR Active:          YES                    YES                    YES
 IR Intens:      206.319                158.398                137.407
 Raman Active:       YES                    YES                    YES
               X      Y      Z        X      Y      Z        X      Y      Z
 C         -0.000 -0.005 -0.003    0.024  0.010  0.040   -0.237 -0.018  0.004
 O          0.007  0.002 -0.002   -0.034  0.016  0.014   -0.023  0.206  0.115
 C         -0.003  0.008  0.005    0.020 -0.056 -0.019   -0.105  0.028 -0.063
 O          0.004 -0.003  0.007   -0.044 -0.061 -0.028    0.114 -0.017 -0.114
 C          0.002  0.002  0.001    0.000 -0.000 -0.000   -0.000 -0.005 -0.001
 O         -0.003 -0.024  0.009    0.001 -0.000  0.001    0.002  0.001  0.003
 H          0.002 -0.009 -0.005    0.050  0.031  0.055   -0.395 -0.043 -0.010
 H          0.006  0.003  0.003   -0.029 -0.039 -0.051   -0.177  0.063  0.312
 H          0.023  0.140 -0.006    0.000  0.007 -0.001   -0.006 -0.003 -0.004
 H         -0.017 -0.112 -0.004    0.000 -0.005 -0.001    0.005 -0.002 -0.005
 O         -0.003 -0.006 -0.005    0.028  0.025  0.015    0.090 -0.147 -0.135
 H         -0.006 -0.008 -0.006   -0.000  0.018  0.008   -0.312 -0.103 -0.095
 O         -0.008 -0.002  0.003    0.013 -0.007 -0.033    0.118 -0.061  0.195
 O          0.001 -0.030 -0.000    0.000 -0.002 -0.000    0.005  0.002 -0.001
 H          0.002 -0.037 -0.011    0.052  0.950  0.248    0.230  0.283 -0.432
 H          0.036  0.959 -0.204   -0.021  0.060 -0.016   -0.121 -0.008 -0.018
 TransDip   0.027  0.443 -0.121    0.070  0.376  0.127   -0.360  0.043 -0.096

 Mode:                19                     20                     21
 Frequency:       596.81                 652.58                 790.19
 Force Cnst:      0.2191                 0.9080                 2.3073
 Red. Mass:       1.0439                 3.6189                 6.2717
 IR Active:          YES                    YES                    YES
 IR Intens:      179.352                154.655                 44.689
 Raman Active:       YES                    YES                    YES
               X      Y      Z        X      Y      Z        X      Y      Z
 C         -0.006 -0.001  0.000    0.028 -0.128  0.215   -0.077 -0.038 -0.048
 O          0.000  0.006  0.003   -0.108  0.161  0.084    0.024  0.014  0.002
 C         -0.003  0.001 -0.001    0.155 -0.095 -0.039    0.188  0.527  0.112
 O          0.003 -0.003 -0.003   -0.101  0.067 -0.002   -0.013 -0.155  0.139
 C         -0.011  0.006  0.015   -0.000 -0.001  0.002   -0.001 -0.001  0.000
 O         -0.022 -0.004 -0.020    0.000 -0.000  0.001    0.002  0.002 -0.001
 H         -0.007 -0.001  0.000    0.063 -0.103  0.235   -0.310 -0.153 -0.127
 H         -0.005 -0.001  0.008   -0.106 -0.110 -0.191    0.008  0.132  0.158
 H          0.041  0.034  0.033    0.003  0.009  0.002    0.001 -0.007  0.001
 H         -0.052 -0.010  0.048   -0.001  0.001  0.004    0.002  0.005  0.000
 O          0.003 -0.004 -0.004    0.014 -0.054 -0.083   -0.095 -0.109 -0.074
 H         -0.007 -0.004 -0.003   -0.301 -0.253 -0.237   -0.153 -0.167 -0.119
 O          0.003 -0.003  0.006    0.097  0.055 -0.144    0.030 -0.117 -0.144
 O         -0.032  0.001 -0.006   -0.000 -0.002 -0.000    0.000  0.002  0.002
 H          0.009  0.030 -0.007   -0.270 -0.508  0.358   -0.032  0.239  0.500
 H          0.982 -0.011  0.151    0.013  0.027 -0.004   -0.013 -0.085  0.017
 TransDip   0.425  0.006  0.056    0.031 -0.373  0.135    0.041  0.191  0.088

 Mode:                22                     23                     24
 Frequency:       873.35                1134.38                1170.00
 Force Cnst:      1.7703                 2.0460                 1.7539
 Red. Mass:       3.9392                 2.6986                 2.1747
 IR Active:          YES                    YES                    YES
 IR Intens:       11.932                186.223                620.765
 Raman Active:       YES                    YES                    YES
               X      Y      Z        X      Y      Z        X      Y      Z
 C         -0.189  0.134 -0.207    0.121  0.011 -0.160   -0.132  0.041  0.096
 O         -0.030  0.018  0.028   -0.086  0.051  0.125    0.052 -0.045 -0.133
 C          0.086 -0.217 -0.062    0.062 -0.006  0.139    0.047 -0.039  0.099
 O          0.035 -0.006  0.236    0.018  0.022 -0.141    0.043  0.023 -0.136
 C          0.000 -0.000 -0.000   -0.002 -0.006 -0.000    0.003  0.007  0.000
 O         -0.001 -0.001  0.000    0.001  0.002  0.000   -0.001 -0.002 -0.000
 H         -0.330  0.155 -0.194    0.587  0.084 -0.116   -0.060 -0.082  0.005
 H         -0.172  0.138  0.460   -0.132  0.108  0.271   -0.140  0.157  0.518
 H         -0.001  0.004 -0.000    0.006  0.028 -0.001   -0.006 -0.028  0.002
 H         -0.001  0.000  0.000    0.005  0.030  0.001   -0.005 -0.032 -0.001
 O          0.023 -0.041 -0.010   -0.051 -0.102 -0.051    0.023  0.033  0.023
 H          0.191  0.264  0.233    0.237  0.342  0.308   -0.090 -0.177 -0.149
 O          0.070  0.061 -0.110   -0.055 -0.004  0.032   -0.025  0.000  0.032
 O         -0.000 -0.001 -0.000   -0.000  0.000 -0.000   -0.000  0.000 -0.000
 H         -0.011 -0.064  0.409   -0.105 -0.064  0.343   -0.172 -0.108  0.696
 H          0.006  0.021 -0.003   -0.001  0.004 -0.001    0.001  0.009 -0.002
 TransDip  -0.048  0.092 -0.037    0.287  0.026  0.329   -0.235  0.011  0.762

 Mode:                25                     26                     27
 Frequency:      1227.37                1230.97                1257.50
 Force Cnst:      1.1864                 1.1142                 1.7023
 Red. Mass:       1.3367                 1.2480                 1.8271
 IR Active:          YES                    YES                    YES
 IR Intens:       30.956                 43.564                276.525
 Raman Active:       YES                    YES                    YES
               X      Y      Z        X      Y      Z        X      Y      Z
 C          0.010 -0.050 -0.030    0.019 -0.043 -0.024   -0.021  0.103  0.145
 O         -0.027 -0.001  0.003   -0.033  0.003  0.002    0.026 -0.019 -0.087
 C         -0.003  0.003 -0.006   -0.005  0.007 -0.010   -0.004  0.014 -0.012
 O         -0.014 -0.002  0.016   -0.024 -0.003  0.027   -0.039 -0.002  0.034
 C         -0.031 -0.128  0.002    0.023  0.095 -0.002   -0.002 -0.021  0.015
 O          0.008  0.031 -0.000   -0.006 -0.023  0.001   -0.000  0.005 -0.009
 H          0.191 -0.254 -0.182    0.351 -0.283 -0.206    0.527  0.355  0.317
 H         -0.123  0.121  0.342   -0.167  0.157  0.461   -0.117  0.098  0.360
 H          0.128  0.535 -0.013   -0.089 -0.396  0.011   -0.051  0.098 -0.016
 H          0.123  0.534 -0.005   -0.094 -0.393  0.007    0.083  0.067 -0.041
 O          0.024  0.053  0.030    0.020  0.043  0.028   -0.047 -0.111 -0.042
 H         -0.102 -0.169 -0.152   -0.098 -0.177 -0.153    0.137  0.163  0.184
 O          0.011  0.001 -0.012    0.019  0.001 -0.021    0.040  0.002 -0.033
 O          0.000 -0.000 -0.000    0.000 -0.000  0.000   -0.000 -0.000  0.000
 H          0.031  0.022 -0.157    0.053  0.039 -0.270    0.076  0.065 -0.406
 H         -0.002  0.000  0.000    0.001 -0.001  0.000   -0.000 -0.003  0.000
 TransDip  -0.090 -0.114 -0.104   -0.094 -0.157 -0.106   -0.051  0.468  0.250

 Mode:                28                     29                     30
 Frequency:      1262.16                1320.10                1371.80
 Force Cnst:      1.2594                 2.2712                 1.9734
 Red. Mass:       1.3418                 2.2120                 1.7799
 IR Active:          YES                    YES                    YES
 IR Intens:       16.970                 24.071                107.425
 Raman Active:       YES                    YES                    YES
               X      Y      Z        X      Y      Z        X      Y      Z
 C         -0.003  0.007  0.012    0.123  0.253 -0.023   -0.018  0.069  0.009
 O          0.002 -0.002 -0.007   -0.014 -0.013  0.018    0.005 -0.010  0.034
 C         -0.000  0.001 -0.001    0.039 -0.052  0.053   -0.120  0.051 -0.187
 O         -0.003 -0.000  0.002   -0.014  0.009 -0.013    0.063 -0.014  0.041
 C         -0.026  0.001 -0.143   -0.001 -0.003 -0.002   -0.001 -0.003 -0.001
 O          0.014 -0.001  0.079    0.000  0.001  0.001    0.000  0.001  0.000
 H          0.038  0.032  0.029   -0.268 -0.025 -0.226    0.654 -0.054 -0.108
 H         -0.007  0.010  0.026    0.014 -0.018 -0.053    0.073 -0.070 -0.194
 H          0.679 -0.147  0.132    0.008  0.006  0.001    0.006  0.006  0.001
 H         -0.573  0.141  0.342   -0.003  0.010  0.002    0.003  0.010 -0.001
 O         -0.004 -0.008 -0.004   -0.038 -0.114  0.026   -0.002 -0.031  0.015
 H          0.013  0.018  0.018   -0.351 -0.662 -0.417   -0.097 -0.211 -0.129
 O          0.003  0.000 -0.002   -0.019  0.009  0.002    0.005 -0.007  0.034
 O          0.001 -0.000 -0.001    0.000 -0.000  0.000   -0.000  0.000  0.000
 H          0.006  0.005 -0.030    0.033  0.045 -0.176   -0.093 -0.092  0.596
 H         -0.020  0.005 -0.003    0.001  0.002 -0.001   -0.003 -0.007  0.001
 TransDip  -0.029  0.042 -0.122    0.088  0.122  0.046   -0.095  0.072 -0.310

 Mode:                31                     32                     33
 Frequency:      1427.12                1460.81                1511.63
 Force Cnst:      1.5294                 2.7005                 1.5197
 Red. Mass:       1.2746                 2.1479                 1.1288
 IR Active:          YES                    YES                    YES
 IR Intens:       92.832                 81.123                 51.674
 Raman Active:       YES                    YES                    YES
               X      Y      Z        X      Y      Z        X      Y      Z
 C          0.033 -0.080 -0.100    0.225 -0.014  0.077    0.001 -0.002 -0.002
 O         -0.014  0.018 -0.014   -0.042  0.014 -0.044   -0.000  0.001  0.000
 C         -0.010  0.015 -0.019   -0.053  0.021 -0.159    0.000  0.000 -0.000
 O          0.008 -0.003  0.004    0.031 -0.008  0.032    0.000 -0.000  0.000
 C         -0.000  0.003  0.000   -0.001  0.001  0.000    0.014 -0.004 -0.001
 O          0.002 -0.001 -0.000    0.001 -0.000 -0.000   -0.085  0.020  0.015
 H         -0.017  0.731  0.484   -0.611 -0.134  0.030   -0.003  0.009  0.006
 H         -0.078  0.050  0.174   -0.216  0.178  0.533   -0.002 -0.001  0.003
 H         -0.013 -0.007 -0.003   -0.002 -0.003  0.000    0.638 -0.142  0.231
 H         -0.009 -0.009  0.006   -0.002 -0.003  0.001    0.539 -0.133 -0.450
 O          0.014  0.008  0.058   -0.033 -0.020 -0.042    0.000  0.000  0.001
 H         -0.180 -0.305 -0.195    0.101  0.211  0.150   -0.002 -0.003 -0.002
 O         -0.007 -0.003  0.007   -0.038 -0.005  0.053   -0.000 -0.000  0.000
 O          0.000  0.000  0.000   -0.000 -0.000  0.000    0.000 -0.000 -0.001
 H         -0.010 -0.016  0.069   -0.035 -0.036  0.257   -0.000 -0.000  0.000
 H         -0.001 -0.001  0.001    0.000 -0.005  0.002   -0.002  0.001  0.001
 TransDip  -0.024 -0.244 -0.187    0.153  0.194 -0.149    0.222 -0.046 -0.041

 Mode:                34                     35                     36
 Frequency:      1760.94                1770.74                2999.60
 Force Cnst:     11.6963                18.1989                 5.5537
 Red. Mass:       6.4019                 9.8512                 1.0476
 IR Active:          YES                    YES                    YES
 IR Intens:      269.958                661.463                 73.025
 Raman Active:       YES                    YES                    YES
               X      Y      Z        X      Y      Z        X      Y      Z
 C          0.003 -0.001 -0.001   -0.133 -0.003  0.004    0.000 -0.000  0.000
 O         -0.001  0.001  0.000    0.005 -0.002  0.002   -0.000  0.000  0.000
 C         -0.001  0.002 -0.000    0.617  0.004 -0.361    0.000  0.000 -0.000
 O          0.000 -0.000  0.000   -0.051  0.002  0.018   -0.000 -0.000  0.000
 C          0.523 -0.125 -0.096    0.001  0.001  0.000    0.058 -0.015 -0.005
 O         -0.361  0.084  0.064   -0.001  0.000  0.000   -0.000  0.000 -0.000
 H         -0.002  0.003  0.001    0.297  0.024 -0.015   -0.000  0.002 -0.003
 H         -0.004 -0.002  0.004    0.026 -0.018 -0.071   -0.000 -0.001  0.000
 H         -0.309  0.070 -0.415   -0.001 -0.001 -0.000   -0.218  0.067  0.629
 H         -0.166  0.059  0.505    0.001 -0.001  0.000   -0.464  0.100 -0.568
 O         -0.000 -0.000  0.000    0.013  0.008  0.007   -0.000  0.000  0.000
 H         -0.000 -0.001 -0.001   -0.024 -0.022 -0.027    0.000  0.000 -0.000
 O          0.000 -0.001 -0.000   -0.352 -0.012  0.273   -0.000 -0.000  0.000
 O         -0.001  0.001  0.004    0.000 -0.000  0.000   -0.000  0.001  0.002
 H          0.000  0.001  0.000    0.054  0.074 -0.404    0.000  0.000 -0.000
 H         -0.009 -0.009 -0.037   -0.001 -0.013  0.006    0.004 -0.007 -0.033
 TransDip   0.499 -0.100 -0.135    0.516  0.091 -0.636    0.257 -0.063 -0.070

 Mode:                37                     38                     39
 Frequency:      3096.16                3132.51                3436.51
 Force Cnst:      6.3410                 6.2947                 7.4442
 Red. Mass:       1.1227                 1.0888                 1.0699
 IR Active:          YES                    YES                    YES
 IR Intens:       56.166                 18.849                824.682
 Raman Active:       YES                    YES                    YES
               X      Y      Z        X      Y      Z        X      Y      Z
 C          0.000  0.000  0.000   -0.003  0.051 -0.069   -0.000  0.000  0.000
 O          0.000 -0.000  0.000    0.001 -0.001  0.001    0.000 -0.000 -0.000
 C         -0.000  0.000 -0.000    0.001 -0.000 -0.001   -0.000  0.000  0.000
 O          0.000 -0.000  0.000    0.000  0.000  0.000    0.000 -0.000 -0.000
 C         -0.014  0.001 -0.101    0.000 -0.000 -0.000    0.005 -0.001 -0.001
 O          0.000 -0.000  0.000   -0.000  0.000  0.000   -0.002  0.001  0.001
 H          0.000  0.000  0.000    0.026 -0.583  0.808    0.000  0.000 -0.000
 H          0.000  0.001 -0.000   -0.003 -0.003 -0.006   -0.001  0.001 -0.000
 H         -0.255  0.076  0.691   -0.001  0.000  0.002   -0.015  0.002  0.022
 H          0.426 -0.091  0.502   -0.002 -0.000 -0.002   -0.015  0.004 -0.014
 O         -0.000 -0.000 -0.000    0.000 -0.001  0.002   -0.000 -0.000 -0.000
 H         -0.000 -0.000  0.000   -0.004  0.004 -0.018   -0.000 -0.000  0.000
 O          0.000 -0.000 -0.000   -0.001  0.000  0.000    0.000  0.000 -0.000
 O         -0.000  0.000  0.000    0.000  0.000 -0.000    0.009 -0.013 -0.062
 H          0.000 -0.000  0.000    0.000  0.001  0.001   -0.000  0.000  0.000
 H         -0.001 -0.001 -0.005   -0.000 -0.000 -0.000   -0.146  0.204  0.965
 TransDip  -0.029 -0.003 -0.238    0.051  0.067 -0.111   -0.272  0.208  0.854

 Mode:                40                     41                     42
 Frequency:      3732.59                3789.25                3810.00
 Force Cnst:      8.7400                 9.0212                 9.1217
 Red. Mass:       1.0647                 1.0664                 1.0665
 IR Active:          YES                    YES                    YES
 IR Intens:      216.784                138.668                162.823
 Raman Active:       YES                    YES                    YES
               X      Y      Z        X      Y      Z        X      Y      Z
 C          0.000 -0.000  0.000   -0.001  0.001 -0.002   -0.001  0.001 -0.001
 O          0.000 -0.000 -0.000   -0.003  0.001 -0.001   -0.053  0.023 -0.022
 C         -0.002  0.001 -0.002    0.001 -0.000  0.000    0.000 -0.000 -0.000
 O         -0.059  0.009 -0.014   -0.000  0.000 -0.000    0.000 -0.000  0.000
 C         -0.000  0.000  0.000    0.000  0.000  0.000   -0.000 -0.000 -0.000
 O          0.000 -0.000  0.000   -0.000 -0.000  0.000    0.000  0.000 -0.000
 H          0.001 -0.000  0.000    0.001 -0.011  0.012    0.004 -0.004  0.000
 H          0.002 -0.001  0.001    0.042 -0.018  0.018    0.849 -0.369  0.369
 H          0.000  0.000 -0.000    0.000 -0.000  0.000   -0.000  0.000 -0.000
 H          0.000  0.000  0.000   -0.000 -0.000 -0.000    0.000  0.000  0.000
 O          0.000 -0.000  0.000    0.000  0.040 -0.048    0.000 -0.002  0.002
 H         -0.000  0.004 -0.006    0.002 -0.627  0.774   -0.000  0.031 -0.038
 O         -0.001 -0.000  0.001   -0.000  0.000  0.000    0.000  0.000  0.000
 O          0.000 -0.000 -0.000    0.000  0.000  0.000    0.000 -0.000 -0.000
 H          0.960 -0.151  0.228    0.007 -0.001  0.002   -0.002  0.000 -0.000
 H         -0.000  0.000  0.000    0.000  0.000 -0.000   -0.000  0.000  0.001
 TransDip   0.396 -0.091  0.240   -0.024 -0.302  0.225    0.368 -0.169  0.053

 STANDARD THERMODYNAMIC QUANTITIES AT   298.15 K  AND     1.00 ATM

   This Molecule has  0 Imaginary Frequencies
   Zero point vibrational energy:       70.544 kcal/mol

   Atom    1 Element C  Has Mass   12.00000
   Atom    2 Element O  Has Mass   15.99491
   Atom    3 Element C  Has Mass   12.00000
   Atom    4 Element O  Has Mass   15.99491
   Atom    5 Element C  Has Mass   12.00000
   Atom    6 Element O  Has Mass   15.99491
   Atom    7 Element H  Has Mass    1.00783
   Atom    8 Element H  Has Mass    1.00783
   Atom    9 Element H  Has Mass    1.00783
   Atom   10 Element H  Has Mass    1.00783
   Atom   11 Element O  Has Mass   15.99491
   Atom   12 Element H  Has Mass    1.00783
   Atom   13 Element O  Has Mass   15.99491
   Atom   14 Element O  Has Mass   15.99491
   Atom   15 Element H  Has Mass    1.00783
   Atom   16 Element H  Has Mass    1.00783
   Molecular Mass:   139.024270 amu
   Principal axes and moments of inertia in amu*Bohr^2:
                             1           2           3
    Eigenvalues --     1093.97770  1618.28021  1853.69752
          X               0.38247    -0.65726     0.64940
          Y               0.91680     0.35734    -0.17830
          Z              -0.11486     0.66356     0.73925
   Rotational Symmetry Number is   1
   The Molecule is an Asymmetric Top
   Translational Enthalpy:        0.889 kcal/mol
   Rotational Enthalpy:           0.889 kcal/mol
   Vibrational Enthalpy:         76.952 kcal/mol
   gas constant (RT):             0.592 kcal/mol
   Translational Entropy:        40.700  cal/mol.K
   Rotational Entropy:           29.574  cal/mol.K
   Vibrational Entropy:          46.215  cal/mol.K

   Total Enthalpy:               79.322 kcal/mol
   Total Entropy:               116.489  cal/mol.K
 Total job time:  15980.60s(wall), 225801.18s(cpu) 
 Sat Jul 13 10:39:41 2024

        *************************************************************
        *                                                           *
        *  Thank you very much for using Q-Chem.  Have a nice day.  *
        *                                                           *
        *************************************************************


