
Running Job 1 of 1 Q_in.in
qchem Q_in.in_105089.0 /scratch/ari.fischer/qChem2186973.hpc-mn1/qchem105089/ 0
/usr/local/qchem-5.4.1/exe/qcprog.exe_s Q_in.in_105089.0 /scratch/ari.fischer/qChem2186973.hpc-mn1/qchem105089/
                  Welcome to Q-Chem
     A Quantum Leap Into The Future Of Chemistry


 Q-Chem 5.4, Q-Chem, Inc., Pleasanton, CA (2021)

 License issued to: Nanyang Technological University (site)

 E. Epifanovsky,  A. T. B. Gilbert,  Xintian Feng,  Joonho Lee,  Yuezhi Mao,  
 N. Mardirossian,  P. Pokhilko,  A. White,  M. Wormit,  M. P. Coons,  
 A. L. Dempwolff,  Zhengting Gan,  D. Hait,  P. R. Horn,  L. D. Jacobson,  
 I. Kaliman,  J. Kussmann,  A. W. Lange,  Ka Un Lao,  D. S. Levine,  Jie Liu,  
 S. C. McKenzie,  A. F. Morrison,  K. Nanda,  F. Plasser,  D. R. Rehn,  
 M. L. Vidal,  Zhi-Qiang You,  Ying Zhu,  B. Alam,  B. Albrecht,  
 A. Aldossary,  E. Alguire,  J. H. Andersen,  D. Barton,  K. Begam,  A. Behn,  
 Y. A. Bernard,  E. J. Berquist,  H. Burton,  A. Carreras,  K. Carter-Fenk,  
 R. Chakraborty,  A. D. Chien,  K. D. Closser,  V. Cofer-Shabica,  
 S. Dasgupta,  Jia Deng,  M. de Wergifosse,  M. Diedenhofen,  Hainam Do,  
 S. Ehlert,  Po-Tung Fang,  S. Fatehi,  Qingguo Feng,  T. Friedhoff,  
 J. Gayvert,  Qinghui Ge,  G. Gidofalvi,  M. Goldey,  J. Gomes,  
 C. Gonzalez-Espinoza,  S. Gulania,  A. Gunina,  M. W. D. Hanson-Heine,  
 P. H. P. Harbach,  A. W. Hauser,  M. F. Herbst,  M. Hernandez Vera,  
 M. Hodecker,  Z. C. Holden,  S. Houck,  Xunkun Huang,  Kerwin Hui,  
 B. C. Huynh,  M. Ivanov,  Hyunjun Ji,  Hanjie Jiang,  B. Kaduk,  S. Kaehler,  
 K. Khistyaev,  Jaehoon Kim,  P. Klunzinger,  Z. Koczor-Benda,  
 Joong Hoon Koh,  D. Kosenkov,  L. Koulias,  T. Kowalczyk,  C. M. Krauter,  
 K. Kue,  A. Kunitsa,  T. Kus,  A. Landau,  K. V. Lawler,  D. Lefrancois,  
 S. Lehtola,  Rain Li,  Yi-Pei Li,  Jiashu Liang,  M. Liebenthal,  
 Hung-Hsuan Lin,  You-Sheng Lin,  Fenglai Liu,  Kuan-Yu Liu,  
 M. Loipersberger,  A. Luenser,  A. Manjanath,  P. Manohar,  E. Mansoor,  
 S. F. Manzer,  Shan-Ping Mao,  A. V. Marenich,  T. Markovich,  S. Mason,  
 S. A. Maurer,  P. F. McLaughlin,  M. F. S. J. Menger,  J.-M. Mewes,  
 S. A. Mewes,  P. Morgante,  J. W. Mullinax,  K. J. Oosterbaan,  G. Paran,  
 Alexander C. Paul,  Suranjan K. Paul,  F. Pavosevic,  Zheng Pei,  S. Prager,  
 E. I. Proynov,  E. Ramos,  B. Rana,  A. E. Rask,  A. Rettig,  R. M. Richard,  
 F. Rob,  E. Rossomme,  T. Scheele,  M. Scheurer,  M. Schneider,  
 N. Sergueev,  S. M. Sharada,  W. Skomorowski,  D. W. Small,  C. J. Stein,  
 Yu-Chuan Su,  E. J. Sundstrom,  Zhen Tao,  J. Thirman,  T. Tsuchimochi,  
 N. M. Tubman,  S. P. Veccham,  O. Vydrov,  J. Wenzel,  J. Witte,  A. Yamada,  
 Kun Yao,  S. Yeganeh,  S. R. Yost,  A. Zech,  Igor Ying Zhang,  Xing Zhang,  
 Yu Zhang,  D. Zuev,  A. Aspuru-Guzik,  A. T. Bell,  N. A. Besley,  
 K. B. Bravaya,  B. R. Brooks,  D. Casanova,  Jeng-Da Chai,  S. Coriani,  
 C. J. Cramer,  A. E. DePrince, III,  R. A. DiStasio Jr.,  A. Dreuw,  
 B. D. Dunietz,  T. R. Furlani,  W. A. Goddard III,  S. Grimme,  
 S. Hammes-Schiffer,  T. Head-Gordon,  W. J. Hehre,  Chao-Ping Hsu,  
 T.-C. Jagau,  Yousung Jung,  A. Klamt,  Jing Kong,  D. S. Lambrecht,  
 WanZhen Liang,  N. J. Mayhall,  C. W. McCurdy,  J. B. Neaton,  
 C. Ochsenfeld,  J. A. Parkhill,  R. Peverati,  V. A. Rassolov,  Yihan Shao,  
 L. V. Slipchenko,  T. Stauch,  R. P. Steele,  J. E. Subotnik,  
 A. J. W. Thom,  A. Tkatchenko,  D. G. Truhlar,  T. Van Voorhis,  
 T. A. Wesolowski,  K. B. Whaley,  H. L. Woodcock III,  P. M. Zimmerman,  
 S. Faraji,  P. M. W. Gill,  M. Head-Gordon,  J. M. Herbert,  A. I. Krylov

 Additional authors for Version 5.4.1: 
 S. Kotaru,  Shaozhi Li,  Xiangyuan Li,  F. Matz,  A. Molle,  Haisheng Ren,  
 Yingli Su,  Hung-Yi Tsai,  C. Utku,  Fang Wang

 Contributors to earlier versions of Q-Chem not listed above: 
 R. D. Adamson,  B. Austin,  R. Baer,  J. Baker,  G. J. O. Beran,  
 K. Brandhorst,  S. T. Brown,  E. F. C. Byrd,  A. K. Chakraborty,  
 G. K. L. Chan,  Chun-Min Chang,  Yunqing Chen,  C.-L. Cheng,  
 Siu Hung Chien,  D. M. Chipman,  D. L. Crittenden,  H. Dachsel,  
 R. J. Doerksen,  A. D. Dutoi,  R. G. Edgar,  J. Fosso-Tande,  
 L. Fusti-Molnar,  D. Ghosh,  A. Ghysels,  A. Golubeva-Zadorozhnaya,  
 J. Gonthier,  M. S. Gordon,  S. R. Gwaltney,  G. Hawkins,  J. E. Herr,  
 A. Heyden,  S. Hirata,  E. G. Hohenstein,  G. Kedziora,  F. J. Keil,  
 C. Kelley,  Jihan Kim,  R. A. King,  R. Z. Khaliullin,  P. P. Korambath,  
 W. Kurlancheek,  A. Laurent,  A. M. Lee,  M. S. Lee,  S. V. Levchenko,  
 Ching Yeh Lin,  D. Liotard,  E. Livshits,  R. C. Lochan,  I. Lotan,  
 L. A. Martinez-Martinez,  P. E. Maslen,  N. Nair,  D. P. O'Neill,  
 D. Neuhauser,  E. Neuscamman,  C. M. Oana,  R. Olivares-Amaya,  R. Olson,  
 T. M. Perrine,  B. Peters,  P. A. Pieniazek,  A. Prociuk,  Y. M. Rhee,  
 J. Ritchie,  M. A. Rohrdanz,  E. Rosta,  N. J. Russ,  H. F. Schaefer III,  
 M. W. Schmidt,  N. E. Schultz,  S. Sharma,  N. Shenvi,  C. D. Sherrill,  
 A. C. Simmonett,  A. Sodt,  T. Stein,  D. Stuck,  K. S. Thanthiriwatte,  
 V. Vanovschi,  L. Vogt,  Tao Wang,  A. Warshel,  M. A. Watson,  
 C. F. Williams,  Q. Wu,  X. Xu,  Jun Yang,  W. Zhang,  Yan Zhao

 Please cite Q-Chem as follows:
 Y. Shao et al., Mol. Phys. 113, 184-215 (2015)
 DOI: 10.1080/00268976.2014.952696

 Q-Chem 5.4.1 for Intel X86 EM64T Linux

 Parts of Q-Chem use Armadillo 9.800.1 (Horizon Scraper).
 http://arma.sourceforge.net/

 Q-Chem begins on Tue Jun 25 16:09:38 2024  

 Host: 
0

     Scratch files written to /scratch/ari.fischer/qChem2186973.hpc-mn1/qchem105089//
 Aug1521 |scratch|qcdevops|jenkins|workspace|build_RNUM 8249   
 Processing $rem in /usr/local/qchem-5.4.1/config/preferences:
 Processing $rem in /home/ari.fischer/.qchemrc:
 Symmetry turned off for PCM/SM12/SMD calculation

 Checking the input file for inconsistencies... 	...done.

--------------------------------------------------------------
User input:
--------------------------------------------------------------
$molecule
0 2
C         2.3679244741   -1.1689779572   -0.8318044897
O         1.6347355721   -0.5612002057    0.1995337940
C         3.8067347084   -1.3312167677   -0.3474961185
O         3.8754369364   -1.7381910254    0.9233249978
C         2.8161342404    1.8426205905    0.2692157964
O         4.0017265499    1.5901115021    0.1286855027
H         2.3832091628   -0.5679590893   -1.7435016241
H         0.7872105586   -0.2752740576   -0.1840032913
H         2.3768894277    1.9713155212    1.2692253798
H         2.1492204612    1.9869775756   -0.5939946362
O         1.8515870478   -2.4272837808   -1.1915657159
H         1.8359503466   -2.9727043770   -0.3845406677
O         4.7743301212   -1.1684863263   -1.0637558064
O         4.2052276448    1.0066888485   -2.6112982232
H         4.8185706110   -1.8759967003    1.1446283368
H         4.2518503370    1.2400743493   -1.6484247345
$end

$rem
BASIS = 6-311++G(2df,2p)
GUI = 2
JOB_TYPE = Optimization
METHOD = wB97M-V
SCF_ALGORITHM = DIIS_GDM
MAX_SCF_CYCLES = 400
GEOM_OPT_MAX_CYCLES = 150
SCF_CONVERGENCE = 7
THRESH = 12
Solvent_method = SMD
$end
--------------------------------------------------------------
 ----------------------------------------------------------------
             Standard Nuclear Orientation (Angstroms)
    I     Atom           X                Y                Z
 ----------------------------------------------------------------
    1      C       2.3679244741    -1.1689779572    -0.8318044897
    2      O       1.6347355721    -0.5612002057     0.1995337940
    3      C       3.8067347084    -1.3312167677    -0.3474961185
    4      O       3.8754369364    -1.7381910254     0.9233249978
    5      C       2.8161342404     1.8426205905     0.2692157964
    6      O       4.0017265499     1.5901115021     0.1286855027
    7      H       2.3832091628    -0.5679590893    -1.7435016241
    8      H       0.7872105586    -0.2752740576    -0.1840032913
    9      H       2.3768894277     1.9713155212     1.2692253798
   10      H       2.1492204612     1.9869775756    -0.5939946362
   11      O       1.8515870478    -2.4272837808    -1.1915657159
   12      H       1.8359503466    -2.9727043770    -0.3845406677
   13      O       4.7743301212    -1.1684863263    -1.0637558064
   14      O       4.2052276448     1.0066888485    -2.6112982232
   15      H       4.8185706110    -1.8759967003     1.1446283368
   16      H       4.2518503370     1.2400743493    -1.6484247345
 ----------------------------------------------------------------
 Nuclear Repulsion Energy =         491.45044946 hartrees
 There are       37 alpha and       36 beta electrons
 Requested basis set is 6-311++G(2df,2p)
 There are 114 shells and 376 basis functions

 Total QAlloc Memory Limit 288000 MB
 Mega-Array Size       188 MB
 MEM_STATIC part       192 MB
 
 Citation of the SMD model:
 Marenich, A.V.; Cramer, C.J.; Truhlar, D.G.
 J. Phys. Chem. B 2009, 113, 6378-6396.
 iSolventCode=           1
 Solvent: water                                                           
 
 vradii
            1           2           3           4           5           6
    1   1.8500000   1.5200000   1.8500000   1.5200000   1.8500000   1.5200000
            7           8           9          10          11          12
    1   1.2000000   1.2000000   1.2000000   1.2000000   1.5200000   1.2000000
           13          14          15          16
    1   1.5200000   1.5200000   1.2000000   1.2000000
 Changing PCM_VDW_RADII to SMD_RADIUS
 Discretize the solute cavity surface with Lebedev spheres
	Using 110 Lebedev grid points for each H atom
	Using 194 Lebedev grid points for other atoms
	Atomic van der Waals radii will be scaled by 1.20
 Remove points where switching function is < 1.0e-08
 Keep 1423 surface tesserae and discard 1093 interior tesserae
 Molecular Surface Area = 162.283 Angst**2
 A cutoff of  1.0D-12 yielded   5832 shell pairs
 There are     63287 function pairs (     78961 Cartesian)
 Smallest overlap matrix eigenvalue = 2.84E-05

 Scale SEOQF with 1.000000e-01/1.000000e-01/1.000000e-01

 Standard Electronic Orientation quadrupole field applied
 Nucleus-field energy     =     0.0000000325 hartrees
 Guess from superposition of atomic densities
 Warning:  Energy on first SCF cycle will be non-variational
 SAD guess density has 73.000000 electrons

 -----------------------------------------------------------------------
  General SCF calculation program by
  Eric Jon Sundstrom, Paul Horn, Yuezhi Mao, Dmitri Zuev, Alec White,
  David Stuck, Shaama M.S., Shane Yost, Joonho Lee, David Small,
  Daniel Levine, Susi Lehtola, Hugh Burton, Evgeny Epifanovsky,
  Bang C. Huynh
 -----------------------------------------------------------------------
 Exchange:     0.1500 Hartree-Fock + 1.0000 wB97M-V + LR-HF
 Correlation:  1.0000 wB97M-V
 Using SG-2 standard quadrature grid
 Nonlocal Correlation:  VV10 with C = 0.0100 and b = 6.00 and scale = 1.00000
 Grid used for NLC:  SG-1 standard quadrature
 
 Citation of the SMD model:
 Marenich, A.V.; Cramer, C.J.; Truhlar, D.G.
 J. Phys. Chem. B 2009, 113, 6378-6396.
 iSolventCode=           1
 Solvent: water                                                           
 
 vradii
            1           2           3           4           5           6
    1   1.8500000   1.5200000   1.8500000   1.5200000   1.8500000   1.5200000
            7           8           9          10          11          12
    1   1.2000000   1.2000000   1.2000000   1.2000000   1.5200000   1.2000000
           13          14          15          16
    1   1.5200000   1.5200000   1.2000000   1.2000000
 using 16 threads for integral computing
 -------------------------------------------------------
 OpenMP Integral computing Module                
 Release: version 1.0, May 2013, Q-Chem Inc. Pittsburgh 
 -------------------------------------------------------
 -------------------------------------------------------
 OpenMP BLAS3 based DFT computing Module                
 Release: version 1.0, May 2013, Q-Chem Inc. Pittsburgh 
 -------------------------------------------------------
 A unrestricted SCF calculation will be
 performed using DIIS, GDM
 SCF converges when RMS gradient is below 1.0e-07
 ---------------------------------------
  Cycle       Energy         DIIS error
 ---------------------------------------
    1    -570.8927268817      1.25e-02  
    2    -569.3736785885      2.51e-03  Done DIIS. Switching to GDM
 ---------------------------------------
  Cycle       Energy        RMS Gradient
 ---------------------------------------
    1    -569.3736785885      2.82e-01   Descent step
    2    -569.6774660506      7.47e-02   Descent step
    3    -569.7383262634      5.37e-02   Normal BFGS step
    4    -569.7559880311      1.65e-02   Normal BFGS step
    5    -569.7577450257      1.40e-02   Normal BFGS step
    6    -569.7588198904      1.91e-02   Normal BFGS step
    7    -569.7597402912      2.32e-02   Normal BFGS step
    8    -569.7627809410      2.63e-02   Normal BFGS step
    9    -569.7720983998      3.97e-02   Normal BFGS step
   10    -569.7928929039      1.02e-01   Dog-leg BFGS step
   11    -569.8294359468      3.61e-02   Dog-leg BFGS step
   12    -569.8195651080      4.50e-02  Line search: overstep
   13    -569.8340880447      2.81e-02   Dog-leg BFGS step
   14    -569.8150421843      8.90e-02  Line search: overstep
   15    -569.8369518954      1.25e-02   Normal BFGS step
   16    -569.8381684970      7.68e-03   Normal BFGS step
   17    -569.8385159839      5.02e-03   Normal BFGS step
   18    -569.8386588368      3.23e-03   Normal BFGS step
   19    -569.8387606212      3.38e-03   Normal BFGS step
   20    -569.8388189509      3.24e-03   Normal BFGS step
   21    -569.8389156362      3.57e-03   Normal BFGS step
   22    -569.8391295041      5.11e-03   Normal BFGS step
   23    -569.8394795331      5.44e-03   Normal BFGS step
   24    -569.8398391856      4.62e-03   Normal BFGS step
   25    -569.8401964953      1.75e-03   Normal BFGS step
   26    -569.8402395419      1.21e-03   Normal BFGS step
   27    -569.8402520774      3.53e-04   Normal BFGS step
   28    -569.8402535334      2.52e-04   Normal BFGS step
   29    -569.8402539166      1.25e-04   Normal BFGS step
   30    -569.8402539747      4.58e-05   Normal BFGS step
   31    -569.8402539887      9.63e-06   Normal BFGS step
   32    -569.8402539919      4.29e-06   Normal BFGS step
   33    -569.8402539923      3.29e-06   Normal BFGS step
   34    -569.8402539924      1.14e-06   Normal BFGS step
   35    -569.8402539925      4.55e-07   Normal BFGS step
   36    -569.8402539924      2.23e-07   Normal BFGS step
   37    -569.8402539925      6.77e-08  Convergence criterion met
 ---------------------------------------
 SCF time:   CPU 3310.31s  wall 228.00s 
<S^2> =          0.752999678
(3)  G-ENP(liq) elect-nuc-pol free energy of system     -569.840253992 a.u.
(4)  G-CDS(liq) cavity-dispersion-solvent structure 
     free energy                                                6.0832 kcal/mol
(6)  G-S(liq) free energy of system                     -569.830559832 a.u.
 SCF   energy in the final basis set =     -569.8305598323
 Total energy in the final basis set =     -569.8305598323
 
 --------------------------------------------------------------
 
                    Orbital Energies (a.u.)
 --------------------------------------------------------------
 
 Alpha MOs
 -- Occupied --
-19.3934 -19.3867 -19.3599 -19.3588 -19.3584 -19.3456 -10.4974 -10.4650
-10.4445  -1.2588  -1.2106  -1.1977  -1.1671  -1.1463  -1.1243  -0.8556
 -0.7527  -0.7482  -0.6752  -0.6428  -0.6246  -0.6210  -0.6047  -0.5869
 -0.5679  -0.5578  -0.5464  -0.5354  -0.5129  -0.5078  -0.4699  -0.4553
 -0.4477  -0.4440  -0.4194  -0.3972  -0.3859
 -- Virtual --
  0.0266   0.0339   0.0397   0.0486   0.0500   0.0635   0.0699   0.0753
  0.0826   0.0919   0.1039   0.1221   0.1276   0.1338   0.1404   0.1416
  0.1554   0.1616   0.1649   0.1768   0.1915   0.2084   0.2265   0.2295
  0.2436   0.2518   0.2576   0.2674   0.2715   0.2746   0.2832   0.2890
  0.2972   0.3036   0.3055   0.3184   0.3278   0.3330   0.3335   0.3419
  0.3487   0.3568   0.3688   0.3738   0.3753   0.3838   0.3917   0.3990
  0.4058   0.4154   0.4245   0.4391   0.4453   0.4541   0.4636   0.5007
  0.5218   0.5419   0.5683   0.5729   0.5892   0.6028   0.6094   0.6253
  0.6371   0.6545   0.6614   0.6712   0.6883   0.7060   0.7242   0.7276
  0.7410   0.7554   0.7734   0.7983   0.8034   0.8388   0.8433   0.8471
  0.8766   0.8853   0.9004   0.9264   0.9460   0.9665   0.9967   1.0120
  1.0222   1.0434   1.0628   1.0779   1.0844   1.0968   1.0996   1.1120
  1.1281   1.1395   1.1597   1.1667   1.1737   1.1805   1.1945   1.2024
  1.2131   1.2220   1.2406   1.2524   1.2684   1.2835   1.2894   1.2952
  1.3127   1.3246   1.3388   1.3655   1.3764   1.4024   1.4207   1.4521
  1.4690   1.4790   1.4985   1.5141   1.5326   1.5452   1.5504   1.5694
  1.5900   1.5940   1.6188   1.6470   1.6605   1.6949   1.7143   1.7319
  1.7366   1.7742   1.7985   1.8280   1.8467   1.8584   1.8970   1.9200
  1.9408   1.9666   1.9756   2.0113   2.0622   2.0781   2.1158   2.1706
  2.2067   2.2755   2.2950   2.3221   2.3314   2.3441   2.3725   2.3956
  2.4161   2.4533   2.4829   2.5171   2.5587   2.5876   2.6565   2.6726
  2.6924   2.7552   2.7763   2.8108   2.8730   2.8880   2.8981   2.9646
  2.9829   3.0211   3.0348   3.0868   3.1130   3.1272   3.1414   3.1660
  3.1905   3.2037   3.2229   3.2857   3.2916   3.2938   3.3341   3.3595
  3.3675   3.3856   3.4356   3.4579   3.4651   3.5361   3.5488   3.6073
  3.6132   3.6431   3.6499   3.6655   3.6932   3.7081   3.7745   3.8081
  3.8116   3.8216   3.8502   3.8565   3.8662   3.8849   3.9090   3.9388
  3.9561   3.9997   4.0248   4.0996   4.1227   4.1400   4.1634   4.1818
  4.2073   4.2278   4.2437   4.2520   4.2787   4.3349   4.3682   4.3783
  4.3888   4.4573   4.5425   4.6336   4.7564   5.0273   5.0546   5.0729
  5.0787   5.0826   5.0950   5.1405   5.1530   5.1575   5.1705   5.1752
  5.1905   5.2081   5.2265   5.2330   5.2402   5.2672   5.2816   5.2956
  5.3045   5.3230   5.3336   5.3530   5.3783   5.3931   5.4350   5.4461
  5.4884   5.5011   5.5071   5.5240   5.5328   5.5392   5.5500   5.5636
  5.5762   5.5958   5.6076   5.6109   5.6463   5.6619   5.7313   5.7815
  5.8142   5.9082   5.9182   6.0048   6.0364   6.0805   6.1646   6.2938
  6.4404   6.5223   6.5541   6.7111   6.7414   6.7694   6.7873   6.8846
  6.9358   6.9859   7.0020   7.0226   7.0353   7.0519   7.0631   7.0926
  7.1031   7.1163   7.1634   7.2220   7.2394   7.2549   7.2671   7.2873
  7.3033   7.3223   7.3482   7.3557   7.3893   7.4162   7.4460   7.5198
  7.6009   7.6073   7.6416   7.6787   7.7638   7.7838   7.7976   7.8292
  7.8962   7.9220  24.7607  24.9011  25.1171  50.3774  50.5641  50.6009
 50.6180  50.6920  50.7387
 
 Beta MOs
 -- Occupied --
-19.3934 -19.3623 -19.3599 -19.3588 -19.3585 -19.3449 -10.4974 -10.4650
-10.4445  -1.2584  -1.2106  -1.1976  -1.1661  -1.1463  -1.0544  -0.8556
 -0.7527  -0.7480  -0.6750  -0.6425  -0.6230  -0.6173  -0.6034  -0.5830
 -0.5677  -0.5463  -0.5378  -0.5337  -0.5126  -0.4683  -0.4535  -0.4454
 -0.4231  -0.4153  -0.3980  -0.3849
 -- Virtual --
 -0.0587   0.0267   0.0339   0.0400   0.0489   0.0508   0.0638   0.0713
  0.0759   0.0831   0.0927   0.1046   0.1223   0.1278   0.1343   0.1406
  0.1417   0.1561   0.1626   0.1664   0.1779   0.1925   0.2096   0.2274
  0.2300   0.2443   0.2529   0.2592   0.2676   0.2737   0.2761   0.2845
  0.2901   0.2983   0.3051   0.3097   0.3186   0.3289   0.3337   0.3345
  0.3435   0.3493   0.3577   0.3691   0.3744   0.3772   0.3841   0.3929
  0.3999   0.4070   0.4159   0.4271   0.4399   0.4459   0.4553   0.4651
  0.5020   0.5225   0.5422   0.5685   0.5731   0.5899   0.6033   0.6094
  0.6256   0.6380   0.6549   0.6616   0.6715   0.6903   0.7064   0.7248
  0.7280   0.7412   0.7562   0.7737   0.7989   0.8037   0.8397   0.8438
  0.8473   0.8769   0.8882   0.9014   0.9267   0.9480   0.9667   0.9999
  1.0146   1.0233   1.0450   1.0674   1.0801   1.0852   1.1007   1.1034
  1.1195   1.1295   1.1418   1.1610   1.1697   1.1745   1.1838   1.1962
  1.2108   1.2189   1.2271   1.2415   1.2576   1.2743   1.2846   1.2915
  1.2977   1.3154   1.3256   1.3423   1.3698   1.3806   1.4034   1.4234
  1.4546   1.4699   1.4804   1.4997   1.5151   1.5335   1.5462   1.5628
  1.5849   1.6025   1.6186   1.6321   1.6539   1.6802   1.7055   1.7272
  1.7359   1.7442   1.7778   1.8008   1.8294   1.8477   1.8598   1.9029
  1.9228   1.9412   1.9709   1.9887   2.0290   2.0630   2.0785   2.1163
  2.1711   2.2073   2.2768   2.3045   2.3229   2.3317   2.3441   2.3732
  2.3958   2.4173   2.4538   2.4894   2.5174   2.5598   2.5883   2.6574
  2.6748   2.6934   2.7554   2.7766   2.8116   2.8780   2.8901   2.9011
  2.9647   2.9859   3.0213   3.0351   3.0877   3.1132   3.1274   3.1415
  3.1663   3.1907   3.2038   3.2232   3.2858   3.2918   3.2940   3.3342
  3.3596   3.3677   3.3857   3.4359   3.4581   3.4653   3.5364   3.5493
  3.6074   3.6133   3.6433   3.6501   3.6657   3.6934   3.7089   3.7779
  3.8095   3.8129   3.8250   3.8507   3.8636   3.8702   3.8856   3.9099
  3.9427   3.9581   4.0001   4.0254   4.1000   4.1230   4.1402   4.1634
  4.1820   4.2073   4.2281   4.2438   4.2522   4.2788   4.3356   4.3691
  4.3883   4.3892   4.4574   4.5434   4.6336   4.7566   5.0290   5.1273
  5.1339   5.1382   5.1474   5.1585   5.1662   5.1704   5.1746   5.1782
  5.1896   5.2083   5.2261   5.2288   5.2339   5.2448   5.2688   5.2900
  5.2961   5.3065   5.3247   5.3353   5.3556   5.3823   5.3957   5.4375
  5.4674   5.4887   5.5025   5.5097   5.5244   5.5336   5.5412   5.5735
  5.5776   5.5959   5.6085   5.6161   5.6248   5.6471   5.6621   5.7317
  5.7820   5.8144   5.9086   5.9185   6.0050   6.0368   6.0807   6.1646
  6.2938   6.4411   6.5226   6.5540   6.7117   6.7423   6.8842   6.8996
  6.9290   6.9508   6.9951   7.0333   7.0429   7.0502   7.0591   7.0877
  7.0976   7.1114   7.1389   7.1659   7.2226   7.2396   7.2552   7.2677
  7.2983   7.3064   7.3250   7.3488   7.3559   7.3901   7.4178   7.4553
  7.5204   7.6071   7.6419   7.6481   7.6800   7.7644   7.7861   7.8005
  7.8301   7.8965   7.9223  24.7607  24.9011  25.1171  50.3943  50.5642
 50.6009  50.6180  50.6919  50.7393
 --------------------------------------------------------------
 
          Ground-State Mulliken Net Atomic Charges

     Atom                 Charge (a.u.)    Spin (a.u.)
  --------------------------------------------------------
      1 C                    -0.066791       0.002368
      2 O                    -0.367851       0.000217
      3 C                     0.191492       0.007350
      4 O                    -0.264153       0.002222
      5 C                    -0.063725      -0.000231
      6 O                    -0.306507      -0.000409
      7 H                     0.280778      -0.001065
      8 H                     0.351283       0.000005
      9 H                     0.189028      -0.000088
     10 H                     0.219009      -0.000360
     11 O                    -0.395138      -0.000128
     12 H                     0.347525       0.000061
     13 O                    -0.436653       0.008030
     14 O                    -0.385421       0.993636
     15 H                     0.356765      -0.000371
     16 H                     0.350359      -0.011236
  --------------------------------------------------------
  Sum of atomic charges =    -0.000000
  Sum of spin   charges =     1.000000

 -----------------------------------------------------------------
                    Cartesian Multipole Moments
 -----------------------------------------------------------------
    Charge (ESU x 10^10)
                -0.0000
    Dipole Moment (Debye)
         X      -5.4165      Y       0.8618      Z       5.0023
       Tot       7.4232
    Quadrupole Moments (Debye-Ang)
        XX     -85.7416     XY      -5.0307     YY     -45.2772
        XZ      25.1985     YZ      -4.5297     ZZ     -67.2425
    Octopole Moments (Debye-Ang^2)
       XXX    -684.1184    XXY     -21.1888    XYY    -151.4021
       YYY      59.5616    XXZ     154.2662    XYZ     -17.0618
       YYZ      46.7158    XZZ    -226.5140    YZZ      25.7010
       ZZZ     123.6668
    Hexadecapole Moments (Debye-Ang^3)
      XXXX   -4594.6443   XXXY     -88.8631   XXYY    -703.0842
      XYYY     129.4770   YYYY    -705.2749   XXXZ     936.4651
      XXYZ     -98.7347   XYYZ     155.4537   YYYZ     -72.6791
      XXZZ    -935.7493   XYZZ      36.7713   YYZZ    -237.6074
      XZZZ     470.3169   YZZZ     -18.6449   ZZZZ    -576.6199
 -----------------------------------------------------------------
 Calculating analytic gradient of the SCF energy
 Gradient of CDS energy
            1           2           3           4           5           6
    1  -0.0022530   0.0011787   0.0016285  -0.0003501   0.0009942  -0.0010415
    2  -0.0016519  -0.0008755  -0.0012257   0.0010905   0.0012868   0.0001109
    3   0.0003252  -0.0016643   0.0024213  -0.0032678   0.0006658  -0.0000616
            7           8           9          10          11          12
    1   0.0001369  -0.0004721  -0.0001097   0.0001599   0.0009794  -0.0002459
    2   0.0001512  -0.0000170  -0.0002444  -0.0004893   0.0025480  -0.0004405
    3   0.0000050   0.0001837  -0.0000276  -0.0002035   0.0007740   0.0000837
           13          14          15          16
    1  -0.0008892  -0.0001697   0.0002591   0.0001943
    2  -0.0001759  -0.0001059  -0.0001223   0.0001612
    3   0.0006477  -0.0001584   0.0003281  -0.0000513
 Gradient of SCF Energy
            1           2           3           4           5           6
    1   0.0000981   0.0257960  -0.0049601  -0.0226962   0.0072623   0.0160054
    2  -0.0075088  -0.0097710   0.0025835   0.0030090  -0.0040560  -0.0037014
    3   0.0095411   0.0183770  -0.0015127   0.0048009  -0.0011727  -0.0000929
            7           8           9          10          11          12
    1  -0.0022830  -0.0234188  -0.0088065  -0.0140303  -0.0002558  -0.0001648
    2   0.0074352   0.0120980   0.0030893   0.0020733   0.0061096  -0.0086254
    3  -0.0056910  -0.0123879   0.0127954  -0.0120012  -0.0234027   0.0177632
           13          14          15          16
    1   0.0112345   0.0022189   0.0190033  -0.0050029
    2   0.0023353  -0.0039372  -0.0047067   0.0035731
    3  -0.0126274  -0.0071277   0.0057956   0.0069430
 Max gradient component =       2.580E-02
 RMS gradient           =       1.075E-02
 Computing fast CPCM-SWIG gradient
 Updating gradient with PCM contributions...
 -- total gradient after adding PCM contribution --
---------------------------------------------------
  Atom         X              Y              Z     
---------------------------------------------------
   1      -0.001045      -0.002833       0.001954
   2       0.006641       0.000261       0.006751
   3      -0.006260       0.002160       0.000700
   4      -0.008518      -0.001357       0.004968
   5      -0.005624      -0.000584      -0.001140
   6       0.009737      -0.002195      -0.000168
   7       0.000974       0.001296      -0.002885
   8      -0.005822       0.001109      -0.003790
   9      -0.001564       0.000612       0.002372
  10      -0.002438       0.000530      -0.001516
  11      -0.001041       0.002466      -0.008525
  12       0.000832      -0.001765       0.006686
  13       0.008497       0.001850      -0.006245
  14      -0.001364      -0.001946      -0.003724
  15       0.006527      -0.000451      -0.000055
  16       0.000467       0.000847       0.004615
---------------------------------------------------
 Number of fixed atoms: 0
 Gradient time:  CPU 218.42 s  wall 19.02 s
 Geometry Optimization Parameters
   NAtoms,    NIC,     NZ,  NCons,   NDum,   NFix, NCnnct, MaxDiis
       16     172       0       0       0       0       0       0


** GEOMETRY OPTIMIZATION IN DELOCALIZED INTERNAL COORDINATES **
   Searching for a Minimum

   Optimization Cycle:   1

                       Coordinates (Angstroms)
     ATOM                X               Y               Z
      1  C         2.3679244741   -1.1689779572   -0.8318044897
      2  O         1.6347355721   -0.5612002057    0.1995337940
      3  C         3.8067347084   -1.3312167677   -0.3474961185
      4  O         3.8754369364   -1.7381910254    0.9233249978
      5  C         2.8161342404    1.8426205905    0.2692157964
      6  O         4.0017265499    1.5901115021    0.1286855027
      7  H         2.3832091628   -0.5679590893   -1.7435016241
      8  H         0.7872105586   -0.2752740576   -0.1840032913
      9  H         2.3768894277    1.9713155212    1.2692253798
     10  H         2.1492204612    1.9869775756   -0.5939946362
     11  O         1.8515870478   -2.4272837808   -1.1915657159
     12  H         1.8359503466   -2.9727043770   -0.3845406677
     13  O         4.7743301212   -1.1684863263   -1.0637558064
     14  O         4.2052276448    1.0066888485   -2.6112982232
     15  H         4.8185706110   -1.8759967003    1.1446283368
     16  H         4.2518503370    1.2400743493   -1.6484247345
   Point Group: c1    Number of degrees of freedom:    42


   Energy is   -569.830559832


 Attempting to generate delocalized internal coordinates
 Initial Hessian constructed with Jon Baker's OPTIMIZE code

 42 Hessian modes will be used to form the next step
  Hessian Eigenvalues:
     0.009681    0.010278    0.014733    0.019304    0.020622    0.022487
     0.023549    0.024090    0.028222    0.033660    0.036686    0.040573
     0.045872    0.053029    0.056172    0.060675    0.066191    0.073656
     0.076343    0.082519    0.083090    0.102032    0.110376    0.120388
     0.131937    0.160000    0.160000    0.160567    0.249446    0.256082
     0.293275    0.303167    0.337064    0.395384    0.424240    0.444960
     0.483841    0.516768    0.525329    0.580732    0.837475    0.881548

 Minimum search - taking simple RFO step
 Searching for Lamda that Minimizes Along All modes
 Value Taken    Lamda =  -0.00098014
 Step Taken.  Stepsize is  0.084020

                             Maximum     Tolerance    Cnvgd?
         Gradient           0.007500      0.000300      NO
         Displacement       0.034367      0.001200      NO
         Energy change     *********      0.000001      NO


 New Cartesian Coordinates Obtained by Inverse Iteration

 Displacement from previous Coordinates is:  0.075161
 ----------------------------------------------------------------
             Standard Nuclear Orientation (Angstroms)
    I     Atom           X                Y                Z
 ----------------------------------------------------------------
    1      C       2.3697245807    -1.1710978821    -0.8298965821
    2      O       1.6310995649    -0.5623684300     0.1941678766
    3      C       3.8087767378    -1.3382663428    -0.3460272336
    4      O       3.8859319611    -1.7382253875     0.9216169191
    5      C       2.8153379116     1.8528281621     0.2707177355
    6      O       3.9950600661     1.6010213242     0.1251537202
    7      H       2.3813590303    -0.5709552957    -1.7378104448
    8      H       0.7885104167    -0.2736622159    -0.1810472945
    9      H       2.3813733146     1.9763908462     1.2687600372
   10      H       2.1525271623     1.9951440155    -0.5908996147
   11      O       1.8527648741    -2.4297062784    -1.1880440354
   12      H       1.8264447663    -2.9908126636    -0.4001189990
   13      O       4.7705756193    -1.1763827748    -1.0609714276
   14      O       4.2071728001     1.0098571863    -2.6109441379
   15      H       4.8198274992    -1.8777942296     1.1523254961
   16      H       4.2502518949     1.2445280661    -1.6527535151
 ----------------------------------------------------------------
 Nuclear Repulsion Energy =         491.39715693 hartrees
 There are       37 alpha and       36 beta electrons
 Discretize the solute cavity surface with Lebedev spheres
	Using 110 Lebedev grid points for each H atom
	Using 194 Lebedev grid points for other atoms
	Atomic van der Waals radii will be scaled by 1.20
 Remove points where switching function is < 1.0e-08
 Keep 1428 surface tesserae and discard 1088 interior tesserae
 Molecular Surface Area = 162.556 Angst**2
 Applying Cartesian multipole field
    Component          Value
    ---------          -----
     (2,0,0)        1.00000E-11
     (0,2,0)        2.00000E-11
     (0,0,2)       -3.00000E-11
 Nucleus-field energy     =     0.0000000326 hartrees
 Requested basis set is 6-311++G(2df,2p)
 There are 114 shells and 376 basis functions
 A cutoff of  1.0D-12 yielded   5831 shell pairs
 There are     63232 function pairs (     78872 Cartesian)
 Smallest overlap matrix eigenvalue = 2.89E-05
 Guess MOs from SCF MO coefficient file

 -----------------------------------------------------------------------
  General SCF calculation program by
  Eric Jon Sundstrom, Paul Horn, Yuezhi Mao, Dmitri Zuev, Alec White,
  David Stuck, Shaama M.S., Shane Yost, Joonho Lee, David Small,
  Daniel Levine, Susi Lehtola, Hugh Burton, Evgeny Epifanovsky,
  Bang C. Huynh
 -----------------------------------------------------------------------
 Exchange:     0.1500 Hartree-Fock + 1.0000 wB97M-V + LR-HF
 Correlation:  1.0000 wB97M-V
 Using SG-2 standard quadrature grid
 Nonlocal Correlation:  VV10 with C = 0.0100 and b = 6.00 and scale = 1.00000
 Grid used for NLC:  SG-1 standard quadrature
 
 Citation of the SMD model:
 Marenich, A.V.; Cramer, C.J.; Truhlar, D.G.
 J. Phys. Chem. B 2009, 113, 6378-6396.
 iSolventCode=           1
 Solvent: water                                                           
 
 vradii
            1           2           3           4           5           6
    1   1.8500000   1.5200000   1.8500000   1.5200000   1.8500000   1.5200000
            7           8           9          10          11          12
    1   1.2000000   1.2000000   1.2000000   1.2000000   1.5200000   1.2000000
           13          14          15          16
    1   1.5200000   1.5200000   1.2000000   1.2000000
 -------------------------------------------------------
 OpenMP BLAS3 based DFT computing Module                
 Release: version 1.0, May 2013, Q-Chem Inc. Pittsburgh 
 -------------------------------------------------------
 A unrestricted SCF calculation will be
 performed using Roothaan-Hall, DIIS, GDM
 SCF converges when RMS gradient is below 1.0e-07
 ---------------------------------------
  Cycle       Energy         DIIS error
 ---------------------------------------
    1    -569.7849400019      2.83e-04  Roothaan Step
 ---------------------------------------
  Cycle       Energy         DIIS error
 ---------------------------------------
    1    -569.8299404431      3.31e-04  
    2    -569.8351309986      3.50e-04  Done DIIS. Switching to GDM
 ---------------------------------------
  Cycle       Energy        RMS Gradient
 ---------------------------------------
    1    -569.8351309986      2.12e-02   Normal BFGS step
    2    -569.8322866626      3.23e-02  Line search: overstep
    3    -569.8406244946      3.15e-03   Normal BFGS step
    4    -569.8408675434      1.17e-03   Normal BFGS step
    5    -569.8409044628      5.58e-04   Normal BFGS step
    6    -569.8409138494      1.55e-04   Normal BFGS step
    7    -569.8409143623      1.38e-04   Normal BFGS step
    8    -569.8409146142      7.11e-05   Normal BFGS step
    9    -569.8409146420      5.09e-05   Normal BFGS step
   10    -569.8409146573      4.08e-05   Normal BFGS step
   11    -569.8409146680      4.34e-05   Normal BFGS step
   12    -569.8409146785      4.30e-05   Normal BFGS step
   13    -569.8409146936      5.59e-05   Normal BFGS step
   14    -569.8409147120      7.71e-05   Normal BFGS step
   15    -569.8409147411      8.67e-05   Normal BFGS step
   16    -569.8409147741      6.76e-05   Normal BFGS step
   17    -569.8409147982      3.91e-05   Normal BFGS step
   18    -569.8409148056      1.60e-05   Normal BFGS step
   19    -569.8409148066      3.71e-06   Normal BFGS step
   20    -569.8409148068      1.59e-06   Normal BFGS step
   21    -569.8409148069      7.25e-07   Normal BFGS step
   22    -569.8409148069      3.16e-07   Normal BFGS step
   23    -569.8409148069      1.34e-07   Normal BFGS step
   24    -569.8409148069      7.70e-08  Convergence criterion met
 ---------------------------------------
 SCF time:   CPU 2096.93s  wall 143.00s 
<S^2> =          0.752979897
(3)  G-ENP(liq) elect-nuc-pol free energy of system     -569.840914807 a.u.
(4)  G-CDS(liq) cavity-dispersion-solvent structure 
     free energy                                                6.1473 kcal/mol
(6)  G-S(liq) free energy of system                     -569.831118417 a.u.
 SCF   energy in the final basis set =     -569.8311184166
 Total energy in the final basis set =     -569.8311184166
 
 --------------------------------------------------------------
 
                    Orbital Energies (a.u.)
 --------------------------------------------------------------
 
 Alpha MOs
 -- Occupied --
-19.3922 -19.3868 -19.3586 -19.3577 -19.3572 -19.3446 -10.4961 -10.4648
-10.4425  -1.2609  -1.2112  -1.2000  -1.1688  -1.1468  -1.1257  -0.8569
 -0.7527  -0.7511  -0.6774  -0.6448  -0.6257  -0.6216  -0.6059  -0.5882
 -0.5687  -0.5586  -0.5458  -0.5349  -0.5141  -0.5082  -0.4688  -0.4553
 -0.4479  -0.4441  -0.4190  -0.3970  -0.3854
 -- Virtual --
  0.0267   0.0346   0.0399   0.0487   0.0502   0.0645   0.0704   0.0756
  0.0827   0.0920   0.1039   0.1220   0.1277   0.1339   0.1405   0.1421
  0.1556   0.1618   0.1649   0.1769   0.1918   0.2087   0.2274   0.2300
  0.2439   0.2519   0.2582   0.2675   0.2720   0.2755   0.2830   0.2896
  0.2975   0.3046   0.3065   0.3187   0.3279   0.3336   0.3339   0.3425
  0.3495   0.3569   0.3693   0.3738   0.3762   0.3837   0.3928   0.4001
  0.4073   0.4155   0.4243   0.4392   0.4470   0.4554   0.4646   0.5025
  0.5223   0.5439   0.5707   0.5729   0.5905   0.6053   0.6142   0.6257
  0.6388   0.6570   0.6625   0.6738   0.6907   0.7083   0.7261   0.7282
  0.7416   0.7572   0.7744   0.7976   0.8053   0.8407   0.8434   0.8484
  0.8770   0.8859   0.8995   0.9258   0.9463   0.9658   0.9956   1.0121
  1.0214   1.0421   1.0630   1.0779   1.0831   1.0970   1.0997   1.1114
  1.1280   1.1390   1.1606   1.1663   1.1720   1.1805   1.1934   1.2040
  1.2140   1.2221   1.2398   1.2515   1.2669   1.2837   1.2903   1.2949
  1.3132   1.3251   1.3404   1.3658   1.3766   1.4039   1.4210   1.4531
  1.4714   1.4790   1.5004   1.5156   1.5351   1.5464   1.5531   1.5703
  1.5899   1.5946   1.6207   1.6488   1.6603   1.6970   1.7155   1.7329
  1.7387   1.7768   1.7996   1.8293   1.8491   1.8589   1.8986   1.9198
  1.9426   1.9663   1.9762   2.0122   2.0642   2.0852   2.1167   2.1734
  2.2061   2.2802   2.2956   2.3193   2.3321   2.3445   2.3724   2.3949
  2.4156   2.4545   2.4799   2.5195   2.5593   2.5885   2.6563   2.6727
  2.6922   2.7550   2.7776   2.8190   2.8762   2.8881   2.9010   2.9638
  2.9818   3.0211   3.0355   3.0872   3.1130   3.1267   3.1430   3.1663
  3.1919   3.2030   3.2238   3.2863   3.2928   3.2956   3.3429   3.3606
  3.3665   3.3858   3.4361   3.4582   3.4640   3.5356   3.5514   3.6107
  3.6185   3.6452   3.6532   3.6679   3.6970   3.7086   3.7750   3.8095
  3.8115   3.8209   3.8525   3.8575   3.8707   3.8898   3.9125   3.9393
  3.9563   4.0028   4.0302   4.1042   4.1244   4.1407   4.1723   4.1949
  4.2135   4.2313   4.2481   4.2588   4.2920   4.3482   4.3813   4.3867
  4.4000   4.4627   4.5510   4.6464   4.7577   5.0364   5.0550   5.0725
  5.0782   5.0820   5.0951   5.1398   5.1530   5.1583   5.1705   5.1750
  5.1898   5.2076   5.2279   5.2325   5.2410   5.2682   5.2809   5.2953
  5.3038   5.3235   5.3345   5.3554   5.3790   5.3934   5.4382   5.4499
  5.4879   5.5069   5.5138   5.5273   5.5360   5.5481   5.5588   5.5740
  5.5852   5.6039   5.6174   5.6244   5.6575   5.6710   5.7350   5.7914
  5.8169   5.9223   5.9407   6.0226   6.0579   6.0907   6.1689   6.3116
  6.4595   6.5274   6.5742   6.7267   6.7475   6.7695   6.7865   6.8856
  6.9355   6.9887   7.0045   7.0273   7.0433   7.0626   7.0675   7.0971
  7.1159   7.1338   7.1787   7.2272   7.2579   7.2714   7.2849   7.2943
  7.3085   7.3260   7.3484   7.3590   7.4024   7.4315   7.4507   7.5225
  7.6020   7.6089   7.6527   7.6841   7.7741   7.7858   7.7989   7.8270
  7.8995   7.9217  24.7691  24.9234  25.1367  50.3795  50.5686  50.6055
 50.6211  50.7004  50.7469
 
 Beta MOs
 -- Occupied --
-19.3921 -19.3624 -19.3586 -19.3578 -19.3572 -19.3439 -10.4962 -10.4648
-10.4425  -1.2606  -1.2112  -1.2000  -1.1678  -1.1468  -1.0558  -0.8568
 -0.7527  -0.7509  -0.6771  -0.6445  -0.6239  -0.6183  -0.6046  -0.5841
 -0.5684  -0.5456  -0.5386  -0.5333  -0.5137  -0.4672  -0.4532  -0.4456
 -0.4229  -0.4155  -0.3978  -0.3845
 -- Virtual --
 -0.0591   0.0268   0.0347   0.0402   0.0490   0.0510   0.0647   0.0719
  0.0762   0.0832   0.0928   0.1045   0.1221   0.1279   0.1344   0.1407
  0.1422   0.1563   0.1628   0.1663   0.1780   0.1928   0.2099   0.2283
  0.2304   0.2446   0.2529   0.2598   0.2678   0.2743   0.2770   0.2844
  0.2905   0.2985   0.3065   0.3103   0.3189   0.3288   0.3341   0.3350
  0.3441   0.3502   0.3578   0.3697   0.3742   0.3783   0.3839   0.3941
  0.4009   0.4084   0.4160   0.4270   0.4401   0.4475   0.4566   0.4660
  0.5039   0.5229   0.5443   0.5709   0.5731   0.5912   0.6057   0.6142
  0.6261   0.6396   0.6575   0.6628   0.6741   0.6927   0.7087   0.7267
  0.7287   0.7418   0.7581   0.7746   0.7982   0.8056   0.8416   0.8439
  0.8486   0.8773   0.8890   0.9004   0.9262   0.9483   0.9660   0.9988
  1.0147   1.0226   1.0437   1.0677   1.0801   1.0838   1.1007   1.1033
  1.1189   1.1299   1.1410   1.1619   1.1692   1.1731   1.1837   1.1951
  1.2129   1.2196   1.2272   1.2407   1.2567   1.2728   1.2847   1.2920
  1.2985   1.3154   1.3260   1.3438   1.3701   1.3808   1.4047   1.4238
  1.4559   1.4723   1.4801   1.5015   1.5168   1.5360   1.5512   1.5641
  1.5841   1.6035   1.6190   1.6328   1.6560   1.6804   1.7073   1.7285
  1.7362   1.7457   1.7804   1.8021   1.8307   1.8502   1.8600   1.9047
  1.9217   1.9430   1.9717   1.9889   2.0300   2.0650   2.0855   2.1172
  2.1739   2.2068   2.2817   2.3047   2.3202   2.3324   2.3446   2.3731
  2.3951   2.4168   2.4548   2.4867   2.5198   2.5601   2.5891   2.6572
  2.6750   2.6930   2.7553   2.7779   2.8199   2.8820   2.8888   2.9045
  2.9639   2.9851   3.0213   3.0358   3.0881   3.1131   3.1269   3.1431
  3.1666   3.1921   3.2031   3.2242   3.2865   3.2929   3.2958   3.3430
  3.3608   3.3667   3.3859   3.4363   3.4582   3.4643   3.5359   3.5520
  3.6108   3.6186   3.6454   3.6534   3.6681   3.6971   3.7096   3.7784
  3.8111   3.8127   3.8251   3.8538   3.8662   3.8724   3.8903   3.9134
  3.9428   3.9584   4.0032   4.0307   4.1046   4.1248   4.1409   4.1724
  4.1951   4.2136   4.2317   4.2482   4.2590   4.2921   4.3491   4.3820
  4.3968   4.4005   4.4629   4.5518   4.6464   4.7579   5.0387   5.1275
  5.1335   5.1379   5.1477   5.1592   5.1660   5.1699   5.1746   5.1778
  5.1894   5.2072   5.2273   5.2289   5.2336   5.2445   5.2699   5.2895
  5.2958   5.3054   5.3252   5.3363   5.3580   5.3828   5.3959   5.4402
  5.4722   5.4885   5.5080   5.5160   5.5277   5.5367   5.5510   5.5831
  5.5867   5.6041   5.6222   5.6251   5.6343   5.6582   5.6712   5.7353
  5.7919   5.8172   5.9227   5.9410   6.0228   6.0582   6.0909   6.1690
  6.3116   6.4603   6.5278   6.5741   6.7273   6.7488   6.8846   6.8990
  6.9296   6.9503   6.9992   7.0400   7.0475   7.0620   7.0636   7.0904
  7.1012   7.1232   7.1546   7.1814   7.2277   7.2583   7.2719   7.2853
  7.3036   7.3127   7.3304   7.3494   7.3592   7.4032   7.4348   7.4588
  7.5232   7.6087   7.6491   7.6532   7.6852   7.7747   7.7879   7.8017
  7.8279   7.8997   7.9220  24.7691  24.9234  25.1367  50.3964  50.5686
 50.6055  50.6212  50.7003  50.7475
 --------------------------------------------------------------
 
          Ground-State Mulliken Net Atomic Charges

     Atom                 Charge (a.u.)    Spin (a.u.)
  --------------------------------------------------------
      1 C                    -0.066480       0.002354
      2 O                    -0.367439       0.000217
      3 C                     0.195005       0.007464
      4 O                    -0.264825       0.002191
      5 C                    -0.065248      -0.000253
      6 O                    -0.303420      -0.000394
      7 H                     0.282571      -0.001056
      8 H                     0.349037       0.000005
      9 H                     0.188511      -0.000098
     10 H                     0.217769      -0.000351
     11 O                    -0.397238      -0.000131
     12 H                     0.346948       0.000063
     13 O                    -0.436762       0.007590
     14 O                    -0.384146       0.993653
     15 H                     0.355417      -0.000359
     16 H                     0.350300      -0.010896
  --------------------------------------------------------
  Sum of atomic charges =    -0.000000
  Sum of spin   charges =     1.000000

 -----------------------------------------------------------------
                    Cartesian Multipole Moments
 -----------------------------------------------------------------
    Charge (ESU x 10^10)
                 0.0000
    Dipole Moment (Debye)
         X      -5.3665      Y       0.8468      Z       5.0037
       Tot       7.3860
    Quadrupole Moments (Debye-Ang)
        XX     -85.3644     XY      -4.9805     YY     -45.0234
        XZ      25.2140     YZ      -4.5296     ZZ     -67.1354
    Octopole Moments (Debye-Ang^2)
       XXX    -681.8745    XXY     -20.9141    XYY    -150.9369
       YYY      58.5832    XXZ     154.3933    XYZ     -17.2111
       YYZ      46.5898    XZZ    -225.9710    YZZ      25.7408
       ZZZ     123.6452
    Hexadecapole Moments (Debye-Ang^3)
      XXXX   -4582.1557   XXXY     -87.5933   XXYY    -702.6297
      XYYY     128.5241   YYYY    -704.8200   XXXZ     937.0739
      XXYZ     -99.7225   XYYZ     155.4349   YYYZ     -72.0832
      XXZZ    -933.0482   XYZZ      36.9336   YYZZ    -238.0452
      XZZZ     469.9590   YZZZ     -19.2305   ZZZZ    -575.2507
 -----------------------------------------------------------------
 Calculating analytic gradient of the SCF energy
 Gradient of CDS energy
            1           2           3           4           5           6
    1  -0.0023859   0.0013208   0.0015985  -0.0003617   0.0009345  -0.0009922
    2  -0.0014913  -0.0009962  -0.0011728   0.0010208   0.0012994   0.0001070
    3   0.0005200  -0.0018477   0.0023098  -0.0031129   0.0006744  -0.0000625
            7           8           9          10          11          12
    1   0.0001361  -0.0004709  -0.0001027   0.0001651   0.0009653  -0.0002494
    2   0.0001520  -0.0000162  -0.0002416  -0.0004931   0.0025112  -0.0004447
    3   0.0000092   0.0001797  -0.0000395  -0.0001990   0.0007649   0.0000759
           13          14          15          16
    1  -0.0008399  -0.0001709   0.0002598   0.0001935
    2  -0.0001715  -0.0001059  -0.0001196   0.0001626
    3   0.0006149  -0.0001605   0.0003244  -0.0000513
 Gradient of SCF Energy
            1           2           3           4           5           6
    1   0.0020408   0.0195420  -0.0004608  -0.0142568   0.0112494   0.0074786
    2  -0.0042124  -0.0088423   0.0010140   0.0039836  -0.0040707  -0.0019687
    3   0.0065601   0.0123305  -0.0038126   0.0007862  -0.0003833   0.0001285
            7           8           9          10          11          12
    1  -0.0031860  -0.0183882  -0.0070921  -0.0112355   0.0006938  -0.0013607
    2   0.0069149   0.0107330   0.0024084   0.0013149   0.0042498  -0.0078866
    3  -0.0032538  -0.0086344   0.0102457  -0.0105092  -0.0148957   0.0116007
           13          14          15          16
    1   0.0043593   0.0023444   0.0133732  -0.0051016
    2   0.0009951  -0.0030628  -0.0043511   0.0027809
    3  -0.0061532  -0.0037758   0.0061138   0.0036525
 Max gradient component =       1.954E-02
 RMS gradient           =       7.799E-03
 Computing fast CPCM-SWIG gradient
 Updating gradient with PCM contributions...
 -- total gradient after adding PCM contribution --
---------------------------------------------------
  Atom         X              Y              Z     
---------------------------------------------------
   1       0.000735       0.000447      -0.000887
   2       0.000617       0.001301       0.001075
   3      -0.001738       0.000626      -0.001790
   4      -0.000018      -0.000405       0.001200
   5      -0.001290      -0.000831      -0.000436
   6       0.001287      -0.000473       0.000098
   7       0.000130       0.000730      -0.000546
   8      -0.000892      -0.000304      -0.000307
   9       0.000009       0.000021      -0.000165
  10       0.000044      -0.000158      -0.000009
  11      -0.000221       0.000175      -0.000184
  12      -0.000236      -0.000674       0.000643
  13       0.001570       0.000570       0.000317
  14      -0.001176      -0.001040      -0.000289
  15       0.000850      -0.000077       0.000072
  16       0.000329       0.000093       0.001210
---------------------------------------------------
 Number of fixed atoms: 0
 Gradient time:  CPU 218.60 s  wall 19.02 s
 Geometry Optimization Parameters
   NAtoms,    NIC,     NZ,  NCons,   NDum,   NFix, NCnnct, MaxDiis
       16     172       0       0       0       0       0       0

 Cartesian Hessian Update
 Hessian updated using BFGS update


** GEOMETRY OPTIMIZATION IN DELOCALIZED INTERNAL COORDINATES **
   Searching for a Minimum

   Optimization Cycle:   2

                       Coordinates (Angstroms)
     ATOM                X               Y               Z
      1  C         2.3697245807   -1.1710978821   -0.8298965821
      2  O         1.6310995649   -0.5623684300    0.1941678766
      3  C         3.8087767378   -1.3382663428   -0.3460272336
      4  O         3.8859319611   -1.7382253875    0.9216169191
      5  C         2.8153379116    1.8528281621    0.2707177355
      6  O         3.9950600661    1.6010213242    0.1251537202
      7  H         2.3813590303   -0.5709552957   -1.7378104448
      8  H         0.7885104167   -0.2736622159   -0.1810472945
      9  H         2.3813733146    1.9763908462    1.2687600372
     10  H         2.1525271623    1.9951440155   -0.5908996147
     11  O         1.8527648741   -2.4297062784   -1.1880440354
     12  H         1.8264447663   -2.9908126636   -0.4001189990
     13  O         4.7705756193   -1.1763827748   -1.0609714276
     14  O         4.2071728001    1.0098571863   -2.6109441379
     15  H         4.8198274992   -1.8777942296    1.1523254961
     16  H         4.2502518949    1.2445280661   -1.6527535151
   Point Group: c1    Number of degrees of freedom:    42


   Energy is   -569.831118417

 Hessian updated using BFGS update

 42 Hessian modes will be used to form the next step
  Hessian Eigenvalues:
     0.009707    0.010235    0.014725    0.018146    0.020507    0.022362
     0.023052    0.024090    0.028284    0.033280    0.036671    0.040567
     0.045681    0.051992    0.056024    0.060575    0.066326    0.073442
     0.075303    0.082481    0.083121    0.101376    0.109715    0.120659
     0.131894    0.156319    0.160086    0.170815    0.255516    0.256711
     0.294347    0.303266    0.340023    0.392925    0.420602    0.444729
     0.481030    0.509802    0.522245    0.573045    0.840562    0.873808

 Minimum search - taking simple RFO step
 Searching for Lamda that Minimizes Along All modes
 Value Taken    Lamda =  -0.00014266
 Step Taken.  Stepsize is  0.071105

                             Maximum     Tolerance    Cnvgd?
         Gradient           0.001402      0.000300      NO
         Displacement       0.027422      0.001200      NO
         Energy change     -0.000559      0.000001      NO


 New Cartesian Coordinates Obtained by Inverse Iteration

 Displacement from previous Coordinates is:  0.067644
 ----------------------------------------------------------------
             Standard Nuclear Orientation (Angstroms)
    I     Atom           X                Y                Z
 ----------------------------------------------------------------
    1      C       2.3687804188    -1.1748854096    -0.8288327187
    2      O       1.6294931393    -0.5678945239     0.1941874026
    3      C       3.8071420060    -1.3419058549    -0.3443232859
    4      O       3.8806233688    -1.7376774444     0.9226700876
    5      C       2.8163501784     1.8620462910     0.2741405272
    6      O       3.9939783217     1.6116561962     0.1199436544
    7      H       2.3792811776    -0.5755735203    -1.7364440832
    8      H       0.7882058256    -0.2771139126    -0.1779702730
    9      H       2.3890213669     1.9818339096     1.2751834074
   10      H       2.1488356123     2.0046800796    -0.5833182934
   11      O       1.8565329710    -2.4335100178    -1.1909794337
   12      H       1.8357026104    -2.9973294788    -0.4070772352
   13      O       4.7658458828    -1.1846497572    -1.0625547281
   14      O       4.2129389989     1.0118973160    -2.6176914398
   15      H       4.8110476013    -1.8795573440     1.1585392744
   16      H       4.2529587200     1.2484815709    -1.6612443626
 ----------------------------------------------------------------
 Nuclear Repulsion Energy =         491.01946473 hartrees
 There are       37 alpha and       36 beta electrons
 Discretize the solute cavity surface with Lebedev spheres
	Using 110 Lebedev grid points for each H atom
	Using 194 Lebedev grid points for other atoms
	Atomic van der Waals radii will be scaled by 1.20
 Remove points where switching function is < 1.0e-08
 Keep 1430 surface tesserae and discard 1086 interior tesserae
 Molecular Surface Area = 163.028 Angst**2
 Applying Cartesian multipole field
    Component          Value
    ---------          -----
     (2,0,0)        1.00000E-11
     (0,2,0)        2.00000E-11
     (0,0,2)       -3.00000E-11
 Nucleus-field energy     =     0.0000000326 hartrees
 Requested basis set is 6-311++G(2df,2p)
 There are 114 shells and 376 basis functions
 A cutoff of  1.0D-12 yielded   5830 shell pairs
 There are     63231 function pairs (     78871 Cartesian)
 Smallest overlap matrix eigenvalue = 2.91E-05
 Guess MOs from SCF MO coefficient file

 -----------------------------------------------------------------------
  General SCF calculation program by
  Eric Jon Sundstrom, Paul Horn, Yuezhi Mao, Dmitri Zuev, Alec White,
  David Stuck, Shaama M.S., Shane Yost, Joonho Lee, David Small,
  Daniel Levine, Susi Lehtola, Hugh Burton, Evgeny Epifanovsky,
  Bang C. Huynh
 -----------------------------------------------------------------------
 Exchange:     0.1500 Hartree-Fock + 1.0000 wB97M-V + LR-HF
 Correlation:  1.0000 wB97M-V
 Using SG-2 standard quadrature grid
 Nonlocal Correlation:  VV10 with C = 0.0100 and b = 6.00 and scale = 1.00000
 Grid used for NLC:  SG-1 standard quadrature
 
 Citation of the SMD model:
 Marenich, A.V.; Cramer, C.J.; Truhlar, D.G.
 J. Phys. Chem. B 2009, 113, 6378-6396.
 iSolventCode=           1
 Solvent: water                                                           
 
 vradii
            1           2           3           4           5           6
    1   1.8500000   1.5200000   1.8500000   1.5200000   1.8500000   1.5200000
            7           8           9          10          11          12
    1   1.2000000   1.2000000   1.2000000   1.2000000   1.5200000   1.2000000
           13          14          15          16
    1   1.5200000   1.5200000   1.2000000   1.2000000
 -------------------------------------------------------
 OpenMP BLAS3 based DFT computing Module                
 Release: version 1.0, May 2013, Q-Chem Inc. Pittsburgh 
 -------------------------------------------------------
 A unrestricted SCF calculation will be
 performed using Roothaan-Hall, DIIS, GDM
 SCF converges when RMS gradient is below 1.0e-07
 ---------------------------------------
  Cycle       Energy         DIIS error
 ---------------------------------------
    1    -569.7851810599      2.78e-04  Roothaan Step
 ---------------------------------------
  Cycle       Energy         DIIS error
 ---------------------------------------
    1    -569.8302749254      3.28e-04  
    2    -569.8354172113      3.46e-04  Done DIIS. Switching to GDM
 ---------------------------------------
  Cycle       Energy        RMS Gradient
 ---------------------------------------
    1    -569.8354172113      2.05e-02   Normal BFGS step
    2    -569.8326866077      3.13e-02  Line search: overstep
    3    -569.8407780812      3.07e-03   Normal BFGS step
    4    -569.8410160590      1.13e-03   Normal BFGS step
    5    -569.8410525501      5.27e-04   Normal BFGS step
    6    -569.8410619156      1.53e-04   Normal BFGS step
    7    -569.8410624123      1.30e-04   Normal BFGS step
    8    -569.8410626615      7.23e-05   Normal BFGS step
    9    -569.8410626928      6.00e-05   Normal BFGS step
   10    -569.8410627138      5.77e-05   Normal BFGS step
   11    -569.8410627357      6.06e-05   Normal BFGS step
   12    -569.8410627607      5.92e-05   Normal BFGS step
   13    -569.8410628004      1.00e-04   Normal BFGS step
   14    -569.8410628501      1.30e-04   Normal BFGS step
   15    -569.8410629158      1.27e-04   Normal BFGS step
   16    -569.8410629744      7.85e-05   Normal BFGS step
   17    -569.8410630058      4.19e-05   Normal BFGS step
   18    -569.8410630132      1.51e-05   Normal BFGS step
   19    -569.8410630141      3.31e-06   Normal BFGS step
   20    -569.8410630143      1.41e-06   Normal BFGS step
   21    -569.8410630144      6.59e-07   Normal BFGS step
   22    -569.8410630144      2.96e-07   Normal BFGS step
   23    -569.8410630144      1.21e-07   Normal BFGS step
   24    -569.8410630143      6.36e-08  Convergence criterion met
 ---------------------------------------
 SCF time:   CPU 2153.72s  wall 148.00s 
<S^2> =          0.752970033
(3)  G-ENP(liq) elect-nuc-pol free energy of system     -569.841063014 a.u.
(4)  G-CDS(liq) cavity-dispersion-solvent structure 
     free energy                                                6.1743 kcal/mol
(6)  G-S(liq) free energy of system                     -569.831223668 a.u.
 SCF   energy in the final basis set =     -569.8312236682
 Total energy in the final basis set =     -569.8312236682
 
 --------------------------------------------------------------
 
                    Orbital Energies (a.u.)
 --------------------------------------------------------------
 
 Alpha MOs
 -- Occupied --
-19.3923 -19.3870 -19.3582 -19.3576 -19.3569 -19.3442 -10.4956 -10.4641
-10.4421  -1.2617  -1.2115  -1.2005  -1.1695  -1.1473  -1.1262  -0.8570
 -0.7527  -0.7517  -0.6779  -0.6451  -0.6257  -0.6216  -0.6062  -0.5885
 -0.5689  -0.5589  -0.5455  -0.5349  -0.5144  -0.5084  -0.4687  -0.4554
 -0.4481  -0.4442  -0.4191  -0.3969  -0.3852
 -- Virtual --
  0.0267   0.0347   0.0399   0.0487   0.0502   0.0649   0.0706   0.0757
  0.0826   0.0921   0.1038   0.1221   0.1278   0.1338   0.1405   0.1421
  0.1556   0.1617   0.1648   0.1770   0.1917   0.2087   0.2274   0.2302
  0.2440   0.2519   0.2584   0.2673   0.2720   0.2759   0.2830   0.2895
  0.2976   0.3046   0.3071   0.3188   0.3280   0.3336   0.3341   0.3425
  0.3498   0.3568   0.3695   0.3736   0.3766   0.3834   0.3927   0.4005
  0.4075   0.4156   0.4243   0.4386   0.4472   0.4555   0.4648   0.5033
  0.5221   0.5449   0.5712   0.5733   0.5902   0.6060   0.6147   0.6270
  0.6396   0.6580   0.6624   0.6743   0.6910   0.7089   0.7264   0.7287
  0.7419   0.7578   0.7745   0.7969   0.8061   0.8409   0.8435   0.8481
  0.8769   0.8853   0.8991   0.9261   0.9469   0.9657   0.9942   1.0115
  1.0206   1.0428   1.0634   1.0771   1.0839   1.0966   1.0987   1.1099
  1.1275   1.1379   1.1600   1.1660   1.1714   1.1800   1.1926   1.2046
  1.2139   1.2215   1.2395   1.2508   1.2662   1.2831   1.2907   1.2949
  1.3134   1.3261   1.3406   1.3660   1.3760   1.4047   1.4213   1.4537
  1.4716   1.4789   1.5007   1.5153   1.5358   1.5456   1.5541   1.5695
  1.5894   1.5936   1.6217   1.6484   1.6586   1.6967   1.7145   1.7342
  1.7391   1.7780   1.7986   1.8272   1.8507   1.8591   1.8993   1.9209
  1.9439   1.9648   1.9757   2.0099   2.0637   2.0866   2.1171   2.1740
  2.2067   2.2809   2.2921   2.3180   2.3336   2.3454   2.3728   2.3948
  2.4161   2.4554   2.4786   2.5209   2.5584   2.5878   2.6561   2.6730
  2.6928   2.7552   2.7785   2.8195   2.8762   2.8896   2.9028   2.9634
  2.9801   3.0206   3.0346   3.0855   3.1126   3.1255   3.1440   3.1655
  3.1905   3.2036   3.2232   3.2872   3.2929   3.2960   3.3440   3.3606
  3.3661   3.3858   3.4364   3.4583   3.4645   3.5330   3.5527   3.6108
  3.6196   3.6450   3.6533   3.6681   3.6962   3.7083   3.7741   3.8092
  3.8116   3.8204   3.8515   3.8573   3.8696   3.8903   3.9125   3.9378
  3.9560   4.0066   4.0305   4.1044   4.1233   4.1418   4.1750   4.1973
  4.2143   4.2325   4.2489   4.2587   4.2961   4.3503   4.3848   4.3876
  4.4050   4.4650   4.5525   4.6475   4.7581   5.0376   5.0546   5.0722
  5.0777   5.0814   5.0951   5.1396   5.1526   5.1585   5.1700   5.1743
  5.1899   5.2071   5.2292   5.2328   5.2411   5.2684   5.2802   5.2967
  5.3034   5.3235   5.3354   5.3545   5.3788   5.3934   5.4396   5.4498
  5.4883   5.5078   5.5154   5.5283   5.5381   5.5496   5.5612   5.5763
  5.5879   5.6057   5.6188   5.6268   5.6604   5.6751   5.7363   5.7924
  5.8167   5.9250   5.9450   6.0297   6.0622   6.0989   6.1750   6.3156
  6.4660   6.5299   6.5784   6.7344   6.7496   6.7695   6.7851   6.8858
  6.9348   6.9894   7.0041   7.0268   7.0438   7.0643   7.0691   7.0968
  7.1184   7.1379   7.1878   7.2278   7.2601   7.2763   7.2896   7.2950
  7.3104   7.3267   7.3491   7.3623   7.4059   7.4365   7.4550   7.5233
  7.6024   7.6101   7.6539   7.6847   7.7773   7.7853   7.7992   7.8258
  7.9004   7.9233  24.7738  24.9264  25.1430  50.3796  50.5700  50.6071
 50.6230  50.7015  50.7487
 
 Beta MOs
 -- Occupied --
-19.3922 -19.3626 -19.3582 -19.3577 -19.3569 -19.3436 -10.4956 -10.4641
-10.4421  -1.2613  -1.2114  -1.2004  -1.1686  -1.1472  -1.0564  -0.8569
 -0.7526  -0.7516  -0.6777  -0.6448  -0.6240  -0.6183  -0.6049  -0.5842
 -0.5686  -0.5453  -0.5390  -0.5334  -0.5141  -0.4671  -0.4530  -0.4457
 -0.4230  -0.4158  -0.3976  -0.3843
 -- Virtual --
 -0.0594   0.0268   0.0348   0.0402   0.0490   0.0511   0.0651   0.0721
  0.0763   0.0831   0.0928   0.1044   0.1222   0.1280   0.1344   0.1406
  0.1423   0.1563   0.1628   0.1662   0.1782   0.1927   0.2099   0.2283
  0.2306   0.2447   0.2529   0.2599   0.2676   0.2743   0.2773   0.2845
  0.2904   0.2988   0.3072   0.3102   0.3190   0.3290   0.3342   0.3351
  0.3440   0.3505   0.3577   0.3698   0.3739   0.3787   0.3836   0.3940
  0.4014   0.4085   0.4161   0.4269   0.4395   0.4477   0.4567   0.4663
  0.5047   0.5227   0.5452   0.5714   0.5734   0.5909   0.6064   0.6147
  0.6273   0.6405   0.6585   0.6626   0.6746   0.6930   0.7093   0.7271
  0.7293   0.7421   0.7587   0.7747   0.7975   0.8064   0.8417   0.8440
  0.8483   0.8773   0.8884   0.8999   0.9265   0.9489   0.9658   0.9974
  1.0140   1.0218   1.0444   1.0682   1.0794   1.0845   1.0996   1.1021
  1.1179   1.1293   1.1401   1.1613   1.1689   1.1723   1.1830   1.1944
  1.2135   1.2198   1.2269   1.2404   1.2562   1.2720   1.2839   1.2925
  1.2987   1.3151   1.3271   1.3437   1.3702   1.3803   1.4055   1.4240
  1.4565   1.4726   1.4799   1.5020   1.5166   1.5368   1.5526   1.5642
  1.5818   1.6033   1.6189   1.6329   1.6551   1.6797   1.7066   1.7274
  1.7371   1.7462   1.7813   1.8013   1.8286   1.8516   1.8603   1.9055
  1.9226   1.9443   1.9723   1.9862   2.0281   2.0645   2.0869   2.1176
  2.1745   2.2074   2.2825   2.3015   2.3186   2.3339   2.3455   2.3735
  2.3950   2.4173   2.4559   2.4854   2.5212   2.5593   2.5884   2.6569
  2.6754   2.6934   2.7554   2.7789   2.8204   2.8824   2.8901   2.9063
  2.9635   2.9836   3.0208   3.0350   3.0863   3.1127   3.1256   3.1441
  3.1657   3.1907   3.2038   3.2235   3.2873   3.2930   3.2963   3.3441
  3.3609   3.3662   3.3859   3.4366   3.4584   3.4647   3.5333   3.5533
  3.6109   3.6197   3.6452   3.6535   3.6684   3.6963   3.7093   3.7776
  3.8110   3.8129   3.8246   3.8537   3.8653   3.8710   3.8908   3.9133
  3.9416   3.9577   4.0069   4.0310   4.1048   4.1235   4.1420   4.1751
  4.1975   4.2144   4.2329   4.2490   4.2589   4.2962   4.3512   4.3854
  4.3981   4.4053   4.4651   4.5534   4.6476   4.7583   5.0399   5.1281
  5.1332   5.1376   5.1474   5.1594   5.1655   5.1696   5.1743   5.1774
  5.1895   5.2069   5.2266   5.2300   5.2339   5.2439   5.2701   5.2890
  5.2971   5.3049   5.3251   5.3372   5.3574   5.3825   5.3959   5.4415
  5.4720   5.4888   5.5088   5.5175   5.5287   5.5388   5.5523   5.5856
  5.5891   5.6061   5.6248   5.6274   5.6359   5.6610   5.6753   5.7367
  5.7929   5.8169   5.9253   5.9453   6.0299   6.0625   6.0991   6.1751
  6.3156   6.4667   6.5303   6.5782   6.7349   6.7513   6.8849   6.8978
  6.9294   6.9495   7.0004   7.0398   7.0471   7.0643   7.0651   7.0898
  7.1008   7.1255   7.1583   7.1898   7.2283   7.2605   7.2768   7.2900
  7.3050   7.3141   7.3317   7.3500   7.3625   7.4068   7.4425   7.4608
  7.5239   7.6099   7.6495   7.6544   7.6857   7.7777   7.7874   7.8019
  7.8267   7.9007   7.9236  24.7739  24.9264  25.1430  50.3964  50.5700
 50.6071  50.6231  50.7014  50.7493
 --------------------------------------------------------------
 
          Ground-State Mulliken Net Atomic Charges

     Atom                 Charge (a.u.)    Spin (a.u.)
  --------------------------------------------------------
      1 C                    -0.066153       0.002296
      2 O                    -0.367460       0.000213
      3 C                     0.194811       0.007590
      4 O                    -0.262388       0.002151
      5 C                    -0.065327      -0.000274
      6 O                    -0.302123      -0.000406
      7 H                     0.281366      -0.001051
      8 H                     0.348164       0.000004
      9 H                     0.188242      -0.000113
     10 H                     0.216928      -0.000333
     11 O                    -0.395959      -0.000134
     12 H                     0.346138       0.000064
     13 O                    -0.437965       0.007138
     14 O                    -0.383649       0.993993
     15 H                     0.354746      -0.000347
     16 H                     0.350628      -0.010790
  --------------------------------------------------------
  Sum of atomic charges =     0.000000
  Sum of spin   charges =     1.000000

 -----------------------------------------------------------------
                    Cartesian Multipole Moments
 -----------------------------------------------------------------
    Charge (ESU x 10^10)
                -0.0000
    Dipole Moment (Debye)
         X      -5.3340      Y       0.8578      Z       5.0493
       Tot       7.3948
    Quadrupole Moments (Debye-Ang)
        XX     -85.2288     XY      -4.9632     YY     -44.9579
        XZ      25.3982     YZ      -4.5673     ZZ     -67.1242
    Octopole Moments (Debye-Ang^2)
       XXX    -681.5007    XXY     -20.7149    XYY    -150.6601
       YYY      58.4603    XXZ     155.1598    XYZ     -17.4621
       YYZ      46.7723    XZZ    -225.8848    YZZ      25.8137
       ZZZ     124.0747
    Hexadecapole Moments (Debye-Ang^3)
      XXXX   -4581.1121   XXXY     -86.2181   XXYY    -702.7644
      XYYY     127.3991   YYYY    -707.9092   XXXZ     940.7301
      XXYZ    -100.9917   XYYZ     156.3960   YYYZ     -72.4237
      XXZZ    -932.8758   XYZZ      37.0159   YYZZ    -238.9920
      XZZZ     472.1365   YZZZ     -19.7017   ZZZZ    -577.4594
 -----------------------------------------------------------------
 Calculating analytic gradient of the SCF energy
 Gradient of CDS energy
            1           2           3           4           5           6
    1  -0.0025193   0.0013935   0.0015771  -0.0003477   0.0009219  -0.0009824
    2  -0.0015928  -0.0010592  -0.0011429   0.0009827   0.0013010   0.0001062
    3   0.0005709  -0.0019457   0.0022410  -0.0030392   0.0006701  -0.0000553
            7           8           9          10          11          12
    1   0.0001370  -0.0004702  -0.0000989   0.0001629   0.0010229  -0.0002488
    2   0.0001480  -0.0000149  -0.0002354  -0.0004919   0.0026744  -0.0004457
    3   0.0000060   0.0001788  -0.0000408  -0.0001991   0.0008171   0.0000735
           13          14          15          16
    1  -0.0008309  -0.0001697   0.0002591   0.0001935
    2  -0.0001680  -0.0001070  -0.0001189   0.0001645
    3   0.0006136  -0.0001631   0.0003237  -0.0000515
 Gradient of SCF Energy
            1           2           3           4           5           6
    1   0.0015679   0.0185664   0.0017997  -0.0135622   0.0123548   0.0056381
    2  -0.0046722  -0.0085791   0.0006534   0.0041936  -0.0039699  -0.0014942
    3   0.0070438   0.0108217  -0.0028868  -0.0004032  -0.0002643   0.0001484
            7           8           9          10          11          12
    1  -0.0033508  -0.0170283  -0.0067976  -0.0108184   0.0011736  -0.0010752
    2   0.0063232   0.0103355   0.0022822   0.0012200   0.0041324  -0.0067627
    3  -0.0029280  -0.0076806   0.0101081  -0.0103869  -0.0136863   0.0101637
           13          14          15          16
    1   0.0023339   0.0023491   0.0118381  -0.0049891
    2   0.0007284  -0.0027775  -0.0041610   0.0025479
    3  -0.0057573  -0.0028782   0.0059365   0.0026493
 Max gradient component =       1.857E-02
 RMS gradient           =       7.315E-03
 Computing fast CPCM-SWIG gradient
 Updating gradient with PCM contributions...
 -- total gradient after adding PCM contribution --
---------------------------------------------------
  Atom         X              Y              Z     
---------------------------------------------------
   1       0.000274      -0.000047      -0.000330
   2      -0.000225       0.001567      -0.000316
   3       0.000544       0.000261      -0.000861
   4       0.000809      -0.000253       0.000100
   5      -0.000049      -0.000839      -0.000241
   6      -0.000595      -0.000018       0.000155
   7      -0.000049       0.000189      -0.000273
   8       0.000409      -0.000685       0.000530
   9       0.000205      -0.000056      -0.000372
  10       0.000426      -0.000253       0.000078
  11       0.000338      -0.000012       0.000969
  12      -0.000072       0.000485      -0.000735
  13      -0.000506       0.000332       0.000773
  14      -0.001101      -0.000738       0.000606
  15      -0.000799       0.000157      -0.000225
  16       0.000392      -0.000092       0.000143
---------------------------------------------------
 Number of fixed atoms: 0
 Gradient time:  CPU 214.46 s  wall 18.71 s
 Geometry Optimization Parameters
   NAtoms,    NIC,     NZ,  NCons,   NDum,   NFix, NCnnct, MaxDiis
       16     172       0       0       0       0       0       0

 Cartesian Hessian Update
 Hessian updated using BFGS update


** GEOMETRY OPTIMIZATION IN DELOCALIZED INTERNAL COORDINATES **
   Searching for a Minimum

   Optimization Cycle:   3

                       Coordinates (Angstroms)
     ATOM                X               Y               Z
      1  C         2.3687804188   -1.1748854096   -0.8288327187
      2  O         1.6294931393   -0.5678945239    0.1941874026
      3  C         3.8071420060   -1.3419058549   -0.3443232859
      4  O         3.8806233688   -1.7376774444    0.9226700876
      5  C         2.8163501784    1.8620462910    0.2741405272
      6  O         3.9939783217    1.6116561962    0.1199436544
      7  H         2.3792811776   -0.5755735203   -1.7364440832
      8  H         0.7882058256   -0.2771139126   -0.1779702730
      9  H         2.3890213669    1.9818339096    1.2751834074
     10  H         2.1488356123    2.0046800796   -0.5833182934
     11  O         1.8565329710   -2.4335100178   -1.1909794337
     12  H         1.8357026104   -2.9973294788   -0.4070772352
     13  O         4.7658458828   -1.1846497572   -1.0625547281
     14  O         4.2129389989    1.0118973160   -2.6176914398
     15  H         4.8110476013   -1.8795573440    1.1585392744
     16  H         4.2529587200    1.2484815709   -1.6612443626
   Point Group: c1    Number of degrees of freedom:    42


   Energy is   -569.831223668

 Hessian updated using BFGS update

 42 Hessian modes will be used to form the next step
  Hessian Eigenvalues:
     0.006441    0.009895    0.011425    0.014873    0.020442    0.021834
     0.022642    0.024094    0.028307    0.033726    0.036708    0.040385
     0.045472    0.050110    0.055369    0.060387    0.065932    0.070474
     0.074754    0.082777    0.083048    0.099099    0.110151    0.121396
     0.132246    0.159348    0.160109    0.170263    0.255655    0.275202
     0.294677    0.303513    0.339308    0.396600    0.423495    0.453516
     0.491265    0.520662    0.562618    0.617115    0.840092    0.962257

 Minimum search - taking simple RFO step
 Searching for Lamda that Minimizes Along All modes
 Value Taken    Lamda =  -0.00017943
 Step Taken.  Stepsize is  0.152597

                             Maximum     Tolerance    Cnvgd?
         Gradient           0.000806      0.000300      NO
         Displacement       0.061802      0.001200      NO
         Energy change     -0.000105      0.000001      NO


 New Cartesian Coordinates Obtained by Inverse Iteration

 Displacement from previous Coordinates is:  0.128931
 ----------------------------------------------------------------
             Standard Nuclear Orientation (Angstroms)
    I     Atom           X                Y                Z
 ----------------------------------------------------------------
    1      C       2.3649583588    -1.1839924152    -0.8278686021
    2      O       1.6225402358    -0.5801468878     0.1928474931
    3      C       3.8036406545    -1.3499639824    -0.3423673355
    4      O       3.8764236477    -1.7356802945     0.9254484852
    5      C       2.8174086334     1.8806250645     0.2817841957
    6      O       3.9923968834     1.6321548961     0.1115988824
    7      H       2.3756012519    -0.5848164770    -1.7353142922
    8      H       0.7838470670    -0.2840836386    -0.1789496420
    9      H       2.4021168963     1.9931709945     1.2891674556
   10      H       2.1390774428     2.0260093307    -0.5669802800
   11      O       1.8573087757    -2.4440846718    -1.1941728159
   12      H       1.8446528446    -3.0133876149    -0.4148253582
   13      O       4.7591381630    -1.2009454075    -1.0657568448
   14      O       4.2307703844     1.0180640337    -2.6308408842
   15      H       4.8045048374    -1.8800698184     1.1664880969
   16      H       4.2623521234     1.2576449884    -1.6760300542
 ----------------------------------------------------------------
 Nuclear Repulsion Energy =         489.69683608 hartrees
 There are       37 alpha and       36 beta electrons
 Discretize the solute cavity surface with Lebedev spheres
	Using 110 Lebedev grid points for each H atom
	Using 194 Lebedev grid points for other atoms
	Atomic van der Waals radii will be scaled by 1.20
 Remove points where switching function is < 1.0e-08
 Keep 1434 surface tesserae and discard 1082 interior tesserae
 Molecular Surface Area = 164.284 Angst**2
 Applying Cartesian multipole field
    Component          Value
    ---------          -----
     (2,0,0)        1.00000E-11
     (0,2,0)        2.00000E-11
     (0,0,2)       -3.00000E-11
 Nucleus-field energy     =     0.0000000327 hartrees
 Requested basis set is 6-311++G(2df,2p)
 There are 114 shells and 376 basis functions
 A cutoff of  1.0D-12 yielded   5812 shell pairs
 There are     63027 function pairs (     78581 Cartesian)
 Smallest overlap matrix eigenvalue = 2.96E-05
 Guess MOs from SCF MO coefficient file

 -----------------------------------------------------------------------
  General SCF calculation program by
  Eric Jon Sundstrom, Paul Horn, Yuezhi Mao, Dmitri Zuev, Alec White,
  David Stuck, Shaama M.S., Shane Yost, Joonho Lee, David Small,
  Daniel Levine, Susi Lehtola, Hugh Burton, Evgeny Epifanovsky,
  Bang C. Huynh
 -----------------------------------------------------------------------
 Exchange:     0.1500 Hartree-Fock + 1.0000 wB97M-V + LR-HF
 Correlation:  1.0000 wB97M-V
 Using SG-2 standard quadrature grid
 Nonlocal Correlation:  VV10 with C = 0.0100 and b = 6.00 and scale = 1.00000
 Grid used for NLC:  SG-1 standard quadrature
 
 Citation of the SMD model:
 Marenich, A.V.; Cramer, C.J.; Truhlar, D.G.
 J. Phys. Chem. B 2009, 113, 6378-6396.
 iSolventCode=           1
 Solvent: water                                                           
 
 vradii
            1           2           3           4           5           6
    1   1.8500000   1.5200000   1.8500000   1.5200000   1.8500000   1.5200000
            7           8           9          10          11          12
    1   1.2000000   1.2000000   1.2000000   1.2000000   1.5200000   1.2000000
           13          14          15          16
    1   1.5200000   1.5200000   1.2000000   1.2000000
 -------------------------------------------------------
 OpenMP BLAS3 based DFT computing Module                
 Release: version 1.0, May 2013, Q-Chem Inc. Pittsburgh 
 -------------------------------------------------------
 A unrestricted SCF calculation will be
 performed using Roothaan-Hall, DIIS, GDM
 SCF converges when RMS gradient is below 1.0e-07
 ---------------------------------------
  Cycle       Energy         DIIS error
 ---------------------------------------
    1    -569.7851017214      2.80e-04  Roothaan Step
 ---------------------------------------
  Cycle       Energy         DIIS error
 ---------------------------------------
    1    -569.8305129600      3.27e-04  
    2    -569.8356437388      3.45e-04  Done DIIS. Switching to GDM
 ---------------------------------------
  Cycle       Energy        RMS Gradient
 ---------------------------------------
    1    -569.8356437388      2.06e-02   Normal BFGS step
    2    -569.8329497498      3.13e-02  Line search: overstep
    3    -569.8409718759      2.98e-03   Normal BFGS step
    4    -569.8412088544      1.11e-03   Normal BFGS step
    5    -569.8412452074      5.06e-04   Normal BFGS step
    6    -569.8412545985      1.61e-04   Normal BFGS step
    7    -569.8412551156      1.23e-04   Normal BFGS step
    8    -569.8412553769      9.30e-05   Normal BFGS step
    9    -569.8412554231      8.69e-05   Normal BFGS step
   10    -569.8412554629      8.43e-05   Normal BFGS step
   11    -569.8412555136      8.06e-05   Normal BFGS step
   12    -569.8412555680      1.01e-04   Normal BFGS step
   13    -569.8412556613      1.66e-04   Normal BFGS step
   14    -569.8412557805      1.94e-04   Normal BFGS step
   15    -569.8412559270      1.64e-04   Normal BFGS step
   16    -569.8412560342      7.80e-05   Normal BFGS step
   17    -569.8412560787      4.06e-05   Normal BFGS step
   18    -569.8412560867      1.08e-05   Normal BFGS step
   19    -569.8412560877      3.77e-06   Normal BFGS step
   20    -569.8412560880      1.75e-06   Normal BFGS step
   21    -569.8412560880      8.42e-07   Normal BFGS step
   22    -569.8412560880      3.45e-07   Normal BFGS step
   23    -569.8412560880      1.65e-07   Normal BFGS step
   24    -569.8412560880      4.78e-08  Convergence criterion met
 ---------------------------------------
 SCF time:   CPU 2149.57s  wall 148.00s 
<S^2> =          0.752956280
[...]
  7.8242   7.8995   7.9240  24.7731  24.9240  25.1446  50.3945  50.5734
 50.6021  50.6155  50.7014  50.7464
 --------------------------------------------------------------
 
          Ground-State Mulliken Net Atomic Charges

     Atom                 Charge (a.u.)    Spin (a.u.)
  --------------------------------------------------------
      1 C                    -0.041503      -0.002241
      2 O                    -0.366035       0.000045
      3 C                     0.173268       0.012277
      4 O                    -0.254262       0.001835
      5 C                    -0.074393      -0.000425
      6 O                    -0.298740      -0.000595
      7 H                     0.278023      -0.000310
      8 H                     0.342460       0.000006
      9 H                     0.189294      -0.000218
     10 H                     0.217910      -0.000174
     11 O                    -0.398721      -0.000040
     12 H                     0.347581       0.000025
     13 O                    -0.440011       0.002294
     14 O                    -0.405215       0.998366
     15 H                     0.352937      -0.000158
     16 H                     0.377407      -0.010688
  --------------------------------------------------------
  Sum of atomic charges =     0.000000
  Sum of spin   charges =     1.000000

 -----------------------------------------------------------------
                    Cartesian Multipole Moments
 -----------------------------------------------------------------
    Charge (ESU x 10^10)
                 0.0000
    Dipole Moment (Debye)
         X      -5.5859      Y       1.3028      Z       5.3112
       Tot       7.8171
    Quadrupole Moments (Debye-Ang)
        XX     -87.3963     XY      -3.6436     YY     -45.1872
        XZ      27.6072     YZ      -4.5198     ZZ     -68.1998
    Octopole Moments (Debye-Ang^2)
       XXX    -695.3172    XXY     -15.2056    XYY    -153.7775
       YYY      60.1592    XXZ     170.0881    XYZ     -16.4382
       YYZ      48.4251    XZZ    -232.7388    YZZ      28.0286
       ZZZ     127.3426
    Hexadecapole Moments (Debye-Ang^3)
      XXXX   -4683.9415   XXXY     -72.3654   XXYY    -731.4878
      XYYY     130.8853   YYYY    -709.0518   XXXZ    1043.8640
      XXYZ     -93.5889   XYYZ     168.1347   YYYZ     -74.8140
      XXZZ    -979.7161   XYZZ      39.3776   YYZZ    -247.8575
      XZZZ     503.8474   YZZZ     -23.4386   ZZZZ    -594.0251
 -----------------------------------------------------------------
 Calculating analytic gradient of the SCF energy
 Gradient of CDS energy
            1           2           3           4           5           6
    1  -0.0024933   0.0015562   0.0016793  -0.0004710   0.0008834  -0.0009519
    2  -0.0012087  -0.0010875  -0.0008862   0.0005918   0.0013110   0.0000713
    3   0.0008983  -0.0021986   0.0021724  -0.0030502   0.0006068   0.0000046
            7           8           9          10          11          12
    1   0.0001190  -0.0004696  -0.0000799   0.0000998   0.0008518  -0.0002489
    2   0.0001400  -0.0000258  -0.0001975  -0.0004651   0.0023072  -0.0004587
    3  -0.0000030   0.0001675  -0.0000381  -0.0001571   0.0007957   0.0000617
           13          14          15          16
    1  -0.0008379  -0.0000666   0.0002725   0.0001572
    2  -0.0000684  -0.0001125  -0.0000893   0.0001782
    3   0.0006852  -0.0002396   0.0003207  -0.0000263
 Gradient of SCF Energy
            1           2           3           4           5           6
    1   0.0010817   0.0188641   0.0015892  -0.0144856   0.0129825   0.0069599
    2  -0.0059632  -0.0115080   0.0005897   0.0044982  -0.0031623  -0.0016233
    3   0.0091247   0.0113888  -0.0026899   0.0001571  -0.0004823  -0.0001020
            7           8           9          10          11          12
    1  -0.0035486  -0.0174115  -0.0068016  -0.0125528   0.0005839  -0.0002566
    2   0.0076498   0.0123829   0.0024776   0.0017730   0.0047117  -0.0076769
    3  -0.0036692  -0.0085342   0.0115964  -0.0113915  -0.0145705   0.0108812
           13          14          15          16
    1   0.0026230   0.0036585   0.0126614  -0.0059471
    2  -0.0002731  -0.0024850  -0.0039765   0.0025853
    3  -0.0071431  -0.0035228   0.0057625   0.0031948
 Max gradient component =       1.886E-02
 RMS gradient           =       7.988E-03
 Computing fast CPCM-SWIG gradient
 Updating gradient with PCM contributions...
 -- total gradient after adding PCM contribution --
---------------------------------------------------
  Atom         X              Y              Z     
---------------------------------------------------
   1       0.000137       0.000093       0.000040
   2       0.000022       0.000023       0.000058
   3      -0.000075       0.000026      -0.000046
   4      -0.000014      -0.000008       0.000027
   5      -0.000013      -0.000025       0.000019
   6       0.000001       0.000061      -0.000099
   7      -0.000124      -0.000057      -0.000040
   8      -0.000018      -0.000005       0.000007
   9       0.000008      -0.000008      -0.000001
  10      -0.000013       0.000008       0.000002
  11      -0.000058      -0.000016       0.000023
  12       0.000045      -0.000036       0.000033
  13       0.000067      -0.000033      -0.000047
  14      -0.000046      -0.000038      -0.000028
  15       0.000051       0.000003      -0.000019
  16       0.000028       0.000012       0.000071
---------------------------------------------------
 Number of fixed atoms: 0
 Gradient time:  CPU 214.81 s  wall 18.48 s
 Geometry Optimization Parameters
   NAtoms,    NIC,     NZ,  NCons,   NDum,   NFix, NCnnct, MaxDiis
       16     172       0       0       0       0       0       0

 Cartesian Hessian Update
 Hessian updated using BFGS update


** GEOMETRY OPTIMIZATION IN DELOCALIZED INTERNAL COORDINATES **
   Searching for a Minimum

   Optimization Cycle:  24

                       Coordinates (Angstroms)
     ATOM                X               Y               Z
      1  C         2.3265989285   -1.2003247668   -0.8080398755
      2  O         1.5855263136   -0.6455998246    0.2411026411
      3  C         3.7775777768   -1.3618100507   -0.3598081852
      4  O         3.9058977228   -1.6120189808    0.9384698621
      5  C         2.7937628928    1.8686914797    0.2817583745
      6  O         3.9595764327    1.6011318364    0.0757606221
      7  H         2.3142253864   -0.5675307671   -1.6928316347
      8  H         0.7650516517   -0.2950855500   -0.1271510992
      9  H         2.4124031010    1.9869035545    1.3023563338
     10  H         2.0893227776    2.0232938564   -0.5444509349
     11  O         1.8321272808   -2.4539279610   -1.2153669942
     12  H         1.8390115753   -3.0516334791   -0.4556891397
     13  O         4.7025176426   -1.3188246093   -1.1375561095
     14  O         4.4672419019    1.0642761123   -2.6299426345
     15  H         4.8447327371   -1.7566367526    1.1411351766
     16  H         4.3211640785    1.2695940024   -1.6755179029
   Point Group: c1    Number of degrees of freedom:    42


   Energy is   -569.831726354

 Hessian updated using BFGS update

 42 Hessian modes will be used to form the next step
  Hessian Eigenvalues:
     0.000483    0.000995    0.001928    0.005748    0.009399    0.013395
     0.019420    0.020222    0.023548    0.024279    0.031049    0.032377
     0.036459    0.042552    0.047072    0.055340    0.055560    0.061453
     0.067851    0.069580    0.079978    0.090558    0.097974    0.114463
     0.128023    0.159808    0.163965    0.170802    0.256270    0.272938
     0.293597    0.303029    0.339187    0.386979    0.426830    0.454160
     0.490678    0.520618    0.563958    0.592785    0.840919    0.948193

 Minimum search - taking simple RFO step
 Searching for Lamda that Minimizes Along All modes
 Value Taken    Lamda =  -0.00000098
 Step Taken.  Stepsize is  0.018593

                             Maximum     Tolerance    Cnvgd?
         Gradient           0.000067      0.000300     YES
         Displacement       0.007456      0.001200      NO
         Energy change     -0.000001      0.000001     YES

 Final energy is   -569.831726354135     


 ******************************
 **  OPTIMIZATION CONVERGED  **
 ******************************

                       Coordinates (Angstroms)
     ATOM                X               Y               Z
      1  C         2.3265989285   -1.2003247668   -0.8080398755
      2  O         1.5855263136   -0.6455998246    0.2411026411
      3  C         3.7775777768   -1.3618100507   -0.3598081852
      4  O         3.9058977228   -1.6120189808    0.9384698621
      5  C         2.7937628928    1.8686914797    0.2817583745
      6  O         3.9595764327    1.6011318364    0.0757606221
      7  H         2.3142253864   -0.5675307671   -1.6928316347
      8  H         0.7650516517   -0.2950855500   -0.1271510992
      9  H         2.4124031010    1.9869035545    1.3023563338
     10  H         2.0893227776    2.0232938564   -0.5444509349
     11  O         1.8321272808   -2.4539279610   -1.2153669942
     12  H         1.8390115753   -3.0516334791   -0.4556891397
     13  O         4.7025176426   -1.3188246093   -1.1375561095
     14  O         4.4672419019    1.0642761123   -2.6299426345
     15  H         4.8447327371   -1.7566367526    1.1411351766
     16  H         4.3211640785    1.2695940024   -1.6755179029

Z-matrix Print:
$molecule
0 2
O 
H  1 0.965220
C  1 1.399146 2 107.946358
H  3 1.087859 1 111.914668 2 42.931730 0
O  3 1.407813 1 112.579505 2 -76.578482 0
H  5 0.966649 3 108.705972 1 -57.995346 0
C  3 1.527196 1 108.969868 2 162.455853 0
O  7 1.209237 3 122.289156 1 -151.067401 0
O  7 1.328381 3 113.487133 1 31.872716 0
H  9 0.971287 7 108.986425 3 176.537972 0
H  8 2.671094 7 93.140151 3 67.245187 0
O  11 0.987128 8 88.398030 7 -136.934692 0
O  11 1.818692 8 90.636089 7 39.938563 0
C  13 1.213732 11 113.240123 8 -109.863535 0
H  14 1.095915 13 121.069772 11 173.490751 0
H  14 1.096704 13 121.344331 11 -7.913714 0
$end

 
 --------------------------------------------------------------
 
                    Orbital Energies (a.u.)
 --------------------------------------------------------------
 
 Alpha MOs
 -- Occupied --
-19.3924 -19.3875 -19.3593 -19.3578 -19.3566 -19.3430 -10.4955 -10.4646
-10.4432  -1.2612  -1.2108  -1.2015  -1.1689  -1.1465  -1.1265  -0.8563
 -0.7532  -0.7514  -0.6763  -0.6456  -0.6258  -0.6199  -0.6100  -0.5912
 -0.5676  -0.5579  -0.5416  -0.5355  -0.5153  -0.5087  -0.4663  -0.4560
 -0.4515  -0.4419  -0.4188  -0.3980  -0.3861
 -- Virtual --
  0.0264   0.0332   0.0394   0.0481   0.0492   0.0651   0.0703   0.0766
  0.0820   0.0918   0.1052   0.1210   0.1295   0.1348   0.1391   0.1427
  0.1554   0.1602   0.1631   0.1771   0.1909   0.2064   0.2248   0.2300
  0.2468   0.2508   0.2578   0.2648   0.2741   0.2779   0.2791   0.2861
  0.2950   0.3027   0.3143   0.3176   0.3261   0.3329   0.3352   0.3428
  0.3518   0.3583   0.3675   0.3713   0.3774   0.3811   0.3936   0.4075
  0.4103   0.4142   0.4219   0.4347   0.4440   0.4586   0.4632   0.5058
  0.5246   0.5500   0.5689   0.5734   0.5882   0.6090   0.6129   0.6313
  0.6471   0.6569   0.6599   0.6759   0.6902   0.7006   0.7219   0.7318
  0.7463   0.7672   0.7772   0.7913   0.8119   0.8448   0.8475   0.8552
  0.8627   0.8811   0.9009   0.9145   0.9498   0.9586   0.9872   1.0130
  1.0245   1.0467   1.0633   1.0751   1.0794   1.0953   1.0969   1.1043
  1.1208   1.1428   1.1587   1.1641   1.1718   1.1758   1.1948   1.2047
  1.2181   1.2221   1.2351   1.2432   1.2696   1.2786   1.2882   1.2974
  1.3155   1.3376   1.3467   1.3640   1.3801   1.4049   1.4223   1.4508
  1.4591   1.4726   1.4998   1.5076   1.5312   1.5325   1.5493   1.5575
  1.5732   1.5901   1.6332   1.6370   1.6562   1.6997   1.7054   1.7349
  1.7529   1.7772   1.8072   1.8166   1.8542   1.8723   1.8914   1.9239
  1.9439   1.9510   1.9706   1.9951   2.0572   2.0923   2.1223   2.1486
  2.2102   2.2701   2.2878   2.2948   2.3355   2.3530   2.3659   2.4056
  2.4080   2.4603   2.4765   2.5234   2.5428   2.5865   2.6618   2.6865
  2.6966   2.7616   2.7771   2.8133   2.8817   2.9014   2.9059   2.9558
  2.9840   3.0131   3.0332   3.0686   3.1143   3.1213   3.1498   3.1616
  3.1710   3.2221   3.2267   3.2782   3.2888   3.2955   3.3397   3.3514
  3.3646   3.3927   3.4179   3.4527   3.4680   3.5250   3.5463   3.6022
  3.6104   3.6435   3.6583   3.6707   3.6919   3.6961   3.7607   3.7857
  3.8093   3.8199   3.8350   3.8563   3.8687   3.8909   3.9088   3.9181
  3.9536   4.0003   4.0264   4.1036   4.1210   4.1474   4.1732   4.1946
  4.2155   4.2185   4.2377   4.2534   4.2937   4.3570   4.3714   4.4007
  4.4113   4.4521   4.5402   4.6460   4.7615   5.0380   5.0478   5.0715
  5.0747   5.0775   5.0934   5.1377   5.1397   5.1586   5.1654   5.1739
  5.1902   5.1978   5.2223   5.2379   5.2423   5.2668   5.2767   5.2964
  5.3016   5.3212   5.3298   5.3530   5.3778   5.3939   5.4472   5.4607
  5.4791   5.5062   5.5144   5.5216   5.5365   5.5476   5.5583   5.5835
  5.5889   5.6001   5.6106   5.6222   5.6524   5.6785   5.7260   5.7901
  5.8136   5.9292   5.9462   6.0354   6.0505   6.1224   6.1656   6.3118
  6.4611   6.5229   6.5755   6.7382   6.7445   6.7662   6.7705   6.8789
  6.9289   6.9946   7.0001   7.0225   7.0485   7.0629   7.0686   7.0875
  7.1147   7.1372   7.1859   7.2313   7.2589   7.2712   7.2770   7.2978
  7.3031   7.3166   7.3455   7.3550   7.4130   7.4321   7.4542   7.5255
  7.6104   7.6205   7.6583   7.6623   7.7785   7.7820   7.7924   7.8233
  7.8993   7.9238  24.7731  24.9240  25.1446  50.3777  50.5733  50.6021
 50.6155  50.7015  50.7460
 
 Beta MOs
 -- Occupied --
-19.3923 -19.3631 -19.3594 -19.3578 -19.3566 -19.3425 -10.4955 -10.4646
-10.4432  -1.2609  -1.2108  -1.2015  -1.1682  -1.1465  -1.0562  -0.8562
 -0.7531  -0.7513  -0.6762  -0.6454  -0.6238  -0.6176  -0.6089  -0.5866
 -0.5673  -0.5413  -0.5379  -0.5342  -0.5151  -0.4658  -0.4550  -0.4434
 -0.4221  -0.4176  -0.3982  -0.3852
 -- Virtual --
 -0.0604   0.0265   0.0332   0.0396   0.0483   0.0502   0.0654   0.0720
  0.0770   0.0824   0.0927   0.1058   0.1212   0.1298   0.1354   0.1392
  0.1429   0.1557   0.1612   0.1646   0.1791   0.1915   0.2079   0.2256
  0.2303   0.2476   0.2515   0.2601   0.2648   0.2756   0.2797   0.2803
  0.2875   0.2961   0.3073   0.3145   0.3177   0.3268   0.3342   0.3355
  0.3445   0.3533   0.3591   0.3682   0.3721   0.3783   0.3815   0.3951
  0.4081   0.4108   0.4163   0.4232   0.4357   0.4446   0.4591   0.4646
  0.5073   0.5254   0.5500   0.5692   0.5737   0.5886   0.6092   0.6130
  0.6315   0.6472   0.6571   0.6604   0.6766   0.6917   0.7013   0.7223
  0.7322   0.7465   0.7675   0.7780   0.7917   0.8124   0.8450   0.8479
  0.8555   0.8637   0.8831   0.9024   0.9161   0.9512   0.9589   0.9901
  1.0156   1.0256   1.0475   1.0677   1.0769   1.0815   1.0975   1.1010
  1.1093   1.1219   1.1474   1.1598   1.1680   1.1728   1.1778   1.1987
  1.2119   1.2204   1.2314   1.2380   1.2468   1.2764   1.2813   1.2919
  1.2995   1.3164   1.3393   1.3475   1.3645   1.3849   1.4059   1.4241
  1.4545   1.4609   1.4739   1.5017   1.5120   1.5344   1.5491   1.5549
  1.5582   1.5986   1.6119   1.6444   1.6534   1.6682   1.7072   1.7155
  1.7413   1.7551   1.7843   1.8080   1.8177   1.8547   1.8731   1.8958
  1.9244   1.9508   1.9602   1.9747   2.0145   2.0578   2.0928   2.1227
  2.1498   2.2106   2.2726   2.2885   2.3038   2.3357   2.3532   2.3667
  2.4061   2.4083   2.4615   2.4829   2.5237   2.5437   2.5868   2.6622
  2.6881   2.6969   2.7618   2.7777   2.8134   2.8825   2.9022   2.9145
  2.9561   2.9887   3.0135   3.0334   3.0692   3.1143   3.1215   3.1499
  3.1617   3.1712   3.2222   3.2271   3.2783   3.2889   3.2957   3.3399
  3.3516   3.3649   3.3928   3.4181   3.4528   3.4682   3.5252   3.5468
  3.6024   3.6105   3.6436   3.6586   3.6711   3.6923   3.6966   3.7656
  3.7881   3.8107   3.8214   3.8390   3.8633   3.8715   3.8916   3.9093
  3.9223   3.9540   4.0006   4.0265   4.1039   4.1212   4.1476   4.1733
  4.1947   4.2156   4.2186   4.2378   4.2534   4.2938   4.3576   4.3715
  4.4088   4.4147   4.4525   4.5405   4.6461   4.7617   5.0399   5.1321
  5.1347   5.1360   5.1430   5.1559   5.1611   5.1674   5.1708   5.1759
  5.1876   5.2002   5.2122   5.2232   5.2393   5.2427   5.2702   5.2858
  5.2965   5.3024   5.3220   5.3314   5.3553   5.3799   5.3958   5.4486
  5.4742   5.4843   5.5067   5.5172   5.5219   5.5370   5.5486   5.5837
  5.6005   5.6052   5.6194   5.6237   5.6284   5.6529   5.6787   5.7263
  5.7904   5.8138   5.9296   5.9464   6.0356   6.0507   6.1226   6.1657
  6.3117   6.4618   6.5233   6.5755   6.7387   6.7491   6.8788   6.8885
  6.9199   6.9423   7.0013   7.0403   7.0493   7.0629   7.0679   7.0848
  7.0925   7.1192   7.1565   7.1885   7.2320   7.2592   7.2718   7.2914
  7.2985   7.3047   7.3181   7.3460   7.3552   7.4140   7.4359   7.4650
  7.5259   7.6110   7.6556   7.6626   7.6684   7.7801   7.7831   7.7937
  7.8242   7.8995   7.9240  24.7731  24.9240  25.1446  50.3945  50.5734
 50.6021  50.6155  50.7014  50.7464
 --------------------------------------------------------------
 
          Ground-State Mulliken Net Atomic Charges

     Atom                 Charge (a.u.)    Spin (a.u.)
  --------------------------------------------------------
      1 C                    -0.041503      -0.002241
      2 O                    -0.366035       0.000045
      3 C                     0.173268       0.012277
      4 O                    -0.254262       0.001835
      5 C                    -0.074393      -0.000425
      6 O                    -0.298740      -0.000595
      7 H                     0.278023      -0.000310
      8 H                     0.342460       0.000006
      9 H                     0.189294      -0.000218
     10 H                     0.217910      -0.000174
     11 O                    -0.398721      -0.000040
     12 H                     0.347581       0.000025
     13 O                    -0.440011       0.002294
     14 O                    -0.405215       0.998366
     15 H                     0.352937      -0.000158
     16 H                     0.377407      -0.010688
  --------------------------------------------------------
  Sum of atomic charges =     0.000000
  Sum of spin   charges =     1.000000

 -----------------------------------------------------------------
                    Cartesian Multipole Moments
 -----------------------------------------------------------------
    Charge (ESU x 10^10)
                 0.0000
    Dipole Moment (Debye)
         X      -5.5859      Y       1.3028      Z       5.3112
       Tot       7.8171
    Quadrupole Moments (Debye-Ang)
        XX     -87.3963     XY      -3.6436     YY     -45.1872
        XZ      27.6072     YZ      -4.5198     ZZ     -68.1998
    Octopole Moments (Debye-Ang^2)
       XXX    -695.3172    XXY     -15.2056    XYY    -153.7775
       YYY      60.1592    XXZ     170.0881    XYZ     -16.4382
       YYZ      48.4251    XZZ    -232.7388    YZZ      28.0286
       ZZZ     127.3426
    Hexadecapole Moments (Debye-Ang^3)
      XXXX   -4683.9415   XXXY     -72.3654   XXYY    -731.4878
      XYYY     130.8853   YYYY    -709.0518   XXXZ    1043.8640
      XXYZ     -93.5889   XYYZ     168.1347   YYYZ     -74.8140
      XXZZ    -979.7161   XYZZ      39.3776   YYZZ    -247.8575
      XZZZ     503.8474   YZZZ     -23.4386   ZZZZ    -594.0251
 -----------------------------------------------------------------
 Total job time:  4053.50s(wall), 57682.29s(cpu) 
 Tue Jun 25 17:17:12 2024

        *************************************************************
        *                                                           *
        *  Thank you very much for using Q-Chem.  Have a nice day.  *
        *                                                           *
        *************************************************************


