
Running Job 1 of 2 Q_in.in
qchem Q_in.in_256715.0 /scratch/ari.fischer/qChem2091691.hpc-mn1/qchem256715/ 0
/usr/local/qchem-5.4.1/exe/qcprog.exe_s Q_in.in_256715.0 /scratch/ari.fischer/qChem2091691.hpc-mn1/qchem256715/
                  Welcome to Q-Chem
     A Quantum Leap Into The Future Of Chemistry


 Q-Chem 5.4, Q-Chem, Inc., Pleasanton, CA (2021)

 License issued to: Nanyang Technological University (site)

 E. Epifanovsky,  A. T. B. Gilbert,  Xintian Feng,  Joonho Lee,  Yuezhi Mao,  
 N. Mardirossian,  P. Pokhilko,  A. White,  M. Wormit,  M. P. Coons,  
 A. L. Dempwolff,  Zhengting Gan,  D. Hait,  P. R. Horn,  L. D. Jacobson,  
 I. Kaliman,  J. Kussmann,  A. W. Lange,  Ka Un Lao,  D. S. Levine,  Jie Liu,  
 S. C. McKenzie,  A. F. Morrison,  K. Nanda,  F. Plasser,  D. R. Rehn,  
 M. L. Vidal,  Zhi-Qiang You,  Ying Zhu,  B. Alam,  B. Albrecht,  
 A. Aldossary,  E. Alguire,  J. H. Andersen,  D. Barton,  K. Begam,  A. Behn,  
 Y. A. Bernard,  E. J. Berquist,  H. Burton,  A. Carreras,  K. Carter-Fenk,  
 R. Chakraborty,  A. D. Chien,  K. D. Closser,  V. Cofer-Shabica,  
 S. Dasgupta,  Jia Deng,  M. de Wergifosse,  M. Diedenhofen,  Hainam Do,  
 S. Ehlert,  Po-Tung Fang,  S. Fatehi,  Qingguo Feng,  T. Friedhoff,  
 J. Gayvert,  Qinghui Ge,  G. Gidofalvi,  M. Goldey,  J. Gomes,  
 C. Gonzalez-Espinoza,  S. Gulania,  A. Gunina,  M. W. D. Hanson-Heine,  
 P. H. P. Harbach,  A. W. Hauser,  M. F. Herbst,  M. Hernandez Vera,  
 M. Hodecker,  Z. C. Holden,  S. Houck,  Xunkun Huang,  Kerwin Hui,  
 B. C. Huynh,  M. Ivanov,  Hyunjun Ji,  Hanjie Jiang,  B. Kaduk,  S. Kaehler,  
 K. Khistyaev,  Jaehoon Kim,  P. Klunzinger,  Z. Koczor-Benda,  
 Joong Hoon Koh,  D. Kosenkov,  L. Koulias,  T. Kowalczyk,  C. M. Krauter,  
 K. Kue,  A. Kunitsa,  T. Kus,  A. Landau,  K. V. Lawler,  D. Lefrancois,  
 S. Lehtola,  Rain Li,  Yi-Pei Li,  Jiashu Liang,  M. Liebenthal,  
 Hung-Hsuan Lin,  You-Sheng Lin,  Fenglai Liu,  Kuan-Yu Liu,  
 M. Loipersberger,  A. Luenser,  A. Manjanath,  P. Manohar,  E. Mansoor,  
 S. F. Manzer,  Shan-Ping Mao,  A. V. Marenich,  T. Markovich,  S. Mason,  
 S. A. Maurer,  P. F. McLaughlin,  M. F. S. J. Menger,  J.-M. Mewes,  
 S. A. Mewes,  P. Morgante,  J. W. Mullinax,  K. J. Oosterbaan,  G. Paran,  
 Alexander C. Paul,  Suranjan K. Paul,  F. Pavosevic,  Zheng Pei,  S. Prager,  
 E. I. Proynov,  E. Ramos,  B. Rana,  A. E. Rask,  A. Rettig,  R. M. Richard,  
 F. Rob,  E. Rossomme,  T. Scheele,  M. Scheurer,  M. Schneider,  
 N. Sergueev,  S. M. Sharada,  W. Skomorowski,  D. W. Small,  C. J. Stein,  
 Yu-Chuan Su,  E. J. Sundstrom,  Zhen Tao,  J. Thirman,  T. Tsuchimochi,  
 N. M. Tubman,  S. P. Veccham,  O. Vydrov,  J. Wenzel,  J. Witte,  A. Yamada,  
 Kun Yao,  S. Yeganeh,  S. R. Yost,  A. Zech,  Igor Ying Zhang,  Xing Zhang,  
 Yu Zhang,  D. Zuev,  A. Aspuru-Guzik,  A. T. Bell,  N. A. Besley,  
 K. B. Bravaya,  B. R. Brooks,  D. Casanova,  Jeng-Da Chai,  S. Coriani,  
 C. J. Cramer,  A. E. DePrince, III,  R. A. DiStasio Jr.,  A. Dreuw,  
 B. D. Dunietz,  T. R. Furlani,  W. A. Goddard III,  S. Grimme,  
 S. Hammes-Schiffer,  T. Head-Gordon,  W. J. Hehre,  Chao-Ping Hsu,  
 T.-C. Jagau,  Yousung Jung,  A. Klamt,  Jing Kong,  D. S. Lambrecht,  
 WanZhen Liang,  N. J. Mayhall,  C. W. McCurdy,  J. B. Neaton,  
 C. Ochsenfeld,  J. A. Parkhill,  R. Peverati,  V. A. Rassolov,  Yihan Shao,  
 L. V. Slipchenko,  T. Stauch,  R. P. Steele,  J. E. Subotnik,  
 A. J. W. Thom,  A. Tkatchenko,  D. G. Truhlar,  T. Van Voorhis,  
 T. A. Wesolowski,  K. B. Whaley,  H. L. Woodcock III,  P. M. Zimmerman,  
 S. Faraji,  P. M. W. Gill,  M. Head-Gordon,  J. M. Herbert,  A. I. Krylov

 Additional authors for Version 5.4.1: 
 S. Kotaru,  Shaozhi Li,  Xiangyuan Li,  F. Matz,  A. Molle,  Haisheng Ren,  
 Yingli Su,  Hung-Yi Tsai,  C. Utku,  Fang Wang

 Contributors to earlier versions of Q-Chem not listed above: 
 R. D. Adamson,  B. Austin,  R. Baer,  J. Baker,  G. J. O. Beran,  
 K. Brandhorst,  S. T. Brown,  E. F. C. Byrd,  A. K. Chakraborty,  
 G. K. L. Chan,  Chun-Min Chang,  Yunqing Chen,  C.-L. Cheng,  
 Siu Hung Chien,  D. M. Chipman,  D. L. Crittenden,  H. Dachsel,  
 R. J. Doerksen,  A. D. Dutoi,  R. G. Edgar,  J. Fosso-Tande,  
 L. Fusti-Molnar,  D. Ghosh,  A. Ghysels,  A. Golubeva-Zadorozhnaya,  
 J. Gonthier,  M. S. Gordon,  S. R. Gwaltney,  G. Hawkins,  J. E. Herr,  
 A. Heyden,  S. Hirata,  E. G. Hohenstein,  G. Kedziora,  F. J. Keil,  
 C. Kelley,  Jihan Kim,  R. A. King,  R. Z. Khaliullin,  P. P. Korambath,  
 W. Kurlancheek,  A. Laurent,  A. M. Lee,  M. S. Lee,  S. V. Levchenko,  
 Ching Yeh Lin,  D. Liotard,  E. Livshits,  R. C. Lochan,  I. Lotan,  
 L. A. Martinez-Martinez,  P. E. Maslen,  N. Nair,  D. P. O'Neill,  
 D. Neuhauser,  E. Neuscamman,  C. M. Oana,  R. Olivares-Amaya,  R. Olson,  
 T. M. Perrine,  B. Peters,  P. A. Pieniazek,  A. Prociuk,  Y. M. Rhee,  
 J. Ritchie,  M. A. Rohrdanz,  E. Rosta,  N. J. Russ,  H. F. Schaefer III,  
 M. W. Schmidt,  N. E. Schultz,  S. Sharma,  N. Shenvi,  C. D. Sherrill,  
 A. C. Simmonett,  A. Sodt,  T. Stein,  D. Stuck,  K. S. Thanthiriwatte,  
 V. Vanovschi,  L. Vogt,  Tao Wang,  A. Warshel,  M. A. Watson,  
 C. F. Williams,  Q. Wu,  X. Xu,  Jun Yang,  W. Zhang,  Yan Zhao

 Please cite Q-Chem as follows:
 Y. Shao et al., Mol. Phys. 113, 184-215 (2015)
 DOI: 10.1080/00268976.2014.952696

 Q-Chem 5.4.1 for Intel X86 EM64T Linux

 Parts of Q-Chem use Armadillo 9.800.1 (Horizon Scraper).
 http://arma.sourceforge.net/

 Q-Chem begins on Fri May 10 15:48:07 2024  

 Host: 
0

     Scratch files written to /scratch/ari.fischer/qChem2091691.hpc-mn1/qchem256715//
 Aug1521 |scratch|qcdevops|jenkins|workspace|build_RNUM 8249   
 Processing $rem in /usr/local/qchem-5.4.1/config/preferences:
 Processing $rem in /home/ari.fischer/.qchemrc:
 Symmetry turned off for PCM/SM12/SMD calculation


!!********************************************.
!!******************Warning*******************.
!!Desired Analytical derivatives not available.
!!Finite difference job might take a long time.
!!********************************************.
!!********************************************.


 2-order derivative to be evaluated numerically with 1-order analytical derivatives

 Checking the input file for inconsistencies... 	...done.

--------------------------------------------------------------
User input:
--------------------------------------------------------------
$molecule
0 2
C   -0.8449004    0.0274037    0.1053576
C   -2.3014371    0.0690531   -0.2180221
O   -3.0459823    0.0870730    1.0133565
C   -0.0691917   -1.1277357   -0.1454878
C    1.2482796   -1.1817184    0.1753519
C    1.9629601   -0.0400161    0.8220297
O    3.1110330    0.3699297    0.0390053
C    1.0958518    1.1579449    1.0155356
C   -0.2145905    1.1636298    0.6839271
H   -2.5816909   -0.8025010   -0.8114413
H   -2.5359368    0.9688900   -0.7923834
H   -3.9702530    0.2441393    0.7921560
H   -0.5468647   -1.9822553   -0.6096743
H    1.8317466   -2.0719214   -0.0237688
H    2.3435894   -0.3645159    1.8006061
H    3.7655398   -0.3359263    0.0911604
H    1.5648634    2.0343052    1.4438898
H   -0.8078870    2.0550135    0.8502014
O    0.6479997   -1.4694703    1.9205727
O   -0.4067055   -0.8006822    2.0629749
$end

$rem
BASIS = 6-311++G(2df,2p)
GUI = 2
JOB_TYPE = Frequency
METHOD = wB97M-V
SCF_ALGORITHM = DIIS_GDM
MAX_SCF_CYCLES = 400
SCF_CONVERGENCE = 6
THRESH = 11
solvent_method = SMD
$end

--------------------------------------------------------------
 ----------------------------------------------------------------
             Standard Nuclear Orientation (Angstroms)
    I     Atom           X                Y                Z
 ----------------------------------------------------------------
    1      C      -0.8449004000     0.0274037000     0.1053576000
    2      C      -2.3014371000     0.0690531000    -0.2180221000
    3      O      -3.0459823000     0.0870730000     1.0133565000
    4      C      -0.0691917000    -1.1277357000    -0.1454878000
    5      C       1.2482796000    -1.1817184000     0.1753519000
    6      C       1.9629601000    -0.0400161000     0.8220297000
    7      O       3.1110330000     0.3699297000     0.0390053000
    8      C       1.0958518000     1.1579449000     1.0155356000
    9      C      -0.2145905000     1.1636298000     0.6839271000
   10      H      -2.5816909000    -0.8025010000    -0.8114413000
   11      H      -2.5359368000     0.9688900000    -0.7923834000
   12      H      -3.9702530000     0.2441393000     0.7921560000
   13      H      -0.5468647000    -1.9822553000    -0.6096743000
   14      H       1.8317466000    -2.0719214000    -0.0237688000
   15      H       2.3435894000    -0.3645159000     1.8006061000
   16      H       3.7655398000    -0.3359263000     0.0911604000
   17      H       1.5648634000     2.0343052000     1.4438898000
   18      H      -0.8078870000     2.0550135000     0.8502014000
   19      O       0.6479997000    -1.4694703000     1.9205727000
   20      O      -0.4067055000    -0.8006822000     2.0629749000
 ----------------------------------------------------------------
 Nuclear Repulsion Energy =         655.77114531 hartrees
 There are       42 alpha and       41 beta electrons
 Requested basis set is 6-311++G(2df,2p)
 There are 142 shells and 464 basis functions

 Total QAlloc Memory Limit 288000 MB
 Mega-Array Size       188 MB
 MEM_STATIC part       192 MB
 
 Citation of the SMD model:
 Marenich, A.V.; Cramer, C.J.; Truhlar, D.G.
 J. Phys. Chem. B 2009, 113, 6378-6396.
 iSolventCode=           1
 Solvent: water                                                           
 
 vradii
            1           2           3           4           5           6
    1   1.8500000   1.8500000   1.5200000   1.8500000   1.8500000   1.8500000
            7           8           9          10          11          12
    1   1.5200000   1.8500000   1.8500000   1.2000000   1.2000000   1.2000000
           13          14          15          16          17          18
    1   1.2000000   1.2000000   1.2000000   1.2000000   1.2000000   1.2000000
           19          20
    1   1.5200000   1.5200000
 Changing PCM_VDW_RADII to SMD_RADIUS
 Discretize the solute cavity surface with Lebedev spheres
	Using 110 Lebedev grid points for each H atom
	Using 194 Lebedev grid points for other atoms
	Atomic van der Waals radii will be scaled by 1.20
 Remove points where switching function is < 1.0e-08
 Keep 1447 surface tesserae and discard 1677 interior tesserae
 Molecular Surface Area = 166.875 Angst**2
 A cutoff of  1.0D-11 yielded   8801 shell pairs
 There are     95059 function pairs (    118605 Cartesian)
 Smallest overlap matrix eigenvalue = 1.02E-06

 Q-Chem warning in module stvman/mkSTV.C, line 323:

 Overlap eigenvalue is smaller than square root of threshold
 Use THRESH >= 12 to get rid of this warning

 Guess from superposition of atomic densities
 Warning:  Energy on first SCF cycle will be non-variational
 SAD guess density has 83.000000 electrons

 -----------------------------------------------------------------------
  General SCF calculation program by
  Eric Jon Sundstrom, Paul Horn, Yuezhi Mao, Dmitri Zuev, Alec White,
  David Stuck, Shaama M.S., Shane Yost, Joonho Lee, David Small,
  Daniel Levine, Susi Lehtola, Hugh Burton, Evgeny Epifanovsky,
  Bang C. Huynh
 -----------------------------------------------------------------------
 Exchange:     0.1500 Hartree-Fock + 1.0000 wB97M-V + LR-HF
 Correlation:  1.0000 wB97M-V
 Using SG-2 standard quadrature grid
 Nonlocal Correlation:  VV10 with C = 0.0100 and b = 6.00 and scale = 1.00000
 Grid used for NLC:  SG-1 standard quadrature
 using 16 threads for integral computing
 -------------------------------------------------------
 OpenMP Integral computing Module                
 Release: version 1.0, May 2013, Q-Chem Inc. Pittsburgh 
 -------------------------------------------------------
 
 Citation of the SMD model:
 Marenich, A.V.; Cramer, C.J.; Truhlar, D.G.
 J. Phys. Chem. B 2009, 113, 6378-6396.
 iSolventCode=           1
 Solvent: water                                                           
 
 vradii
            1           2           3           4           5           6
    1   1.8500000   1.8500000   1.5200000   1.8500000   1.8500000   1.8500000
            7           8           9          10          11          12
    1   1.5200000   1.8500000   1.8500000   1.2000000   1.2000000   1.2000000
           13          14          15          16          17          18
    1   1.2000000   1.2000000   1.2000000   1.2000000   1.2000000   1.2000000
           19          20
    1   1.5200000   1.5200000
 -------------------------------------------------------
 OpenMP BLAS3 based DFT computing Module                
 Release: version 1.0, May 2013, Q-Chem Inc. Pittsburgh 
 -------------------------------------------------------
 A unrestricted SCF calculation will be
 performed using DIIS, GDM
 SCF converges when RMS gradient is below 1.0e-06
 ---------------------------------------
  Cycle       Energy         DIIS error
 ---------------------------------------
    1    -575.8198325205      1.17e-02  
    2    -572.6856251988      1.17e-03  Done DIIS. Switching to GDM
 ---------------------------------------
  Cycle       Energy        RMS Gradient
 ---------------------------------------
    1    -572.6856251988      4.76e-02   Descent step
    2    -572.7957900711      3.10e-02   Normal BFGS step
    3    -572.8118574953      2.31e-02   Normal BFGS step
    4    -572.8144642778      1.63e-02   Normal BFGS step
    5    -572.8162930434      9.83e-03   Normal BFGS step
    6    -572.8166360240      6.13e-03   Normal BFGS step
    7    -572.8168020209      4.75e-03   Normal BFGS step
    8    -572.8168794657      1.88e-03   Normal BFGS step
    9    -572.8169161731      2.44e-03   Normal BFGS step
   10    -572.8169472330      1.40e-03   Normal BFGS step
   11    -572.8169569387      5.20e-04   Normal BFGS step
   12    -572.8169609279      5.05e-04   Normal BFGS step
   13    -572.8169628728      3.80e-04   Normal BFGS step
   14    -572.8169634820      1.32e-04   Normal BFGS step
   15    -572.8169636096      7.89e-05   Normal BFGS step
   16    -572.8169636602      5.64e-05   Normal BFGS step
   17    -572.8169636817      3.74e-05   Normal BFGS step
   18    -572.8169636923      1.99e-05   Normal BFGS step
   19    -572.8169636969      1.51e-05   Normal BFGS step
   20    -572.8169636984      7.11e-06   Normal BFGS step
   21    -572.8169636986      2.71e-06   Normal BFGS step
   22    -572.8169636985      1.45e-06   Normal BFGS step
   23    -572.8169636982      1.40e-06   Normal BFGS step
   24    -572.8169636986      6.52e-07  Convergence criterion met
 ---------------------------------------
 SCF time:   CPU 3765.92s  wall 257.00s 
<S^2> =          0.768885966
(3)  G-ENP(liq) elect-nuc-pol free energy of system     -572.816963699 a.u.
(4)  G-CDS(liq) cavity-dispersion-solvent structure 
     free energy                                                3.2432 kcal/mol
(6)  G-S(liq) free energy of system                     -572.811795341 a.u.
 SCF   energy in the final basis set =     -572.8117953408
 Total energy in the final basis set =     -572.8117953408
 
 --------------------------------------------------------------
 
                    Orbital Energies (a.u.)
 --------------------------------------------------------------
 
 Alpha MOs
 -- Occupied --
-19.4327 -19.4147 -19.3402 -19.3398 -10.4072 -10.3917 -10.3827 -10.3787
-10.3528 -10.3502 -10.3371  -1.3501  -1.1569  -1.1546  -0.9919  -0.9572
 -0.8896  -0.8710  -0.8047  -0.7343  -0.7198  -0.6580  -0.6411  -0.6313
 -0.6114  -0.6043  -0.5933  -0.5831  -0.5757  -0.5388  -0.5285  -0.5246
 -0.4928  -0.4794  -0.4515  -0.4354  -0.4231  -0.3975  -0.3882  -0.3675
 -0.3589  -0.3162
 -- Virtual --
 -0.0072   0.0257   0.0321   0.0364   0.0516   0.0546   0.0562   0.0649
  0.0749   0.0784   0.0903   0.0990   0.1066   0.1177   0.1254   0.1331
  0.1373   0.1415   0.1487   0.1537   0.1588   0.1595   0.1615   0.1686
  0.1756   0.1810   0.1851   0.1900   0.1914   0.1942   0.2043   0.2122
  0.2155   0.2265   0.2380   0.2441   0.2489   0.2580   0.2596   0.2674
  0.2715   0.2779   0.2899   0.2930   0.2958   0.3052   0.3137   0.3167
  0.3203   0.3230   0.3304   0.3367   0.3481   0.3526   0.3590   0.3638
  0.3690   0.3755   0.3822   0.3948   0.3982   0.4029   0.4085   0.4111
  0.4224   0.4293   0.4413   0.4524   0.4589   0.4693   0.4704   0.4924
  0.5172   0.5393   0.5537   0.5661   0.5788   0.5845   0.5917   0.5967
  0.6042   0.6169   0.6276   0.6331   0.6423   0.6571   0.6697   0.6799
  0.6815   0.6979   0.7025   0.7108   0.7159   0.7299   0.7440   0.7497
  0.7549   0.7608   0.7722   0.7813   0.7948   0.8087   0.8223   0.8345
  0.8395   0.8440   0.8504   0.8511   0.8591   0.8869   0.9050   0.9139
  0.9221   0.9374   0.9610   0.9747   0.9848   1.0105   1.0155   1.0266
  1.0448   1.0669   1.0834   1.0992   1.1123   1.1204   1.1387   1.1412
  1.1618   1.1705   1.1778   1.1862   1.2023   1.2170   1.2233   1.2267
  1.2407   1.2478   1.2502   1.2704   1.2752   1.2903   1.3003   1.3025
  1.3217   1.3357   1.3447   1.3513   1.3584   1.3767   1.3833   1.3939
  1.4060   1.4098   1.4220   1.4229   1.4442   1.4489   1.4660   1.4774
  1.4815   1.4978   1.5092   1.5236   1.5360   1.5478   1.5558   1.5702
  1.5818   1.5875   1.6041   1.6257   1.6364   1.6407   1.6587   1.6777
  1.6978   1.7351   1.7631   1.7678   1.7802   1.8074   1.8249   1.8463
  1.8600   1.8800   1.8853   1.9409   1.9504   1.9880   1.9939   2.0189
  2.0339   2.0600   2.0855   2.1172   2.1433   2.1645   2.2021   2.2110
  2.2598   2.3007   2.3118   2.3227   2.3922   2.3990   2.4381   2.4501
  2.4836   2.5774   2.6460   2.6512   2.6795   2.7038   2.7199   2.7308
  2.7696   2.7841   2.8067   2.8286   2.8460   2.8544   2.8659   2.8852
  2.8903   2.8952   2.9218   2.9359   2.9537   2.9718   2.9882   3.0094
  3.0215   3.0259   3.0484   3.0526   3.0791   3.1064   3.1288   3.1439
  3.1597   3.1719   3.1851   3.2196   3.2280   3.2573   3.2672   3.2849
  3.2910   3.3208   3.3418   3.3536   3.3664   3.3795   3.3890   3.4094
  3.4400   3.4579   3.4604   3.4649   3.4802   3.4989   3.5269   3.5411
  3.5549   3.5766   3.5895   3.6001   3.6146   3.6400   3.6566   3.6626
  3.6708   3.7083   3.7248   3.7352   3.7456   3.7603   3.7671   3.7829
  3.8132   3.8214   3.8326   3.8423   3.8547   3.8590   3.8775   3.8938
  3.9223   3.9281   3.9386   3.9758   3.9950   4.0091   4.0180   4.0546
  4.0769   4.0879   4.1142   4.1305   4.1552   4.1808   4.1936   4.2227
  4.2316   4.2498   4.2808   4.3008   4.3144   4.3376   4.3522   4.3619
  4.3656   4.3962   4.4135   4.4202   4.4239   4.4475   4.4621   4.4711
  4.5165   4.5268   4.5618   4.5717   4.5937   4.6260   4.6397   4.6495
  4.6604   4.6827   4.7100   4.7391   4.7629   4.7754   4.8269   4.8578
  4.9166   4.9395   5.0149   5.0235   5.0283   5.0911   5.1161   5.1569
  5.1894   5.2045   5.2313   5.2487   5.2625   5.2803   5.2857   5.3012
  5.3104   5.3371   5.3443   5.3564   5.3698   5.3867   5.3894   5.4271
  5.4458   5.4695   5.4940   5.5203   5.5685   5.5737   5.5792   5.6238
  5.6543   5.6641   5.6740   5.6968   5.7128   5.7307   5.7865   5.8153
  5.8349   5.8772   5.9155   5.9438   5.9935   6.0068   6.1354   6.4230
  6.5707   6.6096   6.6737   6.7262   7.0061   7.0906   7.1086   7.1282
  7.1394   7.1610   7.1919   7.2895   7.3110   7.3231   7.3257   7.3477
  7.3653   7.3659   7.4033   7.4697   7.6419   7.6664   7.6733   7.8086
  7.8326   8.1650   8.2694  24.3724  24.6960  24.7876  24.8311  24.9394
 25.1484  25.3901  50.5644  50.5942  50.6008  50.6293
 
 Beta MOs
 -- Occupied --
-19.4182 -19.3970 -19.3401 -19.3399 -10.4069 -10.3917 -10.3837 -10.3795
-10.3528 -10.3499 -10.3366  -1.3200  -1.1565  -1.1547  -0.9909  -0.9330
 -0.8893  -0.8544  -0.8028  -0.7327  -0.7193  -0.6476  -0.6366  -0.6277
 -0.6006  -0.5897  -0.5820  -0.5717  -0.5373  -0.5345  -0.5259  -0.5193
 -0.4916  -0.4730  -0.4514  -0.4303  -0.4154  -0.3958  -0.3847  -0.3448
 -0.3139
 -- Virtual --
 -0.0099   0.0032   0.0259   0.0329   0.0366   0.0517   0.0548   0.0562
  0.0654   0.0753   0.0785   0.0903   0.0994   0.1070   0.1185   0.1255
  0.1339   0.1377   0.1416   0.1491   0.1537   0.1590   0.1595   0.1621
  0.1686   0.1761   0.1811   0.1862   0.1907   0.1922   0.1945   0.2045
  0.2124   0.2155   0.2267   0.2385   0.2451   0.2499   0.2588   0.2603
  0.2673   0.2717   0.2810   0.2902   0.2952   0.2982   0.3057   0.3148
  0.3180   0.3209   0.3235   0.3340   0.3391   0.3482   0.3531   0.3601
  0.3643   0.3696   0.3754   0.3834   0.3969   0.3993   0.4038   0.4090
  0.4123   0.4222   0.4300   0.4455   0.4543   0.4604   0.4699   0.4712
  0.4948   0.5177   0.5395   0.5541   0.5662   0.5796   0.5849   0.5921
  0.5975   0.6045   0.6169   0.6279   0.6335   0.6426   0.6571   0.6699
  0.6803   0.6816   0.6979   0.7028   0.7110   0.7160   0.7298   0.7441
  0.7504   0.7552   0.7618   0.7723   0.7828   0.7953   0.8086   0.8240
  0.8347   0.8395   0.8437   0.8506   0.8514   0.8594   0.8874   0.9060
  0.9146   0.9225   0.9383   0.9619   0.9752   0.9849   1.0126   1.0176
  1.0278   1.0487   1.0691   1.0844   1.1017   1.1133   1.1211   1.1402
  1.1428   1.1630   1.1718   1.1807   1.1898   1.2053   1.2210   1.2259
  1.2292   1.2439   1.2496   1.2522   1.2743   1.2783   1.2962   1.3041
  1.3113   1.3233   1.3385   1.3464   1.3544   1.3616   1.3780   1.3859
  1.3947   1.4075   1.4102   1.4254   1.4287   1.4477   1.4507   1.4691
  1.4785   1.4845   1.4986   1.5099   1.5246   1.5366   1.5488   1.5576
  1.5708   1.5823   1.5889   1.6069   1.6289   1.6379   1.6426   1.6620
  1.6883   1.6998   1.7367   1.7669   1.7708   1.7861   1.8097   1.8270
  1.8512   1.8664   1.8860   1.8927   1.9443   1.9541   1.9920   1.9966
  2.0209   2.0412   2.0633   2.0868   2.1225   2.1444   2.1666   2.2038
  2.2166   2.2668   2.3024   2.3199   2.3328   2.3953   2.4071   2.4447
  2.4536   2.4902   2.5770   2.6464   2.6516   2.6801   2.7040   2.7231
  2.7314   2.7729   2.7835   2.8066   2.8285   2.8458   2.8542   2.8666
  2.8843   2.8903   2.8947   2.9217   2.9358   2.9547   2.9719   2.9880
  3.0084   3.0213   3.0258   3.0484   3.0525   3.0770   3.1059   3.1281
  3.1436   3.1574   3.1714   3.1850   3.2189   3.2275   3.2574   3.2668
  3.2844   3.2907   3.3204   3.3411   3.3532   3.3657   3.3794   3.3883
  3.4092   3.4402   3.4576   3.4601   3.4647   3.4806   3.4991   3.5271
  3.5405   3.5548   3.5762   3.5890   3.5996   3.6147   3.6398   3.6559
  3.6617   3.6710   3.7079   3.7243   3.7341   3.7456   3.7606   3.7672
  3.7825   3.8131   3.8207   3.8330   3.8422   3.8541   3.8591   3.8774
  3.8939   3.9226   3.9277   3.9385   3.9754   3.9949   4.0085   4.0181
  4.0545   4.0767   4.0881   4.1141   4.1299   4.1549   4.1807   4.1936
  4.2227   4.2318   4.2498   4.2804   4.3013   4.3140   4.3375   4.3519
  4.3621   4.3654   4.3963   4.4138   4.4200   4.4236   4.4481   4.4631
  4.4711   4.5158   4.5260   4.5638   4.5723   4.5956   4.6285   4.6483
  4.6572   4.6725   4.6836   4.7100   4.7401   4.7725   4.7837   4.8386
  4.8621   4.9312   4.9430   5.0178   5.0284   5.0361   5.1002   5.1362
  5.1839   5.2183   5.2337   5.2440   5.2636   5.2864   5.2891   5.3157
  5.3205   5.3307   5.3487   5.3604   5.3770   5.3806   5.3963   5.3999
  5.4452   5.4509   5.4842   5.5103   5.5280   5.5696   5.5797   5.5852
  5.6239   5.6540   5.6645   5.6740   5.6981   5.7147   5.7590   5.7968
  5.8184   5.8460   5.8790   5.9156   5.9439   5.9934   6.0075   6.1353
  6.4225   6.5705   6.6129   6.7221   6.7444   7.0751   7.1056   7.1278
  7.1553   7.1938   7.2174   7.2428   7.3139   7.3167   7.3272   7.3288
  7.3680   7.3737   7.3924   7.4092   7.5144   7.6487   7.6717   7.6813
  7.8085   7.8342   8.1886   8.2855  24.3723  24.6959  24.7877  24.8311
 24.9389  25.1484  25.3900  50.5772  50.5947  50.6067  50.6352
 --------------------------------------------------------------
 
          Ground-State Mulliken Net Atomic Charges

     Atom                 Charge (a.u.)    Spin (a.u.)
  --------------------------------------------------------
      1 C                     1.045681      -0.073285
      2 C                    -0.689694      -0.002019
      3 O                    -0.405770      -0.001516
      4 C                    -0.717685       0.034524
      5 C                     0.020231      -0.043536
      6 C                    -0.871804       0.005192
      7 O                    -0.442618       0.004948
      8 C                     0.227779      -0.011218
      9 C                    -0.634461       0.031718
     10 H                     0.214195       0.000282
     11 H                     0.214995      -0.001535
     12 H                     0.327232      -0.000592
     13 H                     0.297135      -0.000878
     14 H                     0.331689       0.002671
     15 H                     0.277579       0.001762
     16 H                     0.320400      -0.000372
     17 H                     0.317481      -0.000019
     18 H                     0.307034       0.000394
     19 O                    -0.000417       0.457694
     20 O                    -0.138980       0.595784
  --------------------------------------------------------
  Sum of atomic charges =     0.000000
  Sum of spin   charges =     1.000000

 -----------------------------------------------------------------
                    Cartesian Multipole Moments
 -----------------------------------------------------------------
    Charge (ESU x 10^10)
                 0.0000
    Dipole Moment (Debye)
         X      -0.4853      Y      -0.9516      Z      -3.1560
       Tot       3.3318
    Quadrupole Moments (Debye-Ang)
        XX     -47.3288     XY     -10.7683     YY     -60.9594
        XZ      10.4658     YZ       5.7547     ZZ     -75.5756
    Octopole Moments (Debye-Ang^2)
       XXX     -49.3163    XXY     -11.4949    XYY      -4.1455
       YYY      26.4963    XXZ     -42.2552    XYZ       0.5844
       YYZ     -45.5115    XZZ       5.3692    YZZ      19.6128
       ZZZ    -148.6759
    Hexadecapole Moments (Debye-Ang^3)
      XXXX    -902.7780   XXXY    -118.3597   XXYY    -277.4709
      XYYY      -0.0038   YYYY    -381.8385   XXXZ      10.9013
      XXYZ      17.3145   XYYZ      -0.6996   YYYZ      52.4591
      XXZZ    -311.6794   XYZZ       7.0891   YYZZ    -156.7350
      XZZZ       2.5949   YZZZ      50.6094   ZZZZ    -534.8670
 -----------------------------------------------------------------
 Calculating analytic gradient of the SCF energy
 Gradient of CDS energy
            1           2           3           4           5           6
    1  -0.0000807  -0.0005421   0.0002894  -0.0000510   0.0001322   0.0002594
    2  -0.0001035  -0.0001977   0.0000434  -0.0001055  -0.0001422   0.0000313
    3   0.0004342  -0.0006629  -0.0000489  -0.0002152  -0.0000968  -0.0000518
            7           8           9          10          11          12
    1  -0.0002514   0.0001376  -0.0001425   0.0001614   0.0001052  -0.0004464
    2   0.0000238   0.0002475   0.0002108  -0.0001818   0.0002495   0.0000765
    3   0.0001008   0.0001332  -0.0001031   0.0000411   0.0001015   0.0002771
           13          14          15          16          17          18
    1  -0.0001339   0.0000857  -0.0000117   0.0004969   0.0001441  -0.0001415
    2  -0.0001166  -0.0001731  -0.0000882  -0.0000731   0.0001526   0.0001267
    3  -0.0000860   0.0000129   0.0001764  -0.0001130   0.0000627   0.0000170
           19          20
    1  -0.0000293   0.0000183
    2   0.0000652  -0.0000454
    3   0.0000302  -0.0000094
 Gradient of SCF Energy
            1           2           3           4           5           6
    1  -0.0296582   0.0144210   0.0124218   0.0520274  -0.0121028  -0.0301450
    2   0.0591734   0.0024408  -0.0041461  -0.0448456   0.0169900  -0.0172520
    3   0.0122337   0.0072145   0.0114477   0.0871498  -0.0288017   0.0154823
            7           8           9          10          11          12
    1  -0.0045137   0.0101980  -0.0231717  -0.0025961  -0.0054188  -0.0135823
    2   0.0136371  -0.0088490  -0.0284818  -0.0049725   0.0061420   0.0024506
    3  -0.0049357   0.0057604  -0.0045362  -0.0053079  -0.0043861  -0.0068224
           13          14          15          16          17          18
    1  -0.0025174   0.0072298   0.0040963   0.0087780  -0.0000261  -0.0017251
    2  -0.0057706  -0.0103610  -0.0025626  -0.0135199   0.0011155   0.0023345
    3  -0.0038545  -0.0004652   0.0066069   0.0020476   0.0023143  -0.0011196
           19          20
    1   0.0136122   0.0026727
    2   0.0168105   0.0196667
    3  -0.0390282  -0.0509999
 Max gradient component =       8.715E-02
 RMS gradient           =       2.155E-02
 Computing fast CPCM-SWIG gradient
 Updating gradient with PCM contributions...
 -- total gradient after adding PCM contribution --
---------------------------------------------------
  Atom         X              Y              Z     
---------------------------------------------------
   1      -0.023346       0.053734       0.012880
   2       0.006497       0.003507      -0.003241
   3      -0.002449      -0.000567       0.001732
   4       0.046913      -0.043478       0.086108
   5      -0.005101       0.008531      -0.031543
   6      -0.025060      -0.022165       0.019366
   7       0.003525      -0.001821      -0.000680
   8       0.013223      -0.005047       0.006776
   9      -0.027711      -0.026274      -0.003259
  10      -0.000572      -0.000196      -0.000309
  11      -0.002469       0.000002       0.000322
  12      -0.000478      -0.000344       0.000313
  13       0.000044      -0.000741      -0.000751
  14      -0.000343      -0.001343       0.001853
  15      -0.000165      -0.000592       0.003572
  16       0.000348      -0.000186      -0.000533
  17      -0.000265       0.000133       0.001120
  18      -0.000275       0.000087      -0.000410
  19       0.015786       0.014297      -0.040638
  20       0.001900       0.022464      -0.052678
---------------------------------------------------
 Number of fixed atoms: 0
 Gradient time:  CPU 436.31 s  wall 35.24 s
 ######################################################
 ######################################################
 # Starting finite difference calculation for IDERIV  #
 Finite diff step size:  1.88973e-03 a.u.
 ----------------------------------------------------------------
             Standard Nuclear Orientation (Angstroms)
    I     Atom           X                Y                Z
 ----------------------------------------------------------------
    1      C      -0.8439004000     0.0274037000     0.1053576000
    2      C      -2.3014371000     0.0690531000    -0.2180221000
    3      O      -3.0459823000     0.0870730000     1.0133565000
    4      C      -0.0691917000    -1.1277357000    -0.1454878000
    5      C       1.2482796000    -1.1817184000     0.1753519000
    6      C       1.9629601000    -0.0400161000     0.8220297000
    7      O       3.1110330000     0.3699297000     0.0390053000
    8      C       1.0958518000     1.1579449000     1.0155356000
    9      C      -0.2145905000     1.1636298000     0.6839271000
   10      H      -2.5816909000    -0.8025010000    -0.8114413000
   11      H      -2.5359368000     0.9688900000    -0.7923834000
   12      H      -3.9702530000     0.2441393000     0.7921560000
   13      H      -0.5468647000    -1.9822553000    -0.6096743000
   14      H       1.8317466000    -2.0719214000    -0.0237688000
   15      H       2.3435894000    -0.3645159000     1.8006061000
   16      H       3.7655398000    -0.3359263000     0.0911604000
   17      H       1.5648634000     2.0343052000     1.4438898000
   18      H      -0.8078870000     2.0550135000     0.8502014000
   19      O       0.6479997000    -1.4694703000     1.9205727000
   20      O      -0.4067055000    -0.8006822000     2.0629749000
 ----------------------------------------------------------------
 Nuclear Repulsion Energy =         655.77958175 hartrees
 There are       42 alpha and       41 beta electrons
 Discretize the solute cavity surface with Lebedev spheres
	Using 110 Lebedev grid points for each H atom
	Using 194 Lebedev grid points for other atoms
	Atomic van der Waals radii will be scaled by 1.20
 Remove points where switching function is < 1.0e-08
 Keep 1447 surface tesserae and discard 1677 interior tesserae
 Molecular Surface Area = 166.878 Angst**2
 Requested basis set is 6-311++G(2df,2p)
 There are 142 shells and 464 basis functions
 A cutoff of  1.0D-11 yielded   8801 shell pairs
 There are     95059 function pairs (    118605 Cartesian)
 Smallest overlap matrix eigenvalue = 1.02E-06

 Q-Chem warning in module stvman/mkSTV.C, line 323:

 Overlap eigenvalue is smaller than square root of threshold
 Use THRESH >= 12 to get rid of this warning

 Guess MOs from SCF MO coefficient file

 -----------------------------------------------------------------------
  General SCF calculation program by
  Eric Jon Sundstrom, Paul Horn, Yuezhi Mao, Dmitri Zuev, Alec White,
  David Stuck, Shaama M.S., Shane Yost, Joonho Lee, David Small,
  Daniel Levine, Susi Lehtola, Hugh Burton, Evgeny Epifanovsky,
  Bang C. Huynh
 -----------------------------------------------------------------------
 Exchange:     0.1500 Hartree-Fock + 1.0000 wB97M-V + LR-HF
 Correlation:  1.0000 wB97M-V
 Using SG-2 standard quadrature grid
 Nonlocal Correlation:  VV10 with C = 0.0100 and b = 6.00 and scale = 1.00000
 Grid used for NLC:  SG-1 standard quadrature
 
 Citation of the SMD model:
 Marenich, A.V.; Cramer, C.J.; Truhlar, D.G.
 J. Phys. Chem. B 2009, 113, 6378-6396.
 iSolventCode=           1
 Solvent: water                                                           
 
 vradii
            1           2           3           4           5           6
    1   1.8500000   1.8500000   1.5200000   1.8500000   1.8500000   1.8500000
            7           8           9          10          11          12
    1   1.5200000   1.8500000   1.8500000   1.2000000   1.2000000   1.2000000
           13          14          15          16          17          18
    1   1.2000000   1.2000000   1.2000000   1.2000000   1.2000000   1.2000000
           19          20
    1   1.5200000   1.5200000
 -------------------------------------------------------
 OpenMP BLAS3 based DFT computing Module                
 Release: version 1.0, May 2013, Q-Chem Inc. Pittsburgh 
 -------------------------------------------------------
 A unrestricted SCF calculation will be
 performed using Roothaan-Hall, DIIS, GDM
 SCF converges when RMS gradient is below 1.0e-06
 ---------------------------------------
  Cycle       Energy         DIIS error
 ---------------------------------------
    1    -572.7768482608      2.11e-04  Roothaan Step
 ---------------------------------------
  Cycle       Energy         DIIS error
 ---------------------------------------
    1    -572.8066726000      2.58e-04  
    2    -572.8113595787      2.72e-04  Done DIIS. Switching to GDM
 ---------------------------------------
  Cycle       Energy        RMS Gradient
 ---------------------------------------
    1    -572.8113595787      2.39e-02   Normal BFGS step
    2    -572.8069362732      4.02e-02  Line search: overstep
    3    -572.8166348690      4.38e-03   Normal BFGS step
    4    -572.8168195632      3.61e-03   Normal BFGS step
    5    -572.8169938842      5.59e-04   Normal BFGS step
    6    -572.8170024071      5.12e-04   Normal BFGS step
    7    -572.8170058183      2.12e-04   Normal BFGS step
    8    -572.8170062697      1.39e-04   Normal BFGS step
    9    -572.8170064241      1.00e-04   Normal BFGS step
   10    -572.8170064852      7.44e-05   Normal BFGS step
   11    -572.8170065195      5.07e-05   Normal BFGS step
   12    -572.8170065373      4.15e-05   Normal BFGS step
   13    -572.8170065444      2.35e-05   Normal BFGS step
   14    -572.8170065486      1.83e-05   Normal BFGS step
   15    -572.8170065507      9.24e-06   Normal BFGS step
   16    -572.8170065514      4.16e-06   Normal BFGS step
   17    -572.8170065515      2.66e-06   Normal BFGS step
   18    -572.8170065515      1.21e-06   Normal BFGS step
   19    -572.8170065513      6.45e-07  Convergence criterion met
 ---------------------------------------
 SCF time:   CPU 3235.80s  wall 221.00s 
<S^2> =          0.768847784
(3)  G-ENP(liq) elect-nuc-pol free energy of system     -572.817006551 a.u.
(4)  G-CDS(liq) cavity-dispersion-solvent structure 
     free energy                                                3.2431 kcal/mol
(6)  G-S(liq) free energy of system                     -572.811838345 a.u.
 SCF   energy in the final basis set =     -572.8118383453
 Total energy in the final basis set =     -572.8118383453
 
 --------------------------------------------------------------
 
                    Orbital Energies (a.u.)
 --------------------------------------------------------------
 
 Alpha MOs
 -- Occupied --
-19.4326 -19.4147 -19.3403 -19.3398 -10.4072 -10.3918 -10.3827 -10.3786
-10.3528 -10.3501 -10.3371  -1.3501  -1.1569  -1.1545  -0.9920  -0.9572
 -0.8896  -0.8709  -0.8047  -0.7344  -0.7198  -0.6580  -0.6411  -0.6313
 -0.6114  -0.6043  -0.5933  -0.5830  -0.5756  -0.5389  -0.5284  -0.5247
 -0.4928  -0.4794  -0.4513  -0.4355  -0.4232  -0.3975  -0.3882  -0.3675
 -0.3589  -0.3163
 -- Virtual --
 -0.0071   0.0257   0.0321   0.0364   0.0516   0.0546   0.0562   0.0649
  0.0749   0.0784   0.0903   0.0990   0.1066   0.1177   0.1254   0.1331
  0.1373   0.1415   0.1487   0.1537   0.1588   0.1595   0.1615   0.1687
  0.1756   0.1810   0.1851   0.1900   0.1914   0.1942   0.2043   0.2122
  0.2155   0.2265   0.2380   0.2441   0.2489   0.2580   0.2596   0.2674
  0.2715   0.2778   0.2899   0.2930   0.2958   0.3052   0.3137   0.3167
  0.3203   0.3230   0.3303   0.3367   0.3481   0.3526   0.3590   0.3638
  0.3690   0.3755   0.3822   0.3948   0.3982   0.4029   0.4085   0.4111
  0.4223   0.4293   0.4412   0.4524   0.4589   0.4693   0.4704   0.4924
  0.5172   0.5392   0.5538   0.5661   0.5788   0.5846   0.5916   0.5967
  0.6042   0.6169   0.6276   0.6331   0.6424   0.6572   0.6697   0.6799
  0.6815   0.6979   0.7024   0.7108   0.7159   0.7299   0.7439   0.7497
  0.7549   0.7608   0.7722   0.7813   0.7949   0.8086   0.8222   0.8345
  0.8394   0.8440   0.8504   0.8511   0.8592   0.8869   0.9050   0.9139
  0.9222   0.9374   0.9610   0.9747   0.9848   1.0105   1.0155   1.0266
  1.0448   1.0669   1.0834   1.0992   1.1123   1.1204   1.1387   1.1412
  1.1618   1.1705   1.1778   1.1862   1.2023   1.2170   1.2233   1.2267
  1.2407   1.2477   1.2503   1.2705   1.2752   1.2903   1.3003   1.3025
  1.3217   1.3356   1.3447   1.3513   1.3585   1.3767   1.3833   1.3939
  1.4060   1.4098   1.4220   1.4229   1.4442   1.4489   1.4659   1.4774
  1.4816   1.4978   1.5092   1.5237   1.5360   1.5478   1.5558   1.5702
  1.5818   1.5875   1.6041   1.6257   1.6365   1.6407   1.6588   1.6776
  1.6978   1.7350   1.7631   1.7679   1.7801   1.8074   1.8249   1.8462
  1.8600   1.8799   1.8853   1.9409   1.9503   1.9880   1.9939   2.0189
  2.0340   2.0600   2.0856   2.1173   2.1432   2.1644   2.2022   2.2110
  2.2598   2.3005   2.3118   2.3227   2.3921   2.3990   2.4380   2.4501
  2.4836   2.5774   2.6460   2.6512   2.6794   2.7037   2.7199   2.7308
  2.7696   2.7841   2.8067   2.8285   2.8461   2.8543   2.8657   2.8852
  2.8903   2.8952   2.9218   2.9359   2.9537   2.9717   2.9881   3.0093
  3.0216   3.0258   3.0484   3.0525   3.0791   3.1065   3.1289   3.1439
  3.1596   3.1719   3.1850   3.2197   3.2281   3.2574   3.2672   3.2846
  3.2910   3.3211   3.3418   3.3536   3.3665   3.3795   3.3890   3.4092
  3.4401   3.4579   3.4606   3.4650   3.4803   3.4990   3.5269   3.5412
  3.5549   3.5767   3.5895   3.6001   3.6146   3.6400   3.6567   3.6626
  3.6708   3.7083   3.7250   3.7351   3.7456   3.7603   3.7671   3.7829
  3.8132   3.8214   3.8326   3.8422   3.8545   3.8590   3.8774   3.8939
  3.9221   3.9280   3.9387   3.9757   3.9950   4.0092   4.0181   4.0547
  4.0768   4.0879   4.1142   4.1307   4.1552   4.1807   4.1934   4.2226
  4.2316   4.2498   4.2809   4.3007   4.3143   4.3377   4.3522   4.3621
  4.3656   4.3961   4.4134   4.4201   4.4238   4.4473   4.4621   4.4714
  4.5167   4.5272   4.5617   4.5716   4.5939   4.6261   4.6397   4.6494
  4.6603   4.6826   4.7099   4.7394   4.7630   4.7755   4.8270   4.8579
  4.9166   4.9396   5.0149   5.0233   5.0282   5.0913   5.1161   5.1570
  5.1896   5.2048   5.2312   5.2489   5.2625   5.2803   5.2858   5.3012
  5.3103   5.3372   5.3443   5.3564   5.3699   5.3868   5.3894   5.4272
  5.4457   5.4697   5.4940   5.5204   5.5686   5.5737   5.5792   5.6237
  5.6542   5.6642   5.6740   5.6967   5.7127   5.7307   5.7862   5.8156
  5.8349   5.8772   5.9155   5.9437   5.9934   6.0068   6.1358   6.4240
  6.5705   6.6096   6.6737   6.7262   7.0062   7.0906   7.1086   7.1282
  7.1394   7.1610   7.1919   7.2895   7.3109   7.3231   7.3257   7.3477
  7.3652   7.3659   7.4034   7.4697   7.6418   7.6663   7.6733   7.8086
  7.8326   8.1650   8.2695  24.3721  24.6963  24.7874  24.8301  24.9398
 25.1487  25.3913  50.5644  50.5941  50.6008  50.6293
 
 Beta MOs
 -- Occupied --
-19.4182 -19.3970 -19.3401 -19.3399 -10.4069 -10.3917 -10.3837 -10.3795
-10.3528 -10.3499 -10.3366  -1.3200  -1.1565  -1.1547  -0.9910  -0.9330
 -0.8893  -0.8544  -0.8027  -0.7327  -0.7193  -0.6476  -0.6366  -0.6276
 -0.6006  -0.5897  -0.5819  -0.5717  -0.5374  -0.5345  -0.5259  -0.5193
 -0.4915  -0.4731  -0.4512  -0.4304  -0.4154  -0.3959  -0.3847  -0.3449
 -0.3139
 -- Virtual --
 -0.0099   0.0033   0.0259   0.0329   0.0366   0.0517   0.0548   0.0562
  0.0654   0.0753   0.0785   0.0903   0.0994   0.1070   0.1185   0.1255
  0.1339   0.1377   0.1416   0.1491   0.1537   0.1590   0.1595   0.1621
  0.1686   0.1761   0.1811   0.1862   0.1907   0.1922   0.1945   0.2045
  0.2124   0.2155   0.2267   0.2385   0.2451   0.2499   0.2588   0.2603
  0.2673   0.2717   0.2810   0.2902   0.2952   0.2982   0.3058   0.3148
  0.3180   0.3209   0.3235   0.3340   0.3391   0.3482   0.3531   0.3601
  0.3643   0.3696   0.3754   0.3834   0.3969   0.3993   0.4038   0.4090
  0.4123   0.4222   0.4300   0.4454   0.4544   0.4605   0.4699   0.4712
  0.4948   0.5176   0.5394   0.5542   0.5661   0.5796   0.5850   0.5920
  0.5975   0.6045   0.6169   0.6279   0.6335   0.6426   0.6572   0.6699
  0.6803   0.6816   0.6979   0.7027   0.7110   0.7160   0.7298   0.7441
  0.7504   0.7552   0.7618   0.7723   0.7828   0.7953   0.8086   0.8240
  0.8347   0.8394   0.8437   0.8506   0.8515   0.8594   0.8874   0.9061
  0.9147   0.9225   0.9383   0.9619   0.9752   0.9849   1.0125   1.0176
  1.0278   1.0487   1.0691   1.0844   1.1016   1.1134   1.1211   1.1402
  1.1428   1.1630   1.1718   1.1807   1.1898   1.2053   1.2210   1.2259
  1.2292   1.2439   1.2496   1.2522   1.2743   1.2783   1.2962   1.3040
  1.3113   1.3233   1.3385   1.3464   1.3544   1.3616   1.3780   1.3859
  1.3947   1.4076   1.4102   1.4254   1.4287   1.4478   1.4507   1.4690
  1.4785   1.4845   1.4986   1.5099   1.5247   1.5367   1.5488   1.5576
  1.5708   1.5822   1.5890   1.6069   1.6289   1.6379   1.6426   1.6620
  1.6883   1.6998   1.7366   1.7670   1.7709   1.7860   1.8096   1.8270
  1.8512   1.8663   1.8860   1.8927   1.9443   1.9540   1.9921   1.9966
  2.0209   2.0412   2.0633   2.0869   2.1226   2.1443   2.1664   2.2038
  2.2167   2.2669   2.3023   2.3199   2.3328   2.3952   2.4070   2.4446
  2.4536   2.4902   2.5770   2.6463   2.6517   2.6800   2.7039   2.7231
  2.7314   2.7729   2.7835   2.8066   2.8284   2.8458   2.8542   2.8664
  2.8843   2.8903   2.8947   2.9217   2.9358   2.9547   2.9719   2.9879
  3.0082   3.0214   3.0257   3.0484   3.0524   3.0771   3.1060   3.1282
  3.1436   3.1573   3.1714   3.1850   3.2190   3.2277   3.2575   3.2668
  3.2842   3.2906   3.3207   3.3411   3.3532   3.3658   3.3794   3.3882
  3.4091   3.4403   3.4576   3.4602   3.4648   3.4807   3.4992   3.5271
  3.5406   3.5548   3.5763   3.5890   3.5996   3.6147   3.6398   3.6560
  3.6618   3.6710   3.7079   3.7244   3.7341   3.7456   3.7605   3.7672
  3.7826   3.8131   3.8207   3.8330   3.8422   3.8540   3.8590   3.8773
  3.8940   3.9224   3.9277   3.9386   3.9754   3.9948   4.0086   4.0182
  4.0545   4.0766   4.0881   4.1140   4.1300   4.1549   4.1807   4.1934
  4.2226   4.2317   4.2498   4.2804   4.3012   4.3139   4.3376   4.3519
  4.3623   4.3653   4.3963   4.4137   4.4200   4.4235   4.4480   4.4632
  4.4714   4.5160   4.5265   4.5637   4.5722   4.5958   4.6285   4.6483
  4.6570   4.6725   4.6835   4.7099   4.7405   4.7727   4.7837   4.8387
  4.8622   4.9313   4.9430   5.0178   5.0282   5.0362   5.1004   5.1362
  5.1843   5.2183   5.2337   5.2442   5.2636   5.2864   5.2891   5.3157
  5.3205   5.3307   5.3487   5.3604   5.3770   5.3806   5.3964   5.3999
  5.4453   5.4508   5.4843   5.5103   5.5281   5.5696   5.5797   5.5852
  5.6238   5.6540   5.6646   5.6740   5.6980   5.7146   5.7589   5.7963
  5.8190   5.8459   5.8790   5.9156   5.9438   5.9933   6.0075   6.1357
  6.4234   6.5704   6.6129   6.7221   6.7444   7.0752   7.1056   7.1278
  7.1553   7.1938   7.2175   7.2428   7.3138   7.3167   7.3272   7.3287
  7.3680   7.3737   7.3924   7.4093   7.5144   7.6486   7.6717   7.6813
  7.8085   7.8342   8.1886   8.2855  24.3720  24.6962  24.7875  24.8302
 24.9393  25.1487  25.3912  50.5772  50.5947  50.6067  50.6352
 --------------------------------------------------------------
 
          Ground-State Mulliken Net Atomic Charges

     Atom                 Charge (a.u.)    Spin (a.u.)
  --------------------------------------------------------
      1 C                     1.045868      -0.073232
      2 C                    -0.689890      -0.001979
      3 O                    -0.405818      -0.001509
      4 C                    -0.717623       0.034421
      5 C                     0.020100      -0.043488
      6 C                    -0.871656       0.005194
      7 O                    -0.442596       0.004947
      8 C                     0.227874      -0.011192
      9 C                    -0.634544       0.031738
     10 H                     0.214164       0.000282
     11 H                     0.214995      -0.001525
     12 H                     0.327238      -0.000589
     13 H                     0.297157      -0.000876
     14 H                     0.331666       0.002672
     15 H                     0.277586       0.001763
     16 H                     0.320397      -0.000371
     17 H                     0.317456      -0.000020
     18 H                     0.307100       0.000394
     19 O                    -0.000447       0.457624
     20 O                    -0.139026       0.595745
  --------------------------------------------------------
  Sum of atomic charges =     0.000000
  Sum of spin   charges =     1.000000

 -----------------------------------------------------------------
                    Cartesian Multipole Moments
 -----------------------------------------------------------------
    Charge (ESU x 10^10)
                 0.0000
    Dipole Moment (Debye)
         X      -0.4827      Y      -0.9511      Z      -3.1565
       Tot       3.3318
    Quadrupole Moments (Debye-Ang)
        XX     -47.3336     XY     -10.7674     YY     -60.9559
        XZ      10.4649     YZ       5.7574     ZZ     -75.5760
    Octopole Moments (Debye-Ang^2)
       XXX     -49.3137    XXY     -11.4951    XYY      -4.1514
       YYY      26.4984    XXZ     -42.2545    XYZ       0.5832
       YYZ     -45.5122    XZZ       5.3676    YZZ      19.6149
       ZZZ    -148.6796
    Hexadecapole Moments (Debye-Ang^3)
      XXXX    -902.7614   XXXY    -118.3551   XXYY    -277.4685
      XYYY      -0.0017   YYYY    -381.8084   XXXZ      10.8957
      XXYZ      17.3171   XYYZ      -0.7050   YYYZ      52.4716
      XXZZ    -311.6794   XYZZ       7.0895   YYZZ    -156.7334
      XZZZ       2.5923   YZZZ      50.6204   ZZZZ    -534.8742
 -----------------------------------------------------------------
 Calculating analytic gradient of the SCF energy
 Gradient of CDS energy
            1           2           3           4           5           6
    1  -0.0000799  -0.0005430   0.0002894  -0.0000509   0.0001321   0.0002594
    2  -0.0001040  -0.0001975   0.0000434  -0.0001051  -0.0001422   0.0000313
    3   0.0004345  -0.0006634  -0.0000488  -0.0002151  -0.0000969  -0.0000518
            7           8           9          10          11          12
    1  -0.0002514   0.0001376  -0.0001426   0.0001615   0.0001052  -0.0004463
    2   0.0000238   0.0002476   0.0002105  -0.0001818   0.0002495   0.0000765
    3   0.0001008   0.0001331  -0.0001033   0.0000412   0.0001016   0.0002772
           13          14          15          16          17          18
    1  -0.0001339   0.0000857  -0.0000117   0.0004969   0.0001441  -0.0001415
    2  -0.0001167  -0.0001731  -0.0000882  -0.0000731   0.0001526   0.0001267
    3  -0.0000860   0.0000129   0.0001764  -0.0001130   0.0000627   0.0000170
           19          20
    1  -0.0000293   0.0000184
    2   0.0000652  -0.0000454
    3   0.0000302  -0.0000093
 Gradient of SCF Energy
            1           2           3           4           5           6
    1  -0.0284690   0.0139799   0.0123652   0.0517126  -0.0121474  -0.0301481
    2   0.0591389   0.0024336  -0.0041403  -0.0446814   0.0170615  -0.0172567
    3   0.0123952   0.0071254   0.0114649   0.0871908  -0.0288305   0.0154971
            7           8           9          10          11          12
    1  -0.0045145   0.0101746  -0.0234560  -0.0026134  -0.0054305  -0.0135814
    2   0.0136372  -0.0089055  -0.0286455  -0.0049645   0.0061390   0.0024495
    3  -0.0049351   0.0057224  -0.0046180  -0.0053114  -0.0043888  -0.0068189
           13          14          15          16          17          18
    1  -0.0024992   0.0072218   0.0040989   0.0087796  -0.0000329  -0.0017054
    2  -0.0057950  -0.0103638  -0.0025632  -0.0135209   0.0011222   0.0023662
    3  -0.0038663  -0.0004723   0.0066076   0.0020470   0.0023091  -0.0011061
           19          20
    1   0.0135832   0.0026819
    2   0.0168246   0.0196640
    3  -0.0390184  -0.0509935
 Max gradient component =       8.719E-02
 RMS gradient           =       2.151E-02
 Computing fast CPCM-SWIG gradient
 Updating gradient with PCM contributions...
 -- total gradient after adding PCM contribution --
---------------------------------------------------
  Atom         X              Y              Z     
---------------------------------------------------
   1      -0.022168       0.053689       0.013056
   2       0.006070       0.003503      -0.003322
   3      -0.002502      -0.000561       0.001749
   4       0.046597      -0.043309       0.086137
   5      -0.005152       0.008596      -0.031568
   6      -0.025057      -0.022167       0.019378
   7       0.003525      -0.001822      -0.000681
   8       0.013186      -0.005105       0.006743
   9      -0.027978      -0.026431      -0.003349
  10      -0.000591      -0.000192      -0.000316
  11      -0.002482       0.000004       0.000316
  12      -0.000482      -0.000345       0.000316
  13       0.000062      -0.000761      -0.000760
  14      -0.000352      -0.001344       0.001847
  15      -0.000164      -0.000593       0.003571
  16       0.000348      -0.000186      -0.000534
  17      -0.000273       0.000137       0.001114
  18      -0.000255       0.000115      -0.000398
  19       0.015755       0.014311      -0.040627
  20       0.001912       0.022461      -0.052672
---------------------------------------------------
 Number of fixed atoms: 0
 Gradient time:  CPU 437.03 s  wall 35.49 s
 ----------------------------------------------------------------
             Standard Nuclear Orientation (Angstroms)
    I     Atom           X                Y                Z
 ----------------------------------------------------------------
    1      C      -0.8459004000     0.0274037000     0.1053576000
    2      C      -2.3014371000     0.0690531000    -0.2180221000
    3      O      -3.0459823000     0.0870730000     1.0133565000
    4      C      -0.0691917000    -1.1277357000    -0.1454878000
    5      C       1.2482796000    -1.1817184000     0.1753519000
    6      C       1.9629601000    -0.0400161000     0.8220297000
    7      O       3.1110330000     0.3699297000     0.0390053000
    8      C       1.0958518000     1.1579449000     1.0155356000
    9      C      -0.2145905000     1.1636298000     0.6839271000
   10      H      -2.5816909000    -0.8025010000    -0.8114413000
   11      H      -2.5359368000     0.9688900000    -0.7923834000
   12      H      -3.9702530000     0.2441393000     0.7921560000
   13      H      -0.5468647000    -1.9822553000    -0.6096743000
   14      H       1.8317466000    -2.0719214000    -0.0237688000
   15      H       2.3435894000    -0.3645159000     1.8006061000
   16      H       3.7655398000    -0.3359263000     0.0911604000
   17      H       1.5648634000     2.0343052000     1.4438898000
   18      H      -0.8078870000     2.0550135000     0.8502014000
   19      O       0.6479997000    -1.4694703000     1.9205727000
   20      O      -0.4067055000    -0.8006822000     2.0629749000
 ----------------------------------------------------------------
 Nuclear Repulsion Energy =         655.76272229 hartrees
 There are       42 alpha and       41 beta electrons
 Discretize the solute cavity surface with Lebedev spheres
	Using 110 Lebedev grid points for each H atom
	Using 194 Lebedev grid points for other atoms
	Atomic van der Waals radii will be scaled by 1.20
 Remove points where switching function is < 1.0e-08
 Keep 1447 surface tesserae and discard 1677 interior tesserae
 Molecular Surface Area = 166.872 Angst**2
 Requested basis set is 6-311++G(2df,2p)
 There are 142 shells and 464 basis functions
 A cutoff of  1.0D-11 yielded   8801 shell pairs
 There are     95059 function pairs (    118605 Cartesian)
 Smallest overlap matrix eigenvalue = 1.02E-06

 Q-Chem warning in module stvman/mkSTV.C, line 323:

 Overlap eigenvalue is smaller than square root of threshold
 Use THRESH >= 12 to get rid of this warning

 Guess MOs from SCF MO coefficient file

 -----------------------------------------------------------------------
  General SCF calculation program by
  Eric Jon Sundstrom, Paul Horn, Yuezhi Mao, Dmitri Zuev, Alec White,
  David Stuck, Shaama M.S., Shane Yost, Joonho Lee, David Small,
  Daniel Levine, Susi Lehtola, Hugh Burton, Evgeny Epifanovsky,
  Bang C. Huynh
 -----------------------------------------------------------------------
 Exchange:     0.1500 Hartree-Fock + 1.0000 wB97M-V + LR-HF
 Correlation:  1.0000 wB97M-V
 Using SG-2 standard quadrature grid
 Nonlocal Correlation:  VV10 with C = 0.0100 and b = 6.00 and scale = 1.00000
 Grid used for NLC:  SG-1 standard quadrature
 
 Citation of the SMD model:
 Marenich, A.V.; Cramer, C.J.; Truhlar, D.G.
 J. Phys. Chem. B 2009, 113, 6378-6396.
 iSolventCode=           1
 Solvent: water                                                           
 
 vradii
            1           2           3           4           5           6
    1   1.8500000   1.8500000   1.5200000   1.8500000   1.8500000   1.8500000
            7           8           9          10          11          12
    1   1.5200000   1.8500000   1.8500000   1.2000000   1.2000000   1.2000000
           13          14          15          16          17          18
    1   1.2000000   1.2000000   1.2000000   1.2000000   1.2000000   1.2000000
           19          20
    1   1.5200000   1.5200000
 -------------------------------------------------------
 OpenMP BLAS3 based DFT computing Module                
 Release: version 1.0, May 2013, Q-Chem Inc. Pittsburgh 
 -------------------------------------------------------
 A unrestricted SCF calculation will be
 performed using Roothaan-Hall, DIIS, GDM
 SCF converges when RMS gradient is below 1.0e-06
 ---------------------------------------
  Cycle       Energy         DIIS error
 ---------------------------------------
    1    -572.7767439468      2.11e-04  Roothaan Step
 ---------------------------------------
  Cycle       Energy         DIIS error
 ---------------------------------------
    1    -572.8065599646      2.58e-04  
    2    -572.8112341737      2.73e-04  Done DIIS. Switching to GDM
 ---------------------------------------
  Cycle       Energy        RMS Gradient
 ---------------------------------------
    1    -572.8112341737      2.40e-02   Normal BFGS step
    2    -572.8067681489      4.03e-02  Line search: overstep
    3    -572.8165464716      4.39e-03   Normal BFGS step
    4    -572.8167307263      3.63e-03   Normal BFGS step
    5    -572.8169059851      5.53e-04   Normal BFGS step
    6    -572.8169144920      5.12e-04   Normal BFGS step
    7    -572.8169179074      2.09e-04   Normal BFGS step
    8    -572.8169183520      1.30e-04   Normal BFGS step
    9    -572.8169185014      9.70e-05   Normal BFGS step
   10    -572.8169185582      7.23e-05   Normal BFGS step
   11    -572.8169185893      4.65e-05   Normal BFGS step
   12    -572.8169186053      3.93e-05   Normal BFGS step
   13    -572.8169186117      2.18e-05   Normal BFGS step
   14    -572.8169186156      1.74e-05   Normal BFGS step
   15    -572.8169186176      9.44e-06   Normal BFGS step
   16    -572.8169186183      4.01e-06   Normal BFGS step
   17    -572.8169186184      2.49e-06   Normal BFGS step
   18    -572.8169186183      1.34e-06   Normal BFGS step
   19    -572.8169186181      7.67e-07  Convergence criterion met
 ---------------------------------------
 SCF time:   CPU 3219.97s  wall 220.00s 
<S^2> =          0.768924989
(3)  G-ENP(liq) elect-nuc-pol free energy of system     -572.816918618 a.u.
(4)  G-CDS(liq) cavity-dispersion-solvent structure 
     free energy                                                3.2433 kcal/mol
(6)  G-S(liq) free energy of system                     -572.811750107 a.u.
 SCF   energy in the final basis set =     -572.8117501071
 Total energy in the final basis set =     -572.8117501071
 
 --------------------------------------------------------------
 
                    Orbital Energies (a.u.)
 --------------------------------------------------------------
 
 Alpha MOs
 -- Occupied --
-19.4327 -19.4147 -19.3402 -19.3398 -10.4072 -10.3917 -10.3827 -10.3787
-10.3528 -10.3502 -10.3372  -1.3501  -1.1569  -1.1546  -0.9918  -0.9572
 -0.8896  -0.8710  -0.8048  -0.7343  -0.7197  -0.6580  -0.6411  -0.6313
 -0.6115  -0.6043  -0.5933  -0.5831  -0.5758  -0.5388  -0.5285  -0.5246
 -0.4929  -0.4794  -0.4516  -0.4353  -0.4231  -0.3975  -0.3882  -0.3675
 -0.3588  -0.3162
 -- Virtual --
 -0.0072   0.0257   0.0321   0.0364   0.0516   0.0546   0.0562   0.0649
  0.0749   0.0784   0.0903   0.0990   0.1066   0.1177   0.1254   0.1331
  0.1373   0.1415   0.1487   0.1537   0.1588   0.1595   0.1615   0.1686
  0.1756   0.1810   0.1851   0.1900   0.1914   0.1942   0.2043   0.2122
  0.2154   0.2265   0.2380   0.2441   0.2489   0.2579   0.2596   0.2674
  0.2715   0.2779   0.2899   0.2930   0.2958   0.3052   0.3137   0.3167
  0.3203   0.3230   0.3304   0.3367   0.3481   0.3526   0.3591   0.3638
  0.3690   0.3754   0.3822   0.3948   0.3982   0.4029   0.4085   0.4111
  0.4224   0.4293   0.4413   0.4524   0.4589   0.4693   0.4704   0.4924
  0.5172   0.5393   0.5537   0.5662   0.5788   0.5844   0.5917   0.5967
  0.6042   0.6169   0.6276   0.6331   0.6423   0.6570   0.6697   0.6799
  0.6815   0.6979   0.7025   0.7108   0.7159   0.7299   0.7440   0.7497
  0.7549   0.7608   0.7722   0.7813   0.7948   0.8087   0.8223   0.8345
  0.8395   0.8440   0.8504   0.8510   0.8591   0.8869   0.9050   0.9139
  0.9221   0.9375   0.9610   0.9746   0.9848   1.0105   1.0155   1.0266
  1.0448   1.0669   1.0835   1.0992   1.1122   1.1204   1.1387   1.1412
  1.1618   1.1705   1.1778   1.1862   1.2023   1.2170   1.2234   1.2267
  1.2407   1.2478   1.2502   1.2704   1.2752   1.2903   1.3003   1.3026
  1.3216   1.3357   1.3448   1.3512   1.3584   1.3766   1.3833   1.3939
  1.4060   1.4098   1.4220   1.4229   1.4441   1.4489   1.4661   1.4774
  1.4815   1.4979   1.5093   1.5236   1.5359   1.5479   1.5558   1.5702
  1.5818   1.5874   1.6041   1.6257   1.6364   1.6407   1.6587   1.6777
  1.6978   1.7351   1.7631   1.7676   1.7802   1.8075   1.8248   1.8463
  1.8601   1.8800   1.8853   1.9410   1.9505   1.9879   1.9938   2.0189
  2.0339   2.0600   2.0855   2.1172   2.1434   2.1647   2.2021   2.2110
  2.2597   2.3008   2.3119   2.3227   2.3922   2.3990   2.4381   2.4501
  2.4836   2.5774   2.6461   2.6512   2.6795   2.7039   2.7199   2.7308
  2.7696   2.7842   2.8067   2.8287   2.8460   2.8544   2.8660   2.8852
  2.8904   2.8952   2.9218   2.9359   2.9536   2.9719   2.9883   3.0096
  3.0213   3.0259   3.0484   3.0526   3.0790   3.1064   3.1287   3.1439
  3.1598   3.1719   3.1851   3.2195   3.2278   3.2571   3.2672   3.2851
  3.2910   3.3206   3.3418   3.3536   3.3662   3.3795   3.3891   3.4095
  3.4399   3.4579   3.4603   3.4648   3.4801   3.4989   3.5269   3.5411
  3.5549   3.5765   3.5895   3.6001   3.6146   3.6401   3.6565   3.6626
  3.6708   3.7082   3.7246   3.7352   3.7456   3.7603   3.7671   3.7829
  3.8133   3.8214   3.8326   3.8423   3.8548   3.8591   3.8775   3.8937
  3.9225   3.9281   3.9385   3.9758   3.9951   4.0090   4.0179   4.0546
  4.0770   4.0878   4.1143   4.1304   4.1552   4.1808   4.1938   4.2229
  4.2316   4.2498   4.2808   4.3008   4.3145   4.3375   4.3521   4.3617
  4.3657   4.3962   4.4136   4.4202   4.4239   4.4476   4.4620   4.4708
  4.5163   4.5263   4.5619   4.5718   4.5936   4.6260   4.6397   4.6495
  4.6606   4.6828   4.7100   4.7387   4.7628   4.7752   4.8268   4.8576
  4.9166   4.9395   5.0148   5.0236   5.0284   5.0909   5.1161   5.1568
  5.1893   5.2042   5.2315   5.2485   5.2626   5.2803   5.2856   5.3012
  5.3104   5.3371   5.3443   5.3563   5.3698   5.3866   5.3894   5.4271
  5.4460   5.4693   5.4940   5.5202   5.5685   5.5737   5.5792   5.6239
  5.6543   5.6640   5.6740   5.6969   5.7129   5.7307   5.7869   5.8149
  5.8350   5.8772   5.9155   5.9440   5.9936   6.0068   6.1349   6.4221
  6.5708   6.6095   6.6737   6.7262   7.0060   7.0906   7.1087   7.1282
  7.1394   7.1610   7.1918   7.2895   7.3111   7.3231   7.3258   7.3476
  7.3653   7.3659   7.4033   7.4697   7.6419   7.6664   7.6733   7.8087
  7.8326   8.1650   8.2694  24.3727  24.6957  24.7879  24.8321  24.9390
 25.1481  25.3889  50.5644  50.5942  50.6008  50.6293
 
 Beta MOs
 -- Occupied --
-19.4182 -19.3970 -19.3401 -19.3399 -10.4069 -10.3916 -10.3836 -10.3796
-10.3528 -10.3499 -10.3367  -1.3200  -1.1564  -1.1548  -0.9909  -0.9330
 -0.8893  -0.8545  -0.8028  -0.7326  -0.7192  -0.6476  -0.6366  -0.6277
 -0.6006  -0.5898  -0.5820  -0.5717  -0.5373  -0.5345  -0.5259  -0.5192
 -0.4916  -0.4730  -0.4516  -0.4302  -0.4153  -0.3958  -0.3846  -0.3448
 -0.3139
 -- Virtual --
 -0.0099   0.0032   0.0259   0.0329   0.0366   0.0517   0.0548   0.0562
  0.0654   0.0753   0.0785   0.0903   0.0994   0.1070   0.1185   0.1255
  0.1338   0.1377   0.1416   0.1491   0.1537   0.1590   0.1595   0.1621
  0.1686   0.1761   0.1811   0.1862   0.1908   0.1922   0.1945   0.2045
  0.2124   0.2155   0.2267   0.2385   0.2451   0.2499   0.2588   0.2603
  0.2673   0.2717   0.2810   0.2902   0.2952   0.2981   0.3057   0.3148
  0.3180   0.3209   0.3235   0.3340   0.3391   0.3482   0.3531   0.3601
  0.3643   0.3696   0.3754   0.3834   0.3969   0.3993   0.4037   0.4089
  0.4124   0.4223   0.4300   0.4455   0.4543   0.4604   0.4699   0.4712
  0.4948   0.5177   0.5396   0.5541   0.5662   0.5796   0.5848   0.5921
  0.5975   0.6045   0.6169   0.6278   0.6335   0.6425   0.6571   0.6699
  0.6803   0.6816   0.6979   0.7028   0.7110   0.7160   0.7298   0.7442
  0.7504   0.7552   0.7618   0.7723   0.7828   0.7952   0.8086   0.8240
  0.8347   0.8395   0.8438   0.8506   0.8514   0.8593   0.8874   0.9060
  0.9146   0.9224   0.9384   0.9619   0.9752   0.9849   1.0126   1.0176
  1.0278   1.0487   1.0691   1.0844   1.1017   1.1133   1.1211   1.1401
  1.1428   1.1629   1.1718   1.1807   1.1898   1.2052   1.2210   1.2259
  1.2292   1.2438   1.2497   1.2523   1.2742   1.2783   1.2962   1.3041
  1.3113   1.3233   1.3386   1.3464   1.3544   1.3616   1.3780   1.3859
  1.3947   1.4075   1.4102   1.4254   1.4287   1.4477   1.4507   1.4693
  1.4784   1.4844   1.4987   1.5099   1.5246   1.5366   1.5489   1.5576
  1.5708   1.5823   1.5889   1.6069   1.6288   1.6379   1.6426   1.6620
  1.6884   1.6998   1.7367   1.7669   1.7707   1.7861   1.8097   1.8269
  1.8512   1.8664   1.8860   1.8927   1.9444   1.9542   1.9920   1.9965
  2.0209   2.0412   2.0633   2.0868   2.1224   2.1445   2.1668   2.2037
  2.2166   2.2668   2.3025   2.3200   2.3328   2.3953   2.4071   2.4447
  2.4536   2.4902   2.5770   2.6464   2.6516   2.6801   2.7041   2.7231
  2.7313   2.7729   2.7836   2.8067   2.8286   2.8457   2.8543   2.8668
  2.8843   2.8904   2.8948   2.9217   2.9359   2.9546   2.9720   2.9881
  3.0086   3.0212   3.0258   3.0485   3.0525   3.0770   3.1058   3.1280
  3.1435   3.1574   3.1713   3.1850   3.2188   3.2274   3.2573   3.2668
  3.2846   3.2907   3.3202   3.3411   3.3532   3.3655   3.3794   3.3883
  3.4093   3.4401   3.4576   3.4600   3.4646   3.4805   3.4990   3.5271
  3.5405   3.5548   3.5761   3.5890   3.5996   3.6147   3.6399   3.6558
  3.6617   3.6710   3.7078   3.7241   3.7341   3.7456   3.7606   3.7672
  3.7825   3.8132   3.8207   3.8329   3.8422   3.8542   3.8591   3.8774
  3.8938   3.9228   3.9278   3.9384   3.9755   3.9949   4.0084   4.0180
  4.0545   4.0767   4.0880   4.1141   4.1298   4.1549   4.1807   4.1938
  4.2228   4.2318   4.2498   4.2804   4.3013   4.3141   4.3374   4.3518
  4.3619   4.3654   4.3964   4.4139   4.4201   4.4237   4.4482   4.4630
  4.4708   4.5156   4.5256   4.5639   4.5724   4.5955   4.6285   4.6483
  4.6573   4.6725   4.6838   4.7100   4.7398   4.7724   4.7836   4.8385
  4.8620   4.9312   4.9430   5.0178   5.0287   5.0361   5.1001   5.1362
  5.1835   5.2183   5.2336   5.2439   5.2637   5.2863   5.2890   5.3158
  5.3205   5.3307   5.3488   5.3603   5.3771   5.3805   5.3963   5.3999
  5.4450   5.4510   5.4841   5.5102   5.5280   5.5695   5.5797   5.5853
  5.6240   5.6541   5.6644   5.6741   5.6983   5.7148   5.7590   5.7974
  5.8179   5.8461   5.8790   5.9156   5.9441   5.9935   6.0075   6.1349
  6.4215   6.5707   6.6129   6.7221   6.7444   7.0751   7.1056   7.1278
  7.1553   7.1938   7.2174   7.2428   7.3140   7.3167   7.3272   7.3288
  7.3680   7.3738   7.3924   7.4092   7.5144   7.6487   7.6717   7.6813
  7.8085   7.8342   8.1886   8.2855  24.3726  24.6956  24.7879  24.8321
 24.9385  25.1481  25.3888  50.5772  50.5948  50.6067  50.6352
 --------------------------------------------------------------
 
          Ground-State Mulliken Net Atomic Charges

     Atom                 Charge (a.u.)    Spin (a.u.)
  --------------------------------------------------------
      1 C                     1.045486      -0.073340
      2 C                    -0.689489      -0.002058
      3 O                    -0.405722      -0.001523
      4 C                    -0.717746       0.034629
      5 C                     0.020365      -0.043585
      6 C                    -0.871952       0.005189
      7 O                    -0.442640       0.004949
      8 C                     0.227684      -0.011246
      9 C                    -0.634385       0.031701
     10 H                     0.214226       0.000283
     11 H                     0.214995      -0.001544
     12 H                     0.327225      -0.000596
     13 H                     0.297113      -0.000881
     14 H                     0.331711       0.002670
     15 H                     0.277573       0.001761
     16 H                     0.320404      -0.000373
     17 H                     0.317507      -0.000019
     18 H                     0.306967       0.000393
     19 O                    -0.000389       0.457762
     20 O                    -0.138932       0.595827
  --------------------------------------------------------
  Sum of atomic charges =     0.000000
  Sum of spin   charges =     1.000000

 -----------------------------------------------------------------
                    Cartesian Multipole Moments
 -----------------------------------------------------------------
    Charge (ESU x 10^10)
                 0.0000
    Dipole Moment (Debye)
         X      -0.4879      Y      -0.9521      Z      -3.1554
       Tot       3.3318
    Quadrupole Moments (Debye-Ang)
        XX     -47.3240     XY     -10.7692     YY     -60.9629
        XZ      10.4667     YZ       5.7520     ZZ     -75.5752
    Octopole Moments (Debye-Ang^2)
       XXX     -49.3189    XXY     -11.4947    XYY      -4.1396
       YYY      26.4942    XXZ     -42.2559    XYZ       0.5856
       YYZ     -45.5109    XZZ       5.3709    YZZ      19.6106
       ZZZ    -148.6721
    Hexadecapole Moments (Debye-Ang^3)
      XXXX    -902.7945   XXXY    -118.3645   XXYY    -277.4732
      XYYY      -0.0058   YYYY    -381.8686   XXXZ      10.9068
      XXYZ      17.3119   XYYZ      -0.6941   YYYZ      52.4465
      XXZZ    -311.6793   XYZZ       7.0887   YYZZ    -156.7366
      XZZZ       2.5975   YZZZ      50.5985   ZZZZ    -534.8597
 -----------------------------------------------------------------
 Calculating analytic gradient of the SCF energy
 Gradient of CDS energy
            1           2           3           4           5           6
    1  -0.0000815  -0.0005412   0.0002894  -0.0000510   0.0001322   0.0002594
    2  -0.0001031  -0.0001979   0.0000433  -0.0001059  -0.0001421   0.0000313
    3   0.0004339  -0.0006624  -0.0000489  -0.0002153  -0.0000967  -0.0000518
            7           8           9          10          11          12
    1  -0.0002514   0.0001377  -0.0001423   0.0001613   0.0001052  -0.0004464
    2   0.0000238   0.0002475   0.0002111  -0.0001818   0.0002494   0.0000765
    3   0.0001008   0.0001332  -0.0001030   0.0000411   0.0001013   0.0002770
           13          14          15          16          17          18
    1  -0.0001339   0.0000857  -0.0000117   0.0004969   0.0001441  -0.0001415
    2  -0.0001166  -0.0001731  -0.0000882  -0.0000731   0.0001526   0.0001266
    3  -0.0000860   0.0000129   0.0001764  -0.0001130   0.0000627   0.0000170
           19          20
    1  -0.0000293   0.0000182
    2   0.0000652  -0.0000455
    3   0.0000302  -0.0000094
 Gradient of SCF Energy
            1           2           3           4           5           6
    1  -0.0308496   0.0148647   0.0124785   0.0523417  -0.0120583  -0.0301420
    2   0.0592071   0.0024479  -0.0041518  -0.0450089   0.0169186  -0.0172472
    3   0.0120720   0.0073042   0.0114303   0.0871088  -0.0287731   0.0154675
            7           8           9          10          11          12
    1  -0.0045130   0.0102214  -0.0228875  -0.0025788  -0.0054071  -0.0135831
    2   0.0136371  -0.0087927  -0.0283185  -0.0049804   0.0061449   0.0024517
    3  -0.0049363   0.0057986  -0.0044547  -0.0053043  -0.0043834  -0.0068258
           13          14          15          16          17          18
    1  -0.0025355   0.0072378   0.0040938   0.0087765  -0.0000194  -0.0017449
    2  -0.0057461  -0.0103584  -0.0025619  -0.0135189   0.0011089   0.0023027
    3  -0.0038427  -0.0004581   0.0066063   0.0020483   0.0023195  -0.0011331
           19          20
    1   0.0136410   0.0026637
    2   0.0167965   0.0196694
    3  -0.0390379  -0.0510063
 Max gradient component =       8.711E-02
 RMS gradient           =       2.159E-02
 Computing fast CPCM-SWIG gradient
 Updating gradient with PCM contributions...
 -- total gradient after adding PCM contribution --
---------------------------------------------------
  Atom         X              Y              Z     
---------------------------------------------------
   1      -0.024527       0.053778       0.012703
   2       0.006925       0.003512      -0.003159
   3      -0.002396      -0.000573       0.001716
   4       0.047229      -0.043647       0.086079
   5      -0.005051       0.008467      -0.031519
   6      -0.025063      -0.022163       0.019355
   7       0.003524      -0.001820      -0.000680
   8       0.013261      -0.004989       0.006810
   9      -0.027445      -0.026117      -0.003170
  10      -0.000553      -0.000199      -0.000302
  11      -0.002456      -0.000001       0.000329
  12      -0.000475      -0.000344       0.000309
  13       0.000026      -0.000720      -0.000741
  14      -0.000335      -0.001343       0.001858
  15      -0.000167      -0.000592       0.003573
  16       0.000348      -0.000187      -0.000533
  17      -0.000257       0.000130       0.001126
  18      -0.000294       0.000058      -0.000423
  19       0.015816       0.014283      -0.040648
  20       0.001889       0.022467      -0.052684
---------------------------------------------------
 Number of fixed atoms: 0
 Gradient time:  CPU 436.65 s  wall 35.56 s
 ----------------------------------------------------------------
             Standard Nuclear Orientation (Angstroms)
    I     Atom           X                Y                Z
 ----------------------------------------------------------------
    1      C      -0.8449004000     0.0284037000     0.1053576000
    2      C      -2.3014371000     0.0690531000    -0.2180221000
    3      O      -3.0459823000     0.0870730000     1.0133565000
    4      C      -0.0691917000    -1.1277357000    -0.1454878000
    5      C       1.2482796000    -1.1817184000     0.1753519000
    6      C       1.9629601000    -0.0400161000     0.8220297000
    7      O       3.1110330000     0.3699297000     0.0390053000
    8      C       1.0958518000     1.1579449000     1.0155356000
    9      C      -0.2145905000     1.1636298000     0.6839271000
   10      H      -2.5816909000    -0.8025010000    -0.8114413000
   11      H      -2.5359368000     0.9688900000    -0.7923834000
   12      H      -3.9702530000     0.2441393000     0.7921560000
   13      H      -0.5468647000    -1.9822553000    -0.6096743000
   14      H       1.8317466000    -2.0719214000    -0.0237688000
   15      H       2.3435894000    -0.3645159000     1.8006061000
   16      H       3.7655398000    -0.3359263000     0.0911604000
   17      H       1.5648634000     2.0343052000     1.4438898000
   18      H      -0.8078870000     2.0550135000     0.8502014000
   19      O       0.6479997000    -1.4694703000     1.9205727000
   20      O      -0.4067055000    -0.8006822000     2.0629749000
 ----------------------------------------------------------------
 Nuclear Repulsion Energy =         655.76739989 hartrees
 There are       42 alpha and       41 beta electrons
 Discretize the solute cavity surface with Lebedev spheres
	Using 110 Lebedev grid points for each H atom
	Using 194 Lebedev grid points for other atoms
	Atomic van der Waals radii will be scaled by 1.20
 Remove points where switching function is < 1.0e-08
 Keep 1447 surface tesserae and discard 1677 interior tesserae
 Molecular Surface Area = 166.876 Angst**2
 Requested basis set is 6-311++G(2df,2p)
 There are 142 shells and 464 basis functions
 A cutoff of  1.0D-11 yielded   8801 shell pairs
 There are     95059 function pairs (    118605 Cartesian)
 Smallest overlap matrix eigenvalue = 1.02E-06

 Q-Chem warning in module stvman/mkSTV.C, line 323:

 Overlap eigenvalue is smaller than square root of threshold
 Use THRESH >= 12 to get rid of this warning

 Guess MOs from SCF MO coefficient file

 -----------------------------------------------------------------------
  General SCF calculation program by
  Eric Jon Sundstrom, Paul Horn, Yuezhi Mao, Dmitri Zuev, Alec White,
  David Stuck, Shaama M.S., Shane Yost, Joonho Lee, David Small,
  Daniel Levine, Susi Lehtola, Hugh Burton, Evgeny Epifanovsky,
  Bang C. Huynh
 -----------------------------------------------------------------------
 Exchange:     0.1500 Hartree-Fock + 1.0000 wB97M-V + LR-HF
 Correlation:  1.0000 wB97M-V
 Using SG-2 standard quadrature grid
 Nonlocal Correlation:  VV10 with C = 0.0100 and b = 6.00 and scale = 1.00000
 Grid used for NLC:  SG-1 standard quadrature
 
 Citation of the SMD model:
 Marenich, A.V.; Cramer, C.J.; Truhlar, D.G.
 J. Phys. Chem. B 2009, 113, 6378-6396.
 iSolventCode=           1
 Solvent: water                                                           
 
 vradii
            1           2           3           4           5           6
    1   1.8500000   1.8500000   1.5200000   1.8500000   1.8500000   1.8500000
            7           8           9          10          11          12
    1   1.5200000   1.8500000   1.8500000   1.2000000   1.2000000   1.2000000
           13          14          15          16          17          18
    1   1.2000000   1.2000000   1.2000000   1.2000000   1.2000000   1.2000000
           19          20
    1   1.5200000   1.5200000
 -------------------------------------------------------
 OpenMP BLAS3 based DFT computing Module                
 Release: version 1.0, May 2013, Q-Chem Inc. Pittsburgh 
 -------------------------------------------------------
 A unrestricted SCF calculation will be
 performed using Roothaan-Hall, DIIS, GDM
 SCF converges when RMS gradient is below 1.0e-06
 ---------------------------------------
  Cycle       Energy         DIIS error
 ---------------------------------------
    1    -572.7767005109      2.11e-04  Roothaan Step
 ---------------------------------------
  Cycle       Energy         DIIS error
 ---------------------------------------
    1    -572.8065270961      2.58e-04  
    2    -572.8112123725      2.72e-04  Done DIIS. Switching to GDM
 ---------------------------------------
  Cycle       Energy        RMS Gradient
 ---------------------------------------
    1    -572.8112123725      2.39e-02   Normal BFGS step
    2    -572.8067818716      4.01e-02  Line search: overstep
    3    -572.8164891010      4.37e-03   Normal BFGS step
    4    -572.8166738846      3.62e-03   Normal BFGS step
    5    -572.8168482543      5.55e-04   Normal BFGS step
    6    -572.8168567852      5.12e-04   Normal BFGS step
    7    -572.8168602024      2.10e-04   Normal BFGS step
    8    -572.8168606533      1.33e-04   Normal BFGS step
    9    -572.8168608052      9.86e-05   Normal BFGS step
   10    -572.8168608634      7.31e-05   Normal BFGS step
   11    -572.8168608953      4.80e-05   Normal BFGS step
   12    -572.8168609118      4.02e-05   Normal BFGS step
   13    -572.8168609184      2.23e-05   Normal BFGS step
   14    -572.8168609223      1.77e-05   Normal BFGS step
   15    -572.8168609245      9.47e-06   Normal BFGS step
   16    -572.8168609251      4.10e-06   Normal BFGS step
   17    -572.8168609253      2.60e-06   Normal BFGS step
   18    -572.8168609252      1.29e-06   Normal BFGS step
   19    -572.8168609251      7.25e-07  Convergence criterion met
 ---------------------------------------
 SCF time:   CPU 3231.04s  wall 221.00s 
<S^2> =          0.768956458
(3)  G-ENP(liq) elect-nuc-pol free energy of system     -572.816860925 a.u.
(4)  G-CDS(liq) cavity-dispersion-solvent structure 
     free energy                                                3.2431 kcal/mol
(6)  G-S(liq) free energy of system                     -572.811692762 a.u.
 SCF   energy in the final basis set =     -572.8116927624
 Total energy in the final basis set =     -572.8116927624
 
 --------------------------------------------------------------
 
                    Orbital Energies (a.u.)
 --------------------------------------------------------------
 
 Alpha MOs
 -- Occupied --
-19.4326 -19.4147 -19.3403 -19.3398 -10.4072 -10.3917 -10.3827 -10.3787
-10.3529 -10.3501 -10.3372  -1.3501  -1.1569  -1.1546  -0.9919  -0.9572
[...]
    1  -0.0000467   0.0000395
    2   0.0000217  -0.0000421
    3   0.0000400   0.0000466
 Gradient of SCF Energy
            1           2           3           4           5           6
    1  -0.0057516   0.0062267   0.0135466   0.0041662  -0.0048139  -0.0070027
    2   0.0013014   0.0020690  -0.0061561   0.0069102   0.0029740   0.0056147
    3   0.0001925   0.0113890   0.0104641   0.0008540   0.0050642  -0.0058884
            7           8           9          10          11          12
    1  -0.0102663  -0.0019440   0.0024244  -0.0017640  -0.0021623  -0.0119615
    2   0.0138466  -0.0051546  -0.0037305  -0.0050925   0.0055902   0.0047616
    3  -0.0035486   0.0000558  -0.0006965  -0.0044344  -0.0061837  -0.0081756
           13          14          15          16          17          18
    1  -0.0029686   0.0069187   0.0050118   0.0102657   0.0009201   0.0001415
    2  -0.0053882  -0.0075615  -0.0019545  -0.0120100   0.0016225   0.0015841
    3  -0.0039036  -0.0018985   0.0037216   0.0017552   0.0015466  -0.0010330
           19          20
    1  -0.0046967   0.0037101
    2   0.0010841  -0.0003104
    3   0.0017987  -0.0010793
 Max gradient component =       1.385E-02
 RMS gradient           =       5.775E-03
 Computing fast CPCM-SWIG gradient
 Updating gradient with PCM contributions...
 -- total gradient after adding PCM contribution --
---------------------------------------------------
  Atom         X              Y              Z     
---------------------------------------------------
   1       0.000029      -0.000018      -0.000016
   2       0.000010      -0.000018      -0.000010
   3       0.000006       0.000001      -0.000009
   4      -0.000058       0.000071       0.000013
   5       0.000041      -0.000051      -0.000004
   6      -0.000001       0.000038       0.000026
   7      -0.000001       0.000004       0.000002
   8      -0.000020      -0.000005       0.000005
   9      -0.000020      -0.000028       0.000002
  10       0.000006      -0.000017      -0.000005
  11       0.000002      -0.000016      -0.000012
  12      -0.000003      -0.000007      -0.000021
  13       0.000008      -0.000016       0.000024
  14       0.000006      -0.000002       0.000023
  15       0.000001       0.000025       0.000007
  16       0.000002       0.000002       0.000012
  17      -0.000009       0.000014      -0.000018
  18      -0.000009       0.000007      -0.000026
  19      -0.000038       0.000009       0.000042
  20       0.000048       0.000006      -0.000035
---------------------------------------------------
 Number of fixed atoms: 0
 Gradient time:  CPU 488.56 s  wall 40.23 s
 Geometry Optimization Parameters
   NAtoms,    NIC,     NZ,  NCons,   NDum,   NFix, NCnnct, MaxDiis
       20     141       0       0       0       0       0       0

 Cartesian Hessian Update
 Hessian updated using Powell/Murtagh-Sargent update
  Mixing factors:     0.988516 Powell                      0.011484 Murtagh-Sargent


** GEOMETRY OPTIMIZATION IN DELOCALIZED INTERNAL COORDINATES **
   Searching for a Transition State

   Optimization Cycle:  34

                       Coordinates (Angstroms)
     ATOM                X               Y               Z
      1  C        -0.8176287950   -0.0318532466    0.1274053246
      2  C        -2.2618398633    0.0358204915   -0.2568173358
      3  O        -3.0323661903    0.3843551188    0.8939645904
      4  C        -0.0307795596   -1.0993362852   -0.2402310390
      5  C         1.2547729422   -1.1820974699    0.2577981423
      6  C         1.9892075527    0.0186812503    0.7784207592
      7  O         2.9560192781    0.4725481903   -0.1900894608
      8  C         1.0780591982    1.1636356092    1.0728014994
      9  C        -0.2273490685    1.1161960806    0.7896136767
     10  H        -2.5874308633   -0.9216841736   -0.6657872209
     11  H        -2.3860583183    0.7991216327   -1.0312157036
     12  H        -3.8928036425    0.6914651626    0.5911420185
     13  H        -0.4744124161   -1.9453569959   -0.7482037122
     14  H         1.8568763473   -2.0621529627    0.0716662556
     15  H         2.5244599189   -0.2616821468    1.6900019800
     16  H         3.6764820600   -0.1679408504   -0.2108645685
     17  H         1.5252904743    2.0465770586    1.5106287630
     18  H        -0.8710785605    1.9541558467    1.0223413302
     19  O         0.5723620108   -1.6753253446    2.3036027165
     20  O        -0.6053590051   -1.3344873654    2.4491692842
   Point Group: c1    Number of degrees of freedom:    54


   Energy is   -572.861728241

 Hessian updated using Powell/Murtagh-Sargent update
  Mixing factors:     0.977725 Powell                      0.022275 Murtagh-Sargent

 54 Hessian modes will be used to form the next step
  Hessian Eigenvalues:
    -0.033395    0.001713    0.002489    0.004291    0.005457    0.012499
     0.013712    0.016123    0.017485    0.021068    0.023280    0.032147
     0.041013    0.046431    0.057858    0.058536    0.069881    0.075253
     0.087110    0.100833    0.107638    0.113470    0.119019    0.122642
     0.131127    0.140174    0.152364    0.158942    0.168218    0.175080
     0.188503    0.200034    0.227452    0.237458    0.275159    0.304289
     0.315263    0.326657    0.332123    0.336003    0.355604    0.357982
     0.358188    0.360606    0.361431    0.368481    0.379457    0.421429
     0.469467    0.524933    0.527359    0.538338    0.542373    1.047752

 Transition state search - taking P-RFO step
 Searching for Lamda that Maximizes Along the Lowest mode
 Value Taken    Lamda =   0.00000000
 Searching for Lamda that Minimizes Along All other modes
 Value Taken    Lamda =  -0.00000009
 Step Taken.  Stepsize is  0.001710

                             Maximum     Tolerance    Cnvgd?
         Gradient           0.000061      0.000300     YES
         Displacement       0.000988      0.001200     YES
         Energy change     -0.000000      0.000001     YES

 Final energy is   -572.861728241488     


 ******************************
 **  OPTIMIZATION CONVERGED  **
 ******************************

                       Coordinates (Angstroms)
     ATOM                X               Y               Z
      1  C        -0.8176287950   -0.0318532466    0.1274053246
      2  C        -2.2618398633    0.0358204915   -0.2568173358
      3  O        -3.0323661903    0.3843551188    0.8939645904
      4  C        -0.0307795596   -1.0993362852   -0.2402310390
      5  C         1.2547729422   -1.1820974699    0.2577981423
      6  C         1.9892075527    0.0186812503    0.7784207592
      7  O         2.9560192781    0.4725481903   -0.1900894608
      8  C         1.0780591982    1.1636356092    1.0728014994
      9  C        -0.2273490685    1.1161960806    0.7896136767
     10  H        -2.5874308633   -0.9216841736   -0.6657872209
     11  H        -2.3860583183    0.7991216327   -1.0312157036
     12  H        -3.8928036425    0.6914651626    0.5911420185
     13  H        -0.4744124161   -1.9453569959   -0.7482037122
     14  H         1.8568763473   -2.0621529627    0.0716662556
     15  H         2.5244599189   -0.2616821468    1.6900019800
     16  H         3.6764820600   -0.1679408504   -0.2108645685
     17  H         1.5252904743    2.0465770586    1.5106287630
     18  H        -0.8710785605    1.9541558467    1.0223413302
     19  O         0.5723620108   -1.6753253446    2.3036027165
     20  O        -0.6053590051   -1.3344873654    2.4491692842

Z-matrix Print:
$molecule
0 2
O 
O  1 1.234661
C  1 2.212301 2 109.981516
H  3 1.082438 1 98.588253 2 -141.207018 0
C  3 1.381133 1 93.422653 2 -19.866023 0
H  5 1.081941 3 120.271706 1 -96.879081 0
C  5 1.376157 3 118.839248 1 71.374680 0
C  7 1.450851 5 120.206148 3 12.690891 0
H  8 1.082001 7 117.965536 5 177.280513 0
C  8 1.336614 7 121.475920 5 -0.798767 0
H  10 1.082263 8 121.215358 7 176.137450 0
C  10 1.492572 8 121.815765 7 -2.673068 0
H  12 1.093654 10 109.330796 8 -125.970604 0
O  12 1.441781 10 107.479210 8 116.797985 0
H  14 0.964222 12 107.843258 10 165.217913 0
C  7 1.495979 5 121.229276 3 -173.232264 0
H  16 1.090908 7 110.164145 5 10.573116 0
H  16 1.094418 7 108.835955 5 -107.955095 0
O  16 1.428106 7 108.962671 5 132.332754 0
H  19 0.962482 16 107.859527 7 162.527946 0
$end

 
 --------------------------------------------------------------
 
                    Orbital Energies (a.u.)
 --------------------------------------------------------------
 
 Alpha MOs
 -- Occupied --
-19.4480 -19.4328 -19.3425 -19.3399 -10.4053 -10.3910 -10.3757 -10.3729
-10.3510 -10.3500 -10.3431  -1.3678  -1.1589  -1.1574  -0.9853  -0.9322
 -0.8896  -0.8763  -0.8024  -0.7299  -0.7120  -0.6445  -0.6350  -0.6286
 -0.6247  -0.6139  -0.6113  -0.5840  -0.5747  -0.5364  -0.5318  -0.5235
 -0.4918  -0.4818  -0.4508  -0.4327  -0.4279  -0.3975  -0.3868  -0.3783
 -0.3743  -0.3412
 -- Virtual --
 -0.0235   0.0257   0.0317   0.0362   0.0515   0.0549   0.0552   0.0627
  0.0764   0.0785   0.0868   0.1035   0.1075   0.1187   0.1234   0.1312
  0.1377   0.1411   0.1504   0.1560   0.1573   0.1604   0.1624   0.1670
  0.1703   0.1799   0.1836   0.1906   0.1925   0.1996   0.2064   0.2113
  0.2173   0.2215   0.2254   0.2349   0.2428   0.2495   0.2610   0.2719
  0.2771   0.2822   0.2862   0.2980   0.2998   0.3023   0.3080   0.3126
  0.3189   0.3229   0.3260   0.3320   0.3484   0.3501   0.3578   0.3605
  0.3661   0.3762   0.3796   0.3833   0.3901   0.4049   0.4114   0.4189
  0.4234   0.4259   0.4388   0.4536   0.4541   0.4684   0.4693   0.4849
  0.5023   0.5330   0.5493   0.5627   0.5728   0.5875   0.5969   0.5990
  0.6023   0.6176   0.6289   0.6375   0.6446   0.6505   0.6692   0.6718
  0.6889   0.6920   0.6999   0.7106   0.7186   0.7239   0.7270   0.7335
  0.7456   0.7476   0.7602   0.7678   0.7875   0.7978   0.8098   0.8191
  0.8339   0.8382   0.8538   0.8559   0.8721   0.8791   0.8929   0.9112
  0.9202   0.9296   0.9422   0.9696   0.9749   0.9879   1.0068   1.0202
  1.0384   1.0709   1.0794   1.1005   1.1097   1.1134   1.1264   1.1359
  1.1470   1.1520   1.1640   1.1725   1.1819   1.1987   1.2029   1.2177
  1.2216   1.2316   1.2422   1.2536   1.2570   1.2747   1.2822   1.2879
  1.3066   1.3195   1.3262   1.3285   1.3490   1.3591   1.3782   1.3829
  1.3898   1.4148   1.4202   1.4378   1.4415   1.4502   1.4591   1.4611
  1.4727   1.4917   1.5106   1.5154   1.5289   1.5305   1.5416   1.5500
  1.5557   1.5671   1.5793   1.5941   1.6146   1.6179   1.6266   1.6574
  1.6678   1.7075   1.7198   1.7417   1.7512   1.7629   1.7790   1.8008
  1.8170   1.8430   1.8560   1.8589   1.8962   1.9232   1.9602   1.9943
  2.0069   2.0154   2.0371   2.0643   2.1106   2.1429   2.1584   2.1623
  2.2142   2.2898   2.3214   2.3554   2.3630   2.3851   2.4087   2.4247
  2.4546   2.5803   2.6261   2.6371   2.6804   2.6860   2.7096   2.7176
  2.7464   2.7784   2.8085   2.8185   2.8338   2.8382   2.8512   2.8779
  2.8839   2.9067   2.9287   2.9351   2.9490   2.9543   2.9702   2.9871
  3.0083   3.0186   3.0213   3.0496   3.0736   3.0826   3.1102   3.1168
  3.1322   3.1612   3.1923   3.2026   3.2323   3.2416   3.2630   3.2687
  3.2864   3.2988   3.3183   3.3364   3.3498   3.3643   3.3764   3.3900
  3.3999   3.4088   3.4464   3.4550   3.4658   3.4895   3.4940   3.5103
  3.5249   3.5387   3.5783   3.5886   3.5965   3.6281   3.6411   3.6482
  3.6738   3.6856   3.6864   3.7097   3.7359   3.7564   3.7643   3.7665
  3.7775   3.8036   3.8172   3.8247   3.8476   3.8542   3.8669   3.8864
  3.8907   3.9286   3.9393   3.9522   3.9742   3.9910   4.0261   4.0310
  4.0531   4.0777   4.1008   4.1357   4.1581   4.1767   4.1859   4.1979
  4.2281   4.2717   4.2737   4.2858   4.3008   4.3330   4.3417   4.3529
  4.3719   4.3869   4.4109   4.4217   4.4309   4.4503   4.4752   4.4882
  4.5147   4.5418   4.5558   4.5727   4.5871   4.5892   4.6292   4.6462
  4.6514   4.6696   4.6844   4.6974   4.7062   4.7408   4.7891   4.8150
  4.8435   4.9250   4.9625   5.0070   5.0136   5.0220   5.0331   5.0875
  5.1042   5.1556   5.1805   5.2012   5.2055   5.2125   5.2197   5.2294
  5.2447   5.2685   5.2960   5.3080   5.3213   5.3398   5.3465   5.3650
  5.3786   5.3958   5.4528   5.4861   5.5206   5.5367   5.5842   5.6030
  5.6523   5.6608   5.6774   5.7000   5.7085   5.7329   5.7401   5.7968
  5.8463   5.8780   5.9285   5.9511   6.0072   6.0202   6.1227   6.3471
  6.5864   6.6068   6.7379   6.7700   6.8391   6.8818   6.9562   7.0303
  7.0563   7.0901   7.1085   7.1238   7.1715   7.3165   7.3213   7.3266
  7.3381   7.3613   7.3911   7.3961   7.4863   7.6514   7.6712   7.8029
  7.8230   8.1241   8.1820  24.3218  24.6267  24.7964  24.8242  24.8774
 25.1458  25.3764  50.5076  50.5238  50.6043  50.6134
 
 Beta MOs
 -- Occupied --
-19.4243 -19.4098 -19.3436 -19.3402 -10.4048 -10.3908 -10.3796 -10.3770
-10.3529 -10.3489 -10.3413  -1.3238  -1.1612  -1.1581  -0.9888  -0.8974
 -0.8890  -0.8556  -0.8028  -0.7327  -0.7160  -0.6384  -0.6343  -0.6276
 -0.5886  -0.5862  -0.5784  -0.5659  -0.5366  -0.5330  -0.5310  -0.5228
 -0.4928  -0.4826  -0.4535  -0.4338  -0.4311  -0.3996  -0.3881  -0.3591
 -0.2831
 -- Virtual --
 -0.0185   0.0007   0.0254   0.0320   0.0364   0.0515   0.0546   0.0556
  0.0631   0.0710   0.0783   0.0869   0.1043   0.1082   0.1182   0.1238
  0.1280   0.1374   0.1415   0.1505   0.1559   0.1568   0.1606   0.1623
  0.1662   0.1711   0.1799   0.1843   0.1916   0.1927   0.1991   0.2068
  0.2117   0.2155   0.2227   0.2260   0.2357   0.2434   0.2500   0.2615
  0.2715   0.2781   0.2823   0.2873   0.2984   0.3007   0.3046   0.3082
  0.3183   0.3206   0.3228   0.3270   0.3340   0.3486   0.3503   0.3576
  0.3622   0.3663   0.3778   0.3808   0.3851   0.3903   0.4068   0.4108
  0.4181   0.4248   0.4259   0.4414   0.4525   0.4569   0.4691   0.4696
  0.4857   0.5063   0.5331   0.5489   0.5620   0.5713   0.5857   0.5965
  0.5982   0.6019   0.6173   0.6270   0.6360   0.6444   0.6491   0.6697
  0.6704   0.6883   0.6903   0.6988   0.7094   0.7175   0.7230   0.7253
  0.7330   0.7437   0.7476   0.7575   0.7658   0.7865   0.7973   0.8096
  0.8174   0.8313   0.8369   0.8526   0.8554   0.8689   0.8782   0.8910
  0.9107   0.9193   0.9286   0.9420   0.9692   0.9751   0.9886   1.0073
  1.0246   1.0386   1.0706   1.0801   1.1037   1.1105   1.1137   1.1271
  1.1392   1.1473   1.1543   1.1653   1.1777   1.1996   1.2027   1.2062
  1.2198   1.2322   1.2330   1.2432   1.2538   1.2626   1.2797   1.2871
  1.3024   1.3092   1.3210   1.3281   1.3307   1.3532   1.3627   1.3788
  1.3837   1.3895   1.4141   1.4186   1.4391   1.4416   1.4537   1.4579
  1.4640   1.4738   1.4935   1.5109   1.5186   1.5291   1.5304   1.5423
  1.5534   1.5568   1.5695   1.5812   1.5983   1.6178   1.6254   1.6344
  1.6593   1.6797   1.7094   1.7221   1.7458   1.7568   1.7670   1.7855
  1.8019   1.8147   1.8574   1.8616   1.8633   1.8989   1.9373   1.9616
  1.9994   2.0085   2.0176   2.0403   2.0648   2.1133   2.1422   2.1571
  2.1622   2.2126   2.2904   2.3387   2.3609   2.3796   2.3985   2.4097
  2.4360   2.4573   2.5780   2.6217   2.6368   2.6775   2.6835   2.7068
  2.7253   2.7425   2.7737   2.8054   2.8156   2.8279   2.8323   2.8485
  2.8734   2.8774   2.9029   2.9223   2.9305   2.9456   2.9517   2.9671
  2.9835   3.0028   3.0072   3.0128   3.0396   3.0649   3.0688   3.1033
  3.1116   3.1255   3.1522   3.1883   3.1955   3.2256   3.2371   3.2602
  3.2670   3.2828   3.2931   3.3121   3.3318   3.3463   3.3590   3.3716
  3.3860   3.3958   3.4032   3.4421   3.4522   3.4608   3.4864   3.4904
  3.5057   3.5221   3.5325   3.5735   3.5813   3.5896   3.6237   3.6371
  3.6409   3.6695   3.6731   3.6853   3.7045   3.7332   3.7528   3.7625
  3.7646   3.7714   3.8008   3.8139   3.8197   3.8432   3.8495   3.8644
  3.8830   3.8842   3.9237   3.9347   3.9495   3.9698   3.9859   4.0226
  4.0276   4.0488   4.0736   4.0965   4.1303   4.1535   4.1739   4.1830
  4.1944   4.2250   4.2670   4.2712   4.2827   4.2957   4.3303   4.3395
  4.3475   4.3672   4.3838   4.4065   4.4166   4.4262   4.4464   4.4715
  4.4844   4.5100   4.5370   4.5518   4.5677   4.5823   4.6260   4.6303
  4.6490   4.6650   4.6794   4.6943   4.7030   4.7225   4.7412   4.8007
  4.8125   4.8382   4.9239   4.9579   5.0095   5.0376   5.0609   5.0815
  5.1056   5.1478   5.1863   5.1990   5.2115   5.2384   5.2592   5.2646
  5.2774   5.2844   5.2949   5.3027   5.3258   5.3390   5.3453   5.3647
  5.3804   5.3876   5.4004   5.4502   5.4853   5.5175   5.5334   5.5809
  5.6016   5.6421   5.6586   5.6757   5.6988   5.7093   5.7737   5.7782
  5.7978   5.8434   5.8765   5.9254   5.9478   6.0048   6.0188   6.1192
  6.3421   6.5862   6.6060   6.8003   6.8136   6.9404   6.9815   7.0462
  7.1021   7.1074   7.1202   7.1432   7.1475   7.2360   7.3154   7.3211
  7.3261   7.3362   7.3607   7.3929   7.4443   7.5239   7.6506   7.6695
  7.8023   7.8196   8.1570   8.2091  24.3210  24.6256  24.7964  24.8241
 24.8742  25.1452  25.3753  50.5258  50.5419  50.6043  50.6130
 --------------------------------------------------------------
 
          Ground-State Mulliken Net Atomic Charges

     Atom                 Charge (a.u.)    Spin (a.u.)
  --------------------------------------------------------
      1 C                     1.212399      -0.251496
      2 C                    -0.561586      -0.003444
      3 O                    -0.406281      -0.000750
      4 C                    -0.856764       0.084908
      5 C                     0.012535      -0.260910
      6 C                    -0.817218       0.000299
      7 O                    -0.415642      -0.016757
      8 C                    -0.056541      -0.159777
      9 C                    -0.534381       0.090663
     10 H                     0.231391      -0.001159
     11 H                     0.187784      -0.013066
     12 H                     0.327644      -0.003046
     13 H                     0.274516      -0.002711
     14 H                     0.355768       0.009402
     15 H                     0.264112      -0.014818
     16 H                     0.324225      -0.001586
     17 H                     0.310835       0.002469
     18 H                     0.311251      -0.000202
     19 O                    -0.070493       0.767826
     20 O                    -0.093555       0.774155
  --------------------------------------------------------
  Sum of atomic charges =    -0.000000
  Sum of spin   charges =     1.000000

 -----------------------------------------------------------------
                    Cartesian Multipole Moments
 -----------------------------------------------------------------
    Charge (ESU x 10^10)
                -0.0000
    Dipole Moment (Debye)
         X       0.1558      Y      -0.2892      Z      -3.6507
       Tot       3.6655
    Quadrupole Moments (Debye-Ang)
        XX     -46.9344     XY     -10.2416     YY     -62.6242
        XZ      11.3980     YZ       7.5048     ZZ     -75.7746
    Octopole Moments (Debye-Ang^2)
       XXX     -26.6378    XXY       1.1263    XYY      -6.4838
       YYY      34.4127    XXZ     -51.4767    XYZ       2.0437
       YYZ     -50.5171    XZZ       7.0757    YZZ      25.5724
       ZZZ    -159.3325
    Hexadecapole Moments (Debye-Ang^3)
      XXXX    -872.3614   XXXY    -122.9212   XXYY    -278.4406
      XYYY       3.3619   YYYY    -449.3261   XXXZ      33.1638
      XXYZ      35.6844   XYYZ       4.4471   YYYZ      94.6241
      XXZZ    -328.1388   XYZZ       6.0767   YYZZ    -192.2282
      XZZZ      17.5844   YZZZ     100.3961   ZZZZ    -657.4501
 -----------------------------------------------------------------
 Total job time:  11357.81s(wall), 163420.27s(cpu) 
 Sat May 11 03:43:57 2024

        *************************************************************
        *                                                           *
        *  Thank you very much for using Q-Chem.  Have a nice day.  *
        *                                                           *
        *************************************************************


