
Running Job 1 of 2 Q_in.in
qchem Q_in.in_105711.0 /scratch/ari.fischer/qChem2246781.hpc-mn1/qchem105711/ 0
/usr/local/qchem-5.4.1/exe/qcprog.exe_s Q_in.in_105711.0 /scratch/ari.fischer/qChem2246781.hpc-mn1/qchem105711/
                  Welcome to Q-Chem
     A Quantum Leap Into The Future Of Chemistry


 Q-Chem 5.4, Q-Chem, Inc., Pleasanton, CA (2021)

 License issued to: Nanyang Technological University (site)

 E. Epifanovsky,  A. T. B. Gilbert,  Xintian Feng,  Joonho Lee,  Yuezhi Mao,  
 N. Mardirossian,  P. Pokhilko,  A. White,  M. Wormit,  M. P. Coons,  
 A. L. Dempwolff,  Zhengting Gan,  D. Hait,  P. R. Horn,  L. D. Jacobson,  
 I. Kaliman,  J. Kussmann,  A. W. Lange,  Ka Un Lao,  D. S. Levine,  Jie Liu,  
 S. C. McKenzie,  A. F. Morrison,  K. Nanda,  F. Plasser,  D. R. Rehn,  
 M. L. Vidal,  Zhi-Qiang You,  Ying Zhu,  B. Alam,  B. Albrecht,  
 A. Aldossary,  E. Alguire,  J. H. Andersen,  D. Barton,  K. Begam,  A. Behn,  
 Y. A. Bernard,  E. J. Berquist,  H. Burton,  A. Carreras,  K. Carter-Fenk,  
 R. Chakraborty,  A. D. Chien,  K. D. Closser,  V. Cofer-Shabica,  
 S. Dasgupta,  Jia Deng,  M. de Wergifosse,  M. Diedenhofen,  Hainam Do,  
 S. Ehlert,  Po-Tung Fang,  S. Fatehi,  Qingguo Feng,  T. Friedhoff,  
 J. Gayvert,  Qinghui Ge,  G. Gidofalvi,  M. Goldey,  J. Gomes,  
 C. Gonzalez-Espinoza,  S. Gulania,  A. Gunina,  M. W. D. Hanson-Heine,  
 P. H. P. Harbach,  A. W. Hauser,  M. F. Herbst,  M. Hernandez Vera,  
 M. Hodecker,  Z. C. Holden,  S. Houck,  Xunkun Huang,  Kerwin Hui,  
 B. C. Huynh,  M. Ivanov,  Hyunjun Ji,  Hanjie Jiang,  B. Kaduk,  S. Kaehler,  
 K. Khistyaev,  Jaehoon Kim,  P. Klunzinger,  Z. Koczor-Benda,  
 Joong Hoon Koh,  D. Kosenkov,  L. Koulias,  T. Kowalczyk,  C. M. Krauter,  
 K. Kue,  A. Kunitsa,  T. Kus,  A. Landau,  K. V. Lawler,  D. Lefrancois,  
 S. Lehtola,  Rain Li,  Yi-Pei Li,  Jiashu Liang,  M. Liebenthal,  
 Hung-Hsuan Lin,  You-Sheng Lin,  Fenglai Liu,  Kuan-Yu Liu,  
 M. Loipersberger,  A. Luenser,  A. Manjanath,  P. Manohar,  E. Mansoor,  
 S. F. Manzer,  Shan-Ping Mao,  A. V. Marenich,  T. Markovich,  S. Mason,  
 S. A. Maurer,  P. F. McLaughlin,  M. F. S. J. Menger,  J.-M. Mewes,  
 S. A. Mewes,  P. Morgante,  J. W. Mullinax,  K. J. Oosterbaan,  G. Paran,  
 Alexander C. Paul,  Suranjan K. Paul,  F. Pavosevic,  Zheng Pei,  S. Prager,  
 E. I. Proynov,  E. Ramos,  B. Rana,  A. E. Rask,  A. Rettig,  R. M. Richard,  
 F. Rob,  E. Rossomme,  T. Scheele,  M. Scheurer,  M. Schneider,  
 N. Sergueev,  S. M. Sharada,  W. Skomorowski,  D. W. Small,  C. J. Stein,  
 Yu-Chuan Su,  E. J. Sundstrom,  Zhen Tao,  J. Thirman,  T. Tsuchimochi,  
 N. M. Tubman,  S. P. Veccham,  O. Vydrov,  J. Wenzel,  J. Witte,  A. Yamada,  
 Kun Yao,  S. Yeganeh,  S. R. Yost,  A. Zech,  Igor Ying Zhang,  Xing Zhang,  
 Yu Zhang,  D. Zuev,  A. Aspuru-Guzik,  A. T. Bell,  N. A. Besley,  
 K. B. Bravaya,  B. R. Brooks,  D. Casanova,  Jeng-Da Chai,  S. Coriani,  
 C. J. Cramer,  A. E. DePrince, III,  R. A. DiStasio Jr.,  A. Dreuw,  
 B. D. Dunietz,  T. R. Furlani,  W. A. Goddard III,  S. Grimme,  
 S. Hammes-Schiffer,  T. Head-Gordon,  W. J. Hehre,  Chao-Ping Hsu,  
 T.-C. Jagau,  Yousung Jung,  A. Klamt,  Jing Kong,  D. S. Lambrecht,  
 WanZhen Liang,  N. J. Mayhall,  C. W. McCurdy,  J. B. Neaton,  
 C. Ochsenfeld,  J. A. Parkhill,  R. Peverati,  V. A. Rassolov,  Yihan Shao,  
 L. V. Slipchenko,  T. Stauch,  R. P. Steele,  J. E. Subotnik,  
 A. J. W. Thom,  A. Tkatchenko,  D. G. Truhlar,  T. Van Voorhis,  
 T. A. Wesolowski,  K. B. Whaley,  H. L. Woodcock III,  P. M. Zimmerman,  
 S. Faraji,  P. M. W. Gill,  M. Head-Gordon,  J. M. Herbert,  A. I. Krylov

 Additional authors for Version 5.4.1: 
 S. Kotaru,  Shaozhi Li,  Xiangyuan Li,  F. Matz,  A. Molle,  Haisheng Ren,  
 Yingli Su,  Hung-Yi Tsai,  C. Utku,  Fang Wang

 Contributors to earlier versions of Q-Chem not listed above: 
 R. D. Adamson,  B. Austin,  R. Baer,  J. Baker,  G. J. O. Beran,  
 K. Brandhorst,  S. T. Brown,  E. F. C. Byrd,  A. K. Chakraborty,  
 G. K. L. Chan,  Chun-Min Chang,  Yunqing Chen,  C.-L. Cheng,  
 Siu Hung Chien,  D. M. Chipman,  D. L. Crittenden,  H. Dachsel,  
 R. J. Doerksen,  A. D. Dutoi,  R. G. Edgar,  J. Fosso-Tande,  
 L. Fusti-Molnar,  D. Ghosh,  A. Ghysels,  A. Golubeva-Zadorozhnaya,  
 J. Gonthier,  M. S. Gordon,  S. R. Gwaltney,  G. Hawkins,  J. E. Herr,  
 A. Heyden,  S. Hirata,  E. G. Hohenstein,  G. Kedziora,  F. J. Keil,  
 C. Kelley,  Jihan Kim,  R. A. King,  R. Z. Khaliullin,  P. P. Korambath,  
 W. Kurlancheek,  A. Laurent,  A. M. Lee,  M. S. Lee,  S. V. Levchenko,  
 Ching Yeh Lin,  D. Liotard,  E. Livshits,  R. C. Lochan,  I. Lotan,  
 L. A. Martinez-Martinez,  P. E. Maslen,  N. Nair,  D. P. O'Neill,  
 D. Neuhauser,  E. Neuscamman,  C. M. Oana,  R. Olivares-Amaya,  R. Olson,  
 T. M. Perrine,  B. Peters,  P. A. Pieniazek,  A. Prociuk,  Y. M. Rhee,  
 J. Ritchie,  M. A. Rohrdanz,  E. Rosta,  N. J. Russ,  H. F. Schaefer III,  
 M. W. Schmidt,  N. E. Schultz,  S. Sharma,  N. Shenvi,  C. D. Sherrill,  
 A. C. Simmonett,  A. Sodt,  T. Stein,  D. Stuck,  K. S. Thanthiriwatte,  
 V. Vanovschi,  L. Vogt,  Tao Wang,  A. Warshel,  M. A. Watson,  
 C. F. Williams,  Q. Wu,  X. Xu,  Jun Yang,  W. Zhang,  Yan Zhao

 Please cite Q-Chem as follows:
 Y. Shao et al., Mol. Phys. 113, 184-215 (2015)
 DOI: 10.1080/00268976.2014.952696

 Q-Chem 5.4.1 for Intel X86 EM64T Linux

 Parts of Q-Chem use Armadillo 9.800.1 (Horizon Scraper).
 http://arma.sourceforge.net/

 Q-Chem begins on Fri Jul 26 06:40:29 2024  

 Host: 
0

     Scratch files written to /scratch/ari.fischer/qChem2246781.hpc-mn1/qchem105711//
 Aug1521 |scratch|qcdevops|jenkins|workspace|build_RNUM 8249   
 Processing $rem in /usr/local/qchem-5.4.1/config/preferences:
 Processing $rem in /home/ari.fischer/.qchemrc:
 Symmetry turned off for PCM/SM12/SMD calculation


!!********************************************.
!!******************Warning*******************.
!!Desired Analytical derivatives not available.
!!Finite difference job might take a long time.
!!********************************************.
!!********************************************.


 2-order derivative to be evaluated numerically with 1-order analytical derivatives

 Checking the input file for inconsistencies... 	...done.

--------------------------------------------------------------
User input:
--------------------------------------------------------------
$molecule
0 2
C    3.4481061    3.1520461    2.6452835
C    2.3882569    2.9061656    3.7135599
O    2.8519395    1.8504447    4.5270770
O    2.2483489    4.0959508    4.4446133
H    4.5054328    3.2632218    3.2374105
H    1.4477142    2.6224870    3.2345610
H    2.1000926    1.4282885    4.9576371
H    1.5122149    3.9902324    5.0579931
O    5.7112734    3.2148066    3.8063041
O    6.4196429    2.2537304    3.1297963
C    6.2908315    0.9983808    3.7946792
O    5.0380283    0.4099030    3.5866061
H    7.0334398    0.3727748    3.3081479
H    6.5060114    1.1356742    4.8529162
H    4.3563326    0.8804687    4.1008536
O    3.5911268    2.1000516    1.7453293
O    3.1583743    4.3162427    1.9654639
H    4.0769199    1.3734628    2.1730819
H    3.7336083    4.3643270    1.1904248
$end

$rem
BASIS = 6-311++G(2df,2p)
GUI = 2
JOB_TYPE = Frequency
METHOD = wB97M-V
SOLVENT_METHOD = SMD
SCF_ALGORITHM = DIIS_GDM
MAX_SCF_CYCLES = 400
SCF_CONVERGENCE = 7
THRESH = 12
$end

--------------------------------------------------------------
 ----------------------------------------------------------------
             Standard Nuclear Orientation (Angstroms)
    I     Atom           X                Y                Z
 ----------------------------------------------------------------
    1      C       3.4481061000     3.1520461000     2.6452835000
    2      C       2.3882569000     2.9061656000     3.7135599000
    3      O       2.8519395000     1.8504447000     4.5270770000
    4      O       2.2483489000     4.0959508000     4.4446133000
    5      H       4.5054328000     3.2632218000     3.2374105000
    6      H       1.4477142000     2.6224870000     3.2345610000
    7      H       2.1000926000     1.4282885000     4.9576371000
    8      H       1.5122149000     3.9902324000     5.0579931000
    9      O       5.7112734000     3.2148066000     3.8063041000
   10      O       6.4196429000     2.2537304000     3.1297963000
   11      C       6.2908315000     0.9983808000     3.7946792000
   12      O       5.0380283000     0.4099030000     3.5866061000
   13      H       7.0334398000     0.3727748000     3.3081479000
   14      H       6.5060114000     1.1356742000     4.8529162000
   15      H       4.3563326000     0.8804687000     4.1008536000
   16      O       3.5911268000     2.1000516000     1.7453293000
   17      O       3.1583743000     4.3162427000     1.9654639000
   18      H       4.0769199000     1.3734628000     2.1730819000
   19      H       3.7336083000     4.3643270000     1.1904248000
 ----------------------------------------------------------------
 Nuclear Repulsion Energy =         637.73809786 hartrees
 There are       42 alpha and       41 beta electrons
 Requested basis set is 6-311++G(2df,2p)
 There are 134 shells and 430 basis functions

 Total QAlloc Memory Limit 288000 MB
 Mega-Array Size       188 MB
 MEM_STATIC part       192 MB
 
 Citation of the SMD model:
 Marenich, A.V.; Cramer, C.J.; Truhlar, D.G.
 J. Phys. Chem. B 2009, 113, 6378-6396.
 iSolventCode=           1
 Solvent: water                                                           
 
 vradii
            1           2           3           4           5           6
    1   1.8500000   1.8500000   1.5200000   1.5200000   1.2000000   1.2000000
            7           8           9          10          11          12
    1   1.2000000   1.2000000   1.5200000   1.5200000   1.8500000   1.5200000
           13          14          15          16          17          18
    1   1.2000000   1.2000000   1.2000000   1.5200000   1.5200000   1.2000000
           19
    1   1.2000000
 Changing PCM_VDW_RADII to SMD_RADIUS
 Discretize the solute cavity surface with Lebedev spheres
	Using 110 Lebedev grid points for each H atom
	Using 194 Lebedev grid points for other atoms
	Atomic van der Waals radii will be scaled by 1.20
 Remove points where switching function is < 1.0e-08
 Keep 1512 surface tesserae and discard 1418 interior tesserae
 Molecular Surface Area = 162.353 Angst**2
 A cutoff of  1.0D-12 yielded   7894 shell pairs
 There are     80516 function pairs (     99600 Cartesian)
 Smallest overlap matrix eigenvalue = 1.53E-05
 Guess from superposition of atomic densities
 Warning:  Energy on first SCF cycle will be non-variational
 SAD guess density has 83.000000 electrons

 -----------------------------------------------------------------------
  General SCF calculation program by
  Eric Jon Sundstrom, Paul Horn, Yuezhi Mao, Dmitri Zuev, Alec White,
  David Stuck, Shaama M.S., Shane Yost, Joonho Lee, David Small,
  Daniel Levine, Susi Lehtola, Hugh Burton, Evgeny Epifanovsky,
  Bang C. Huynh
 -----------------------------------------------------------------------
 Exchange:     0.1500 Hartree-Fock + 1.0000 wB97M-V + LR-HF
 Correlation:  1.0000 wB97M-V
 Using SG-2 standard quadrature grid
 Nonlocal Correlation:  VV10 with C = 0.0100 and b = 6.00 and scale = 1.00000
 Grid used for NLC:  SG-1 standard quadrature
 using 32 threads for integral computing
 -------------------------------------------------------
 OpenMP Integral computing Module                
 Release: version 1.0, May 2013, Q-Chem Inc. Pittsburgh 
 -------------------------------------------------------
 
 Citation of the SMD model:
 Marenich, A.V.; Cramer, C.J.; Truhlar, D.G.
 J. Phys. Chem. B 2009, 113, 6378-6396.
 iSolventCode=           1
 Solvent: water                                                           
 
 vradii
            1           2           3           4           5           6
    1   1.8500000   1.8500000   1.5200000   1.5200000   1.2000000   1.2000000
            7           8           9          10          11          12
    1   1.2000000   1.2000000   1.5200000   1.5200000   1.8500000   1.5200000
           13          14          15          16          17          18
    1   1.2000000   1.2000000   1.2000000   1.5200000   1.5200000   1.2000000
           19
    1   1.2000000
 -------------------------------------------------------
 OpenMP BLAS3 based DFT computing Module                
 Release: version 1.0, May 2013, Q-Chem Inc. Pittsburgh 
 -------------------------------------------------------
 A unrestricted SCF calculation will be
 performed using DIIS, GDM
 SCF converges when RMS gradient is below 1.0e-07
 ---------------------------------------
  Cycle       Energy         DIIS error
 ---------------------------------------
    1    -647.8979464072      1.18e-02  
    2    -646.0145935812      1.62e-03  Done DIIS. Switching to GDM
 ---------------------------------------
  Cycle       Energy        RMS Gradient
 ---------------------------------------
    1    -646.0145935812      8.65e-02   Descent step
    2    -646.1783568309      2.76e-02   Normal BFGS step
    3    -646.2048939747      2.04e-02   Normal BFGS step
    4    -646.2065267798      1.24e-02   Normal BFGS step
    5    -646.2075677210      9.88e-03   Normal BFGS step
    6    -646.2078696546      7.48e-03   Normal BFGS step
    7    -646.2080008170      3.04e-03   Normal BFGS step
    8    -646.2080285468      1.06e-03   Normal BFGS step
    9    -646.2080373277      5.48e-04   Normal BFGS step
   10    -646.2080391017      1.43e-04   Normal BFGS step
   11    -646.2080395709      1.05e-04   Normal BFGS step
   12    -646.2080396407      5.26e-05   Normal BFGS step
   13    -646.2080396580      4.04e-05   Normal BFGS step
   14    -646.2080396644      3.20e-05   Normal BFGS step
   15    -646.2080396670      1.99e-05   Normal BFGS step
   16    -646.2080396681      8.22e-06   Normal BFGS step
   17    -646.2080396685      2.06e-06   Normal BFGS step
   18    -646.2080396686      9.28e-07   Normal BFGS step
   19    -646.2080396686      4.39e-07   Normal BFGS step
   20    -646.2080396686      2.42e-07   Normal BFGS step
   21    -646.2080396686      1.51e-07   Normal BFGS step
   22    -646.2080396685      3.14e-08  Convergence criterion met
 ---------------------------------------
 SCF time:   CPU 3292.23s  wall 131.00s 
<S^2> =          0.756604745
(3)  G-ENP(liq) elect-nuc-pol free energy of system     -646.208039669 a.u.
(4)  G-CDS(liq) cavity-dispersion-solvent structure 
     free energy                                                3.9680 kcal/mol
(6)  G-S(liq) free energy of system                     -646.201716235 a.u.
 SCF   energy in the final basis set =     -646.2017162349
 Total energy in the final basis set =     -646.2017162349
 
 --------------------------------------------------------------
 
                    Orbital Energies (a.u.)
 --------------------------------------------------------------
 
 Alpha MOs
 -- Occupied --
-19.4248 -19.4116 -19.3634 -19.3584 -19.3579 -19.3512 -19.3496 -10.4625
-10.4557 -10.4418  -1.2990  -1.2312  -1.2028  -1.1747  -1.1544  -1.1402
 -1.0195  -0.8666  -0.7930  -0.7443  -0.7031  -0.6817  -0.6668  -0.6441
 -0.6359  -0.6179  -0.6045  -0.5988  -0.5612  -0.5269  -0.5217  -0.5165
 -0.4975  -0.4881  -0.4668  -0.4450  -0.4376  -0.4286  -0.4166  -0.4141
 -0.4050  -0.3349
 -- Virtual --
  0.0269   0.0374   0.0406   0.0476   0.0585   0.0656   0.0764   0.0796
  0.0881   0.1093   0.1154   0.1181   0.1289   0.1367   0.1439   0.1505
  0.1553   0.1655   0.1676   0.1756   0.1794   0.2012   0.2108   0.2252
  0.2289   0.2368   0.2454   0.2545   0.2609   0.2623   0.2727   0.2774
  0.2862   0.2890   0.2958   0.3025   0.3076   0.3150   0.3206   0.3238
  0.3275   0.3306   0.3418   0.3440   0.3456   0.3545   0.3612   0.3649
  0.3728   0.3790   0.3805   0.3901   0.3982   0.4024   0.4124   0.4140
  0.4181   0.4388   0.4476   0.4555   0.4591   0.4624   0.4900   0.5084
  0.5188   0.5378   0.5755   0.5790   0.5982   0.6100   0.6188   0.6274
  0.6381   0.6582   0.6631   0.6699   0.6854   0.6887   0.7007   0.7095
  0.7219   0.7293   0.7357   0.7587   0.7775   0.8026   0.8193   0.8281
  0.8481   0.8817   0.8970   0.9141   0.9335   0.9618   0.9755   0.9903
  0.9962   1.0033   1.0395   1.0560   1.0695   1.0745   1.0782   1.0868
  1.0968   1.1061   1.1251   1.1373   1.1467   1.1512   1.1794   1.1869
  1.1912   1.2025   1.2074   1.2244   1.2301   1.2357   1.2531   1.2589
  1.2716   1.2788   1.2992   1.3136   1.3151   1.3260   1.3373   1.3433
  1.3541   1.3689   1.3881   1.3916   1.4149   1.4287   1.4345   1.4523
  1.4737   1.4941   1.4946   1.5094   1.5159   1.5360   1.5481   1.5692
  1.5907   1.6047   1.6129   1.6472   1.6685   1.7087   1.7189   1.7237
  1.7461   1.7756   1.7882   1.8219   1.8396   1.8747   1.8979   1.9116
  1.9184   1.9471   1.9573   1.9886   2.0059   2.0120   2.0845   2.0861
  2.0981   2.1245   2.1600   2.1888   2.2097   2.2568   2.2655   2.2975
  2.3130   2.3386   2.3557   2.3594   2.3868   2.4284   2.4393   2.4507
  2.4677   2.4967   2.5346   2.5418   2.5756   2.5960   2.6166   2.6599
  2.7152   2.7283   2.7689   2.7829   2.8005   2.8509   2.9100   2.9549
  3.0302   3.0484   3.0981   3.1322   3.1554   3.1663   3.1920   3.1952
  3.2272   3.2974   3.3050   3.3308   3.3560   3.3654   3.3706   3.4040
  3.4330   3.4755   3.4892   3.5154   3.5330   3.5515   3.5725   3.5896
  3.6017   3.6174   3.6606   3.6666   3.6988   3.7241   3.7415   3.7866
  3.8067   3.8197   3.8376   3.8452   3.8648   3.8823   3.8876   3.9047
  3.9193   3.9448   3.9551   4.0016   4.0104   4.0648   4.0989   4.1176
  4.1464   4.1616   4.2027   4.2216   4.2401   4.2639   4.2705   4.3148
  4.3292   4.3512   4.3637   4.3767   4.3779   4.4262   4.4381   4.4723
  4.4931   4.5127   4.5488   4.6008   4.6401   4.7266   4.7493   4.8028
  4.8566   4.9299   5.0372   5.0977   5.1602   5.1836   5.1977   5.2133
  5.2211   5.2278   5.2467   5.2521   5.2572   5.2832   5.2860   5.2939
  5.3023   5.3140   5.3201   5.3262   5.3437   5.3547   5.3658   5.3827
  5.3866   5.3916   5.4113   5.4355   5.4651   5.5073   5.5136   5.5211
  5.5423   5.5584   5.5705   5.5931   5.6246   5.6313   5.6403   5.6488
  5.6629   5.6701   5.7084   5.7368   5.7570   5.8092   5.8425   5.9078
  5.9273   5.9845   6.0344   6.0465   6.0640   6.1098   6.1195   6.1427
  6.2500   6.3062   6.3716   6.4795   6.4931   6.5616   6.7087   6.7336
  6.8598   6.9727   6.9987   7.0156   7.0737   7.0861   7.0983   7.1251
  7.1496   7.1887   7.2019   7.2273   7.2395   7.2710   7.2745   7.2943
  7.3098   7.3368   7.3396   7.3531   7.3692   7.3893   7.4099   7.4234
  7.4501   7.4593   7.4835   7.5359   7.5957   7.6239   7.6635   7.7164
  7.7386   7.7818   7.7932   7.8309   7.8487   7.8710   7.9068   7.9441
  8.0254   8.1112  24.7439  24.7626  24.8656  50.4739  50.5262  50.5768
 50.6074  50.6087  50.6454  50.6486
 
 Beta MOs
 -- Occupied --
-19.4211 -19.3955 -19.3617 -19.3584 -19.3562 -19.3510 -19.3496 -10.4571
-10.4553 -10.4420  -1.2831  -1.2279  -1.2014  -1.1725  -1.1517  -1.1390
 -0.9956  -0.8613  -0.7883  -0.7378  -0.6916  -0.6794  -0.6612  -0.6382
 -0.6327  -0.6081  -0.5996  -0.5904  -0.5420  -0.5198  -0.5163  -0.5033
 -0.4898  -0.4827  -0.4583  -0.4358  -0.4314  -0.4271  -0.4137  -0.3937
 -0.3698
 -- Virtual --
 -0.0545   0.0279   0.0375   0.0407   0.0476   0.0586   0.0654   0.0767
  0.0798   0.0892   0.1103   0.1154   0.1181   0.1289   0.1372   0.1442
  0.1508   0.1559   0.1661   0.1737   0.1765   0.1800   0.2028   0.2121
  0.2257   0.2305   0.2376   0.2465   0.2555   0.2617   0.2634   0.2739
  0.2786   0.2878   0.2904   0.2970   0.3034   0.3087   0.3172   0.3218
  0.3252   0.3293   0.3321   0.3432   0.3463   0.3472   0.3556   0.3621
  0.3660   0.3743   0.3800   0.3823   0.3910   0.3990   0.4046   0.4145
  0.4154   0.4208   0.4398   0.4499   0.4583   0.4615   0.4717   0.4914
  0.5088   0.5230   0.5383   0.5774   0.5798   0.5988   0.6116   0.6208
  0.6284   0.6399   0.6590   0.6635   0.6704   0.6858   0.6900   0.7065
  0.7115   0.7234   0.7302   0.7372   0.7599   0.7784   0.8035   0.8208
  0.8298   0.8495   0.8830   0.8978   0.9161   0.9340   0.9629   0.9762
  0.9925   0.9980   1.0048   1.0414   1.0577   1.0716   1.0759   1.0789
  1.0905   1.0977   1.1092   1.1285   1.1402   1.1475   1.1537   1.1819
  1.1904   1.1935   1.2044   1.2091   1.2270   1.2334   1.2386   1.2563
  1.2615   1.2734   1.2811   1.3022   1.3157   1.3179   1.3299   1.3405
  1.3467   1.3584   1.3721   1.3909   1.3959   1.4165   1.4302   1.4373
  1.4548   1.4753   1.4956   1.4967   1.5114   1.5177   1.5369   1.5495
  1.5716   1.5915   1.6057   1.6145   1.6526   1.6738   1.7117   1.7233
  1.7293   1.7486   1.7805   1.7929   1.8283   1.8443   1.8770   1.9049
  1.9158   1.9227   1.9517   1.9606   1.9921   2.0095   2.0145   2.0880
  2.0918   2.1040   2.1275   2.1623   2.1912   2.2115   2.2597   2.2683
  2.3005   2.3168   2.3403   2.3576   2.3618   2.3897   2.4323   2.4404
  2.4561   2.4706   2.4999   2.5391   2.5463   2.5782   2.6014   2.6191
  2.6632   2.7169   2.7326   2.7721   2.7853   2.8045   2.8562   2.9119
  2.9558   3.0311   3.0565   3.0995   3.1327   3.1603   3.1684   3.1931
  3.2003   3.2282   3.2991   3.3079   3.3376   3.3563   3.3657   3.3724
  3.4075   3.4350   3.4791   3.4927   3.5164   3.5369   3.5546   3.5751
  3.5931   3.6053   3.6246   3.6671   3.6764   3.7057   3.7272   3.7456
  3.7929   3.8084   3.8238   3.8424   3.8500   3.8654   3.8853   3.8924
  3.9069   3.9199   3.9468   3.9592   4.0059   4.0125   4.0669   4.1038
  4.1192   4.1486   4.1652   4.2042   4.2241   4.2416   4.2653   4.2705
  4.3176   4.3327   4.3537   4.3614   4.3753   4.3786   4.4243   4.4389
  4.4682   4.4922   4.5114   4.5501   4.6081   4.6445   4.7433   4.7573
  4.8117   4.8725   4.9470   5.0506   5.1025   5.1916   5.1986   5.2011
  5.2208   5.2270   5.2433   5.2556   5.2593   5.2639   5.2878   5.2912
  5.3002   5.3102   5.3158   5.3309   5.3338   5.3490   5.3630   5.3702
  5.3932   5.3941   5.4082   5.4199   5.4389   5.4717   5.5158   5.5179
  5.5238   5.5452   5.5623   5.5769   5.5997   5.6292   5.6350   5.6460
  5.6527   5.6643   5.6716   5.7138   5.7379   5.7595   5.8126   5.8436
  5.9155   5.9429   5.9892   6.0380   6.0487   6.0658   6.1147   6.1240
  6.1439   6.2531   6.3326   6.3784   6.4838   6.4962   6.5661   6.7116
  6.7348   6.8650   7.0183   7.0268   7.0431   7.0775   7.0955   7.1096
  7.1292   7.1569   7.2034   7.2099   7.2296   7.2415   7.2720   7.2774
  7.2969   7.3135   7.3409   7.3446   7.3627   7.3784   7.4036   7.4223
  7.4298   7.4656   7.4744   7.4857   7.5403   7.6199   7.6278   7.6686
  7.7181   7.7475   7.7863   7.8016   7.8320   7.8498   7.8742   7.9084
  7.9475   8.0541   8.1174  24.7457  24.7627  24.8689  50.4809  50.5328
 50.5775  50.6079  50.6098  50.6465  50.6500
 --------------------------------------------------------------
 
          Ground-State Mulliken Net Atomic Charges

     Atom                 Charge (a.u.)    Spin (a.u.)
  --------------------------------------------------------
      1 C                    -0.446713       0.265951
      2 C                     0.061524      -0.006845
      3 O                    -0.457438       0.000245
      4 O                    -0.413387       0.001142
      5 H                     0.539675       0.010589
      6 H                     0.278118       0.011814
      7 H                     0.366843      -0.000180
      8 H                     0.338875      -0.000726
      9 O                    -0.314692       0.499484
     10 O                    -0.073449       0.116073
     11 C                    -0.186949      -0.000558
     12 O                    -0.460340       0.001054
     13 H                     0.204720      -0.000090
     14 H                     0.238205       0.002182
     15 H                     0.381549       0.000294
     16 O                    -0.371675       0.048008
     17 O                    -0.373213       0.052259
     18 H                     0.358069      -0.000013
     19 H                     0.330278      -0.000682
  --------------------------------------------------------
  Sum of atomic charges =    -0.000000
  Sum of spin   charges =     1.000000

 -----------------------------------------------------------------
                    Cartesian Multipole Moments
 -----------------------------------------------------------------
    Charge (ESU x 10^10)
                -0.0000
    Dipole Moment (Debye)
         X      -3.2464      Y      -3.5810      Z       2.7399
       Tot       5.5560
    Quadrupole Moments (Debye-Ang)
        XX     -72.8850     XY     -23.6368     YY     -84.2218
        XZ      -8.7019     YZ     -11.1621     ZZ     -36.9188
    Octopole Moments (Debye-Ang^2)
       XXX    -768.5829    XXY    -273.0007    XYY    -359.8581
       YYY    -571.4832    XXZ    -237.4125    XYZ    -103.4947
       YYZ    -297.6443    XZZ    -257.9034    YZZ    -166.1613
       ZZZ    -456.6578
    Hexadecapole Moments (Debye-Ang^3)
      XXXX   -6925.5321   XXXY   -2382.4617   XXYY   -2170.3905
      XYYY   -2135.5850   YYYY   -3444.5547   XXXZ   -2471.2563
      XXYZ   -1019.8870   XYYZ   -1370.5548   YYYZ   -1972.6191
      XXZZ   -1950.6907   XYZZ    -939.2885   YYZZ   -1491.7355
      XZZZ   -2426.5902   YZZZ   -1406.3765   ZZZZ   -3565.9264
 -----------------------------------------------------------------
 Calculating analytic gradient of the SCF energy
 Gradient of CDS energy
            1           2           3           4           5           6
    1  -0.0004469  -0.0003685  -0.0001920   0.0005484  -0.0000276  -0.0000410
    2   0.0009965   0.0020639   0.0010243  -0.0028010  -0.0001510  -0.0001042
    3  -0.0058334   0.0020666  -0.0005998  -0.0017133   0.0000823  -0.0001420
            7           8           9          10          11          12
    1  -0.0000744  -0.0002443   0.0000656  -0.0003006  -0.0018550   0.0028426
    2  -0.0004557   0.0003397   0.0000052   0.0002105  -0.0024051   0.0017971
    3   0.0002666   0.0003244  -0.0000480   0.0000437  -0.0000035   0.0003344
           13          14          15          16          17          18
    1  -0.0000760  -0.0002171  -0.0001866  -0.0005204   0.0010226  -0.0000237
    2   0.0000954   0.0003921  -0.0002695   0.0037775  -0.0044841  -0.0003174
    3  -0.0002769   0.0000002   0.0001860   0.0032119   0.0027105  -0.0002264
           19
    1   0.0000950
    2   0.0002859
    3  -0.0003832
 Gradient of SCF Energy
            1           2           3           4           5           6
    1  -0.0038405   0.0123563   0.0184526   0.0163796   0.0118002  -0.0102031
    2   0.0008491   0.0015501   0.0138736   0.0083250  -0.0030811  -0.0048692
    3   0.0015992   0.0016816  -0.0079737  -0.0124136   0.0044922  -0.0022998
            7           8           9          10          11          12
    1  -0.0190373  -0.0145430  -0.0148069   0.0046635  -0.0078817   0.0087658
    2  -0.0098679  -0.0062151   0.0067383  -0.0037470   0.0090110  -0.0117839
    3   0.0106959   0.0112845  -0.0023131  -0.0020808  -0.0045065  -0.0013834
           13          14          15          16          17          18
    1   0.0040770   0.0022334  -0.0074558  -0.0007538  -0.0050818   0.0002836
    2  -0.0041412  -0.0021917   0.0046958   0.0009937   0.0028859  -0.0030436
    3  -0.0027237   0.0065006  -0.0000030  -0.0074031   0.0092434   0.0041629
           19
    1   0.0045918
    2   0.0000182
    3  -0.0065599
 Max gradient component =       1.904E-02
 RMS gradient           =       7.999E-03
 Computing fast CPCM-SWIG gradient
 Updating gradient with PCM contributions...
 -- total gradient after adding PCM contribution --
---------------------------------------------------
  Atom         X              Y              Z     
---------------------------------------------------
   1      -0.003658      -0.000068      -0.001084
   2       0.000518       0.000163      -0.000189
   3      -0.000210      -0.001129       0.001317
   4      -0.000918       0.000330      -0.000789
   5       0.014367       0.000592       0.006508
   6       0.000320      -0.000339      -0.000766
   7       0.000061       0.000423       0.000538
   8       0.000803      -0.000156       0.000458
   9      -0.014820       0.002609      -0.004695
  10       0.002674      -0.003087      -0.000407
  11       0.000792       0.003549      -0.000160
  12      -0.000044      -0.002660       0.002667
  13      -0.000805      -0.000146      -0.000751
  14       0.000789      -0.001133      -0.000095
  15      -0.001519       0.001572      -0.003449
  16       0.001155       0.000367      -0.000098
  17       0.001594      -0.000543       0.001487
  18      -0.000605      -0.000187      -0.000031
  19      -0.000495      -0.000156      -0.000463
---------------------------------------------------
 Number of fixed atoms: 0
 Gradient time:  CPU 358.82 s  wall 18.98 s
 ######################################################
 ######################################################
 # Starting finite difference calculation for IDERIV  #
 Finite diff step size:  1.88973e-03 a.u.
 ----------------------------------------------------------------
             Standard Nuclear Orientation (Angstroms)
    I     Atom           X                Y                Z
 ----------------------------------------------------------------
    1      C       3.4491061000     3.1520461000     2.6452835000
    2      C       2.3882569000     2.9061656000     3.7135599000
    3      O       2.8519395000     1.8504447000     4.5270770000
    4      O       2.2483489000     4.0959508000     4.4446133000
    5      H       4.5054328000     3.2632218000     3.2374105000
    6      H       1.4477142000     2.6224870000     3.2345610000
    7      H       2.1000926000     1.4282885000     4.9576371000
    8      H       1.5122149000     3.9902324000     5.0579931000
    9      O       5.7112734000     3.2148066000     3.8063041000
   10      O       6.4196429000     2.2537304000     3.1297963000
   11      C       6.2908315000     0.9983808000     3.7946792000
   12      O       5.0380283000     0.4099030000     3.5866061000
   13      H       7.0334398000     0.3727748000     3.3081479000
   14      H       6.5060114000     1.1356742000     4.8529162000
   15      H       4.3563326000     0.8804687000     4.1008536000
   16      O       3.5911268000     2.1000516000     1.7453293000
   17      O       3.1583743000     4.3162427000     1.9654639000
   18      H       4.0769199000     1.3734628000     2.1730819000
   19      H       3.7336083000     4.3643270000     1.1904248000
 ----------------------------------------------------------------
 Nuclear Repulsion Energy =         637.73721575 hartrees
 There are       42 alpha and       41 beta electrons
 Discretize the solute cavity surface with Lebedev spheres
	Using 110 Lebedev grid points for each H atom
	Using 194 Lebedev grid points for other atoms
	Atomic van der Waals radii will be scaled by 1.20
 Remove points where switching function is < 1.0e-08
 Keep 1512 surface tesserae and discard 1418 interior tesserae
 Molecular Surface Area = 162.349 Angst**2
 Requested basis set is 6-311++G(2df,2p)
 There are 134 shells and 430 basis functions
 A cutoff of  1.0D-12 yielded   7894 shell pairs
 There are     80516 function pairs (     99600 Cartesian)
 Smallest overlap matrix eigenvalue = 1.53E-05
 Guess MOs from SCF MO coefficient file

 -----------------------------------------------------------------------
  General SCF calculation program by
  Eric Jon Sundstrom, Paul Horn, Yuezhi Mao, Dmitri Zuev, Alec White,
  David Stuck, Shaama M.S., Shane Yost, Joonho Lee, David Small,
  Daniel Levine, Susi Lehtola, Hugh Burton, Evgeny Epifanovsky,
  Bang C. Huynh
 -----------------------------------------------------------------------
 Exchange:     0.1500 Hartree-Fock + 1.0000 wB97M-V + LR-HF
 Correlation:  1.0000 wB97M-V
 Using SG-2 standard quadrature grid
 Nonlocal Correlation:  VV10 with C = 0.0100 and b = 6.00 and scale = 1.00000
 Grid used for NLC:  SG-1 standard quadrature
 
 Citation of the SMD model:
 Marenich, A.V.; Cramer, C.J.; Truhlar, D.G.
 J. Phys. Chem. B 2009, 113, 6378-6396.
 iSolventCode=           1
 Solvent: water                                                           
 
 vradii
            1           2           3           4           5           6
    1   1.8500000   1.8500000   1.5200000   1.5200000   1.2000000   1.2000000
            7           8           9          10          11          12
    1   1.2000000   1.2000000   1.5200000   1.5200000   1.8500000   1.5200000
           13          14          15          16          17          18
    1   1.2000000   1.2000000   1.2000000   1.5200000   1.5200000   1.2000000
           19
    1   1.2000000
 -------------------------------------------------------
 OpenMP BLAS3 based DFT computing Module                
 Release: version 1.0, May 2013, Q-Chem Inc. Pittsburgh 
 -------------------------------------------------------
 A unrestricted SCF calculation will be
 performed using Roothaan-Hall, DIIS, GDM
 SCF converges when RMS gradient is below 1.0e-07
 ---------------------------------------
  Cycle       Energy         DIIS error
 ---------------------------------------
    1    -646.1543798019      2.41e-04  Roothaan Step
 ---------------------------------------
  Cycle       Energy         DIIS error
 ---------------------------------------
    1    -646.1987096032      2.62e-04  
    2    -646.2057410307      1.87e-04  Done DIIS. Switching to GDM
 ---------------------------------------
  Cycle       Energy        RMS Gradient
 ---------------------------------------
    1    -646.2057410307      5.16e-03   Normal BFGS step
    2    -646.2058759701      7.34e-03   Normal BFGS step
    3    -646.2080054282      8.53e-04   Normal BFGS step
    4    -646.2080213364      1.50e-03   Normal BFGS step
    5    -646.2080429062      6.95e-04   Normal BFGS step
    6    -646.2080439647      3.67e-04   Normal BFGS step
    7    -646.2080447030      3.19e-04   Normal BFGS step
    8    -646.2080449409      2.13e-04   Normal BFGS step
    9    -646.2080450448      3.52e-05   Normal BFGS step
   10    -646.2080450677      2.03e-05   Normal BFGS step
   11    -646.2080450708      1.63e-05   Normal BFGS step
   12    -646.2080450717      1.10e-05   Normal BFGS step
   13    -646.2080450721      6.38e-06   Normal BFGS step
   14    -646.2080450723      3.38e-06   Normal BFGS step
   15    -646.2080450723      1.30e-06   Normal BFGS step
   16    -646.2080450723      6.47e-07   Normal BFGS step
   17    -646.2080450723      2.39e-07   Normal BFGS step
   18    -646.2080450723      1.26e-07   Normal BFGS step
   19    -646.2080450724      3.71e-08  Convergence criterion met
 ---------------------------------------
 SCF time:   CPU 3008.58s  wall 119.00s 
<S^2> =          0.756588226
(3)  G-ENP(liq) elect-nuc-pol free energy of system     -646.208045072 a.u.
(4)  G-CDS(liq) cavity-dispersion-solvent structure 
     free energy                                                3.9675 kcal/mol
(6)  G-S(liq) free energy of system                     -646.201722488 a.u.
 SCF   energy in the final basis set =     -646.2017224879
 Total energy in the final basis set =     -646.2017224879
 
 --------------------------------------------------------------
 
                    Orbital Energies (a.u.)
 --------------------------------------------------------------
 
 Alpha MOs
 -- Occupied --
-19.4249 -19.4118 -19.3633 -19.3584 -19.3579 -19.3512 -19.3496 -10.4624
-10.4557 -10.4419  -1.2992  -1.2311  -1.2027  -1.1747  -1.1544  -1.1402
 -1.0196  -0.8664  -0.7931  -0.7442  -0.7031  -0.6816  -0.6669  -0.6441
 -0.6359  -0.6179  -0.6045  -0.5987  -0.5612  -0.5270  -0.5217  -0.5165
 -0.4974  -0.4880  -0.4668  -0.4449  -0.4377  -0.4285  -0.4166  -0.4141
 -0.4051  -0.3351
 -- Virtual --
  0.0269   0.0374   0.0406   0.0476   0.0585   0.0656   0.0764   0.0796
  0.0881   0.1092   0.1154   0.1181   0.1289   0.1367   0.1439   0.1505
  0.1553   0.1655   0.1675   0.1756   0.1794   0.2012   0.2108   0.2252
  0.2289   0.2368   0.2454   0.2546   0.2609   0.2623   0.2727   0.2774
  0.2863   0.2890   0.2958   0.3025   0.3076   0.3150   0.3206   0.3238
  0.3275   0.3306   0.3418   0.3441   0.3456   0.3545   0.3612   0.3649
  0.3728   0.3790   0.3805   0.3902   0.3982   0.4024   0.4123   0.4140
  0.4181   0.4388   0.4475   0.4556   0.4591   0.4625   0.4900   0.5084
  0.5188   0.5379   0.5755   0.5790   0.5982   0.6099   0.6188   0.6274
  0.6381   0.6583   0.6631   0.6699   0.6854   0.6887   0.7008   0.7095
  0.7219   0.7293   0.7357   0.7587   0.7776   0.8026   0.8193   0.8281
  0.8481   0.8817   0.8970   0.9141   0.9335   0.9619   0.9755   0.9904
  0.9962   1.0033   1.0395   1.0560   1.0695   1.0745   1.0782   1.0867
  1.0968   1.1061   1.1251   1.1373   1.1467   1.1512   1.1794   1.1869
  1.1913   1.2025   1.2074   1.2244   1.2301   1.2358   1.2531   1.2588
  1.2716   1.2788   1.2993   1.3136   1.3151   1.3260   1.3373   1.3434
  1.3540   1.3689   1.3880   1.3916   1.4149   1.4287   1.4345   1.4522
  1.4737   1.4941   1.4945   1.5094   1.5159   1.5360   1.5480   1.5691
  1.5907   1.6048   1.6129   1.6471   1.6685   1.7086   1.7189   1.7238
  1.7461   1.7757   1.7882   1.8220   1.8396   1.8747   1.8980   1.9116
  1.9185   1.9471   1.9573   1.9885   2.0059   2.0119   2.0844   2.0860
  2.0981   2.1244   2.1600   2.1888   2.2097   2.2568   2.2655   2.2976
  2.3129   2.3386   2.3556   2.3594   2.3869   2.4286   2.4392   2.4507
  2.4678   2.4966   2.5346   2.5418   2.5756   2.5962   2.6166   2.6600
  2.7151   2.7284   2.7688   2.7829   2.8005   2.8509   2.9101   2.9549
  3.0300   3.0481   3.0977   3.1321   3.1553   3.1664   3.1920   3.1953
  3.2273   3.2976   3.3052   3.3311   3.3559   3.3654   3.3707   3.4042
  3.4330   3.4754   3.4893   3.5153   3.5331   3.5514   3.5726   3.5894
  3.6017   3.6178   3.6607   3.6665   3.6992   3.7241   3.7415   3.7868
  3.8067   3.8198   3.8377   3.8453   3.8648   3.8823   3.8878   3.9047
  3.9193   3.9448   3.9550   4.0015   4.0105   4.0644   4.0988   4.1174
  4.1463   4.1614   4.2025   4.2214   4.2400   4.2639   4.2706   4.3146
  4.3291   4.3511   4.3637   4.3766   4.3781   4.4264   4.4380   4.4724
  4.4932   4.5127   4.5488   4.6012   4.6401   4.7266   4.7492   4.8027
  4.8569   4.9299   5.0371   5.0977   5.1601   5.1835   5.1977   5.2133
  5.2211   5.2278   5.2467   5.2521   5.2572   5.2832   5.2860   5.2939
  5.3024   5.3140   5.3200   5.3263   5.3437   5.3547   5.3658   5.3827
  5.3866   5.3916   5.4113   5.4355   5.4651   5.5073   5.5137   5.5210
  5.5422   5.5584   5.5705   5.5931   5.6246   5.6314   5.6403   5.6489
  5.6629   5.6702   5.7084   5.7368   5.7570   5.8092   5.8424   5.9078
  5.9276   5.9843   6.0342   6.0465   6.0643   6.1097   6.1195   6.1427
  6.2493   6.3062   6.3715   6.4796   6.4932   6.5614   6.7086   6.7336
  6.8596   6.9727   6.9986   7.0156   7.0737   7.0861   7.0983   7.1250
  7.1496   7.1886   7.2019   7.2274   7.2395   7.2710   7.2745   7.2944
  7.3098   7.3368   7.3395   7.3531   7.3692   7.3894   7.4099   7.4235
  7.4500   7.4593   7.4835   7.5359   7.5957   7.6238   7.6635   7.7164
  7.7387   7.7819   7.7931   7.8308   7.8487   7.8709   7.9068   7.9443
  8.0254   8.1111  24.7441  24.7626  24.8648  50.4738  50.5262  50.5768
 50.6074  50.6087  50.6455  50.6486
 
 Beta MOs
 -- Occupied --
-19.4212 -19.3957 -19.3616 -19.3584 -19.3562 -19.3510 -19.3496 -10.4571
-10.4552 -10.4420  -1.2832  -1.2278  -1.2013  -1.1725  -1.1517  -1.1389
 -0.9956  -0.8612  -0.7883  -0.7377  -0.6916  -0.6793  -0.6612  -0.6381
 -0.6327  -0.6081  -0.5995  -0.5905  -0.5420  -0.5198  -0.5163  -0.5033
 -0.4898  -0.4827  -0.4583  -0.4358  -0.4314  -0.4271  -0.4137  -0.3938
 -0.3698
 -- Virtual --
 -0.0545   0.0279   0.0375   0.0407   0.0476   0.0586   0.0654   0.0767
  0.0798   0.0891   0.1103   0.1154   0.1181   0.1289   0.1372   0.1442
  0.1508   0.1559   0.1661   0.1736   0.1765   0.1800   0.2029   0.2121
  0.2257   0.2305   0.2376   0.2465   0.2555   0.2616   0.2634   0.2738
  0.2786   0.2878   0.2904   0.2970   0.3034   0.3087   0.3172   0.3218
  0.3252   0.3293   0.3321   0.3432   0.3463   0.3471   0.3556   0.3621
  0.3660   0.3743   0.3800   0.3823   0.3910   0.3990   0.4046   0.4145
  0.4154   0.4209   0.4398   0.4498   0.4583   0.4614   0.4719   0.4915
  0.5088   0.5231   0.5384   0.5774   0.5798   0.5988   0.6115   0.6207
  0.6284   0.6399   0.6590   0.6635   0.6705   0.6858   0.6900   0.7066
  0.7114   0.7234   0.7302   0.7372   0.7599   0.7784   0.8035   0.8208
  0.8297   0.8496   0.8830   0.8978   0.9160   0.9341   0.9629   0.9762
  0.9925   0.9980   1.0048   1.0415   1.0577   1.0716   1.0759   1.0789
  1.0905   1.0977   1.1092   1.1285   1.1402   1.1475   1.1537   1.1819
  1.1904   1.1935   1.2044   1.2091   1.2271   1.2334   1.2386   1.2563
  1.2615   1.2734   1.2811   1.3023   1.3157   1.3178   1.3299   1.3405
  1.3468   1.3584   1.3721   1.3908   1.3959   1.4165   1.4302   1.4374
  1.4547   1.4753   1.4955   1.4966   1.5114   1.5177   1.5369   1.5495
  1.5716   1.5915   1.6057   1.6146   1.6526   1.6738   1.7116   1.7233
  1.7294   1.7487   1.7805   1.7929   1.8284   1.8443   1.8771   1.9050
  1.9158   1.9228   1.9517   1.9605   1.9920   2.0094   2.0145   2.0879
  2.0917   2.1040   2.1274   2.1623   2.1912   2.2115   2.2597   2.2683
  2.3006   2.3168   2.3404   2.3576   2.3618   2.3897   2.4325   2.4404
  2.4562   2.4707   2.4997   2.5391   2.5463   2.5782   2.6016   2.6191
  2.6633   2.7169   2.7327   2.7720   2.7853   2.8044   2.8561   2.9120
  2.9558   3.0309   3.0561   3.0991   3.1326   3.1602   3.1685   3.1931
  3.2004   3.2282   3.2992   3.3081   3.3378   3.3562   3.3657   3.3724
  3.4076   3.4350   3.4791   3.4928   3.5163   3.5370   3.5546   3.5751
  3.5929   3.6052   3.6249   3.6671   3.6763   3.7061   3.7272   3.7457
  3.7930   3.8083   3.8239   3.8424   3.8502   3.8654   3.8852   3.8926
  3.9069   3.9199   3.9468   3.9591   4.0058   4.0125   4.0665   4.1038
  4.1190   4.1486   4.1650   4.2041   4.2239   4.2415   4.2653   4.2705
  4.3175   4.3325   4.3535   4.3616   4.3754   4.3785   4.4244   4.4388
  4.4682   4.4923   4.5114   4.5501   4.6084   4.6446   4.7434   4.7572
  4.8117   4.8728   4.9470   5.0505   5.1024   5.1916   5.1986   5.2010
  5.2209   5.2269   5.2433   5.2556   5.2593   5.2639   5.2878   5.2912
  5.3003   5.3102   5.3158   5.3309   5.3338   5.3490   5.3630   5.3702
  5.3931   5.3940   5.4082   5.4199   5.4389   5.4716   5.5158   5.5179
  5.5237   5.5452   5.5622   5.5768   5.5997   5.6291   5.6350   5.6459
  5.6527   5.6644   5.6716   5.7137   5.7379   5.7596   5.8126   5.8435
  5.9153   5.9433   5.9890   6.0379   6.0487   6.0661   6.1146   6.1240
  6.1439   6.2524   6.3326   6.3783   6.4840   6.4963   6.5659   6.7116
  6.7348   6.8647   7.0183   7.0267   7.0431   7.0775   7.0955   7.1096
  7.1292   7.1569   7.2033   7.2099   7.2296   7.2415   7.2720   7.2774
  7.2970   7.3134   7.3409   7.3446   7.3628   7.3785   7.4036   7.4223
  7.4299   7.4656   7.4744   7.4857   7.5403   7.6199   7.6278   7.6686
  7.7181   7.7476   7.7864   7.8015   7.8320   7.8498   7.8741   7.9084
  7.9476   8.0541   8.1174  24.7459  24.7627  24.8680  50.4808  50.5327
 50.5775  50.6079  50.6098  50.6465  50.6500
 --------------------------------------------------------------
 
          Ground-State Mulliken Net Atomic Charges

     Atom                 Charge (a.u.)    Spin (a.u.)
  --------------------------------------------------------
      1 C                    -0.447432       0.265207
      2 C                     0.061284      -0.006763
      3 O                    -0.457458       0.000244
      4 O                    -0.413430       0.001135
      5 H                     0.540073       0.010537
      6 H                     0.278150       0.011735
      7 H                     0.366821      -0.000182
      8 H                     0.338839      -0.000723
      9 O                    -0.314169       0.500319
     10 O                    -0.073132       0.116405
     11 C                    -0.186901      -0.000563
     12 O                    -0.460316       0.001065
     13 H                     0.204757      -0.000090
     14 H                     0.238239       0.002187
     15 H                     0.381554       0.000290
     16 O                    -0.371631       0.047856
     17 O                    -0.373410       0.052035
     18 H                     0.357995      -0.000018
     19 H                     0.330166      -0.000677
  --------------------------------------------------------
  Sum of atomic charges =     0.000000
  Sum of spin   charges =     1.000000

 -----------------------------------------------------------------
                    Cartesian Multipole Moments
 -----------------------------------------------------------------
    Charge (ESU x 10^10)
                 0.0000
    Dipole Moment (Debye)
         X      -3.2328      Y      -3.5843      Z       2.7446
       Tot       5.5526
    Quadrupole Moments (Debye-Ang)
        XX     -72.7630     XY     -23.6115     YY     -84.2418
        XZ      -8.6371     YZ     -11.1558     ZZ     -36.8936
    Octopole Moments (Debye-Ang^2)
       XXX    -767.7148    XXY    -272.7204    XYY    -359.8146
       YYY    -571.5951    XXZ    -236.9175    XYZ    -103.3404
       YYZ    -297.6410    XZZ    -257.6336    YZZ    -166.1080
       ZZZ    -456.5465
    Hexadecapole Moments (Debye-Ang^3)
      XXXX   -6919.6942   XXXY   -2380.3864   XXYY   -2169.6587
      XYYY   -2135.6208   YYYY   -3445.1528   XXXZ   -2467.9107
      XXYZ   -1018.6457   XYYZ   -1370.1215   YYYZ   -1972.6967
      XXZZ   -1948.7284   XYZZ    -938.6053   YYZZ   -1491.6036
      XZZZ   -2425.4673   YZZZ   -1406.1173   ZZZZ   -3565.4690
 -----------------------------------------------------------------
 Calculating analytic gradient of the SCF energy
 Gradient of CDS energy
            1           2           3           4           5           6
    1  -0.0004518  -0.0003689  -0.0001920   0.0005484  -0.0000275  -0.0000410
    2   0.0009921   0.0020639   0.0010243  -0.0028009  -0.0001522  -0.0001042
    3  -0.0058381   0.0020666  -0.0005998  -0.0017134   0.0000816  -0.0001423
            7           8           9          10          11          12
    1  -0.0000744  -0.0002443   0.0000656  -0.0003005  -0.0018550   0.0028426
    2  -0.0004557   0.0003398   0.0000052   0.0002104  -0.0024051   0.0017971
    3   0.0002666   0.0003244  -0.0000474   0.0000439  -0.0000035   0.0003344
           13          14          15          16          17          18
    1  -0.0000760  -0.0002171  -0.0001866  -0.0005182   0.0010257  -0.0000236
    2   0.0000954   0.0003921  -0.0002695   0.0037836  -0.0044853  -0.0003172
    3  -0.0002769   0.0000002   0.0001860   0.0032168   0.0027105  -0.0002262
           19
    1   0.0000946
    2   0.0002864
    3  -0.0003834
 Gradient of SCF Energy
            1           2           3           4           5           6
    1  -0.0031388   0.0120451   0.0184622   0.0163723   0.0118576  -0.0102227
    2   0.0007963   0.0014981   0.0138838   0.0083338  -0.0031049  -0.0048763
    3   0.0013819   0.0018205  -0.0079994  -0.0124139   0.0045678  -0.0022510
            7           8           9          10          11          12
    1  -0.0190319  -0.0145313  -0.0150689   0.0047183  -0.0078929   0.0087480
    2  -0.0098598  -0.0062186   0.0068251  -0.0038581   0.0090680  -0.0117982
    3   0.0106872   0.0112768  -0.0023471  -0.0021284  -0.0045485  -0.0013811
           13          14          15          16          17          18
    1   0.0040909   0.0022384  -0.0074466  -0.0008672  -0.0052201   0.0002856
    2  -0.0041544  -0.0021902   0.0046984   0.0010631   0.0029483  -0.0030229
    3  -0.0027310   0.0065264  -0.0000028  -0.0073713   0.0092423   0.0041988
           19
    1   0.0046020
    2  -0.0000313
    3  -0.0065272
 Max gradient component =       1.903E-02
 RMS gradient           =       8.003E-03
 Computing fast CPCM-SWIG gradient
 Updating gradient with PCM contributions...
 -- total gradient after adding PCM contribution --
---------------------------------------------------
  Atom         X              Y              Z     
---------------------------------------------------
   1      -0.002960      -0.000127      -0.001294
   2       0.000231       0.000122      -0.000043
   3      -0.000189      -0.001113       0.001289
   4      -0.000913       0.000335      -0.000794
   5       0.014420       0.000566       0.006584
   6       0.000284      -0.000349      -0.000733
   7       0.000057       0.000427       0.000532
   8       0.000804      -0.000159       0.000456
   9      -0.015088       0.002705      -0.004726
  10       0.002729      -0.003201      -0.000460
  11       0.000802       0.003599      -0.000185
  12      -0.000061      -0.002669       0.002670
  13      -0.000805      -0.000150      -0.000749
  14       0.000788      -0.001136      -0.000090
  15      -0.001511       0.001572      -0.003454
  16       0.001051       0.000435      -0.000068
  17       0.001452      -0.000486       0.001508
  18      -0.000608      -0.000170       0.000005
  19      -0.000484      -0.000200      -0.000447
---------------------------------------------------
 Number of fixed atoms: 0
 Gradient time:  CPU 359.72 s  wall 18.81 s
 ----------------------------------------------------------------
             Standard Nuclear Orientation (Angstroms)
    I     Atom           X                Y                Z
 ----------------------------------------------------------------
    1      C       3.4471061000     3.1520461000     2.6452835000
    2      C       2.3882569000     2.9061656000     3.7135599000
    3      O       2.8519395000     1.8504447000     4.5270770000
    4      O       2.2483489000     4.0959508000     4.4446133000
    5      H       4.5054328000     3.2632218000     3.2374105000
    6      H       1.4477142000     2.6224870000     3.2345610000
    7      H       2.1000926000     1.4282885000     4.9576371000
    8      H       1.5122149000     3.9902324000     5.0579931000
    9      O       5.7112734000     3.2148066000     3.8063041000
   10      O       6.4196429000     2.2537304000     3.1297963000
   11      C       6.2908315000     0.9983808000     3.7946792000
   12      O       5.0380283000     0.4099030000     3.5866061000
   13      H       7.0334398000     0.3727748000     3.3081479000
   14      H       6.5060114000     1.1356742000     4.8529162000
   15      H       4.3563326000     0.8804687000     4.1008536000
   16      O       3.5911268000     2.1000516000     1.7453293000
   17      O       3.1583743000     4.3162427000     1.9654639000
   18      H       4.0769199000     1.3734628000     2.1730819000
   19      H       3.7336083000     4.3643270000     1.1904248000
 ----------------------------------------------------------------
 Nuclear Repulsion Energy =         637.73896835 hartrees
 There are       42 alpha and       41 beta electrons
 Discretize the solute cavity surface with Lebedev spheres
	Using 110 Lebedev grid points for each H atom
	Using 194 Lebedev grid points for other atoms
	Atomic van der Waals radii will be scaled by 1.20
 Remove points where switching function is < 1.0e-08
 Keep 1512 surface tesserae and discard 1418 interior tesserae
 Molecular Surface Area = 162.357 Angst**2
 Requested basis set is 6-311++G(2df,2p)
 There are 134 shells and 430 basis functions
 A cutoff of  1.0D-12 yielded   7894 shell pairs
 There are     80516 function pairs (     99600 Cartesian)
 Smallest overlap matrix eigenvalue = 1.53E-05
 Guess MOs from SCF MO coefficient file

 -----------------------------------------------------------------------
  General SCF calculation program by
  Eric Jon Sundstrom, Paul Horn, Yuezhi Mao, Dmitri Zuev, Alec White,
  David Stuck, Shaama M.S., Shane Yost, Joonho Lee, David Small,
  Daniel Levine, Susi Lehtola, Hugh Burton, Evgeny Epifanovsky,
  Bang C. Huynh
 -----------------------------------------------------------------------
 Exchange:     0.1500 Hartree-Fock + 1.0000 wB97M-V + LR-HF
 Correlation:  1.0000 wB97M-V
 Using SG-2 standard quadrature grid
 Nonlocal Correlation:  VV10 with C = 0.0100 and b = 6.00 and scale = 1.00000
 Grid used for NLC:  SG-1 standard quadrature
 
 Citation of the SMD model:
 Marenich, A.V.; Cramer, C.J.; Truhlar, D.G.
 J. Phys. Chem. B 2009, 113, 6378-6396.
 iSolventCode=           1
 Solvent: water                                                           
 
 vradii
            1           2           3           4           5           6
    1   1.8500000   1.8500000   1.5200000   1.5200000   1.2000000   1.2000000
            7           8           9          10          11          12
    1   1.2000000   1.2000000   1.5200000   1.5200000   1.8500000   1.5200000
           13          14          15          16          17          18
    1   1.2000000   1.2000000   1.2000000   1.5200000   1.5200000   1.2000000
           19
    1   1.2000000
 -------------------------------------------------------
 OpenMP BLAS3 based DFT computing Module                
 Release: version 1.0, May 2013, Q-Chem Inc. Pittsburgh 
 -------------------------------------------------------
 A unrestricted SCF calculation will be
 performed using Roothaan-Hall, DIIS, GDM
 SCF converges when RMS gradient is below 1.0e-07
 ---------------------------------------
  Cycle       Energy         DIIS error
 ---------------------------------------
    1    -646.1543728746      2.41e-04  Roothaan Step
 ---------------------------------------
  Cycle       Energy         DIIS error
 ---------------------------------------
    1    -646.1986873130      2.62e-04  
    2    -646.2057214497      1.87e-04  Done DIIS. Switching to GDM
 ---------------------------------------
  Cycle       Energy        RMS Gradient
 ---------------------------------------
    1    -646.2057214497      5.16e-03   Normal BFGS step
    2    -646.2058570936      7.38e-03   Normal BFGS step
    3    -646.2079917330      1.08e-03   Normal BFGS step
    4    -646.2080082638      1.52e-03   Normal BFGS step
    5    -646.2080302567      8.33e-04   Normal BFGS step
    6    -646.2080315575      4.61e-04   Normal BFGS step
    7    -646.2080324449      3.72e-04   Normal BFGS step
    8    -646.2080328004      2.11e-04   Normal BFGS step
    9    -646.2080329064      4.08e-05   Normal BFGS step
   10    -646.2080329328      2.02e-05   Normal BFGS step
   11    -646.2080329357      1.62e-05   Normal BFGS step
   12    -646.2080329366      1.10e-05   Normal BFGS step
   13    -646.2080329370      6.39e-06   Normal BFGS step
   14    -646.2080329371      3.47e-06   Normal BFGS step
   15    -646.2080329372      1.29e-06   Normal BFGS step
   16    -646.2080329372      6.54e-07   Normal BFGS step
   17    -646.2080329372      2.24e-07   Normal BFGS step
   18    -646.2080329372      1.23e-07   Normal BFGS step
   19    -646.2080329373      3.57e-08  Convergence criterion met
 ---------------------------------------
 SCF time:   CPU 3007.11s  wall 119.00s 
<S^2> =          0.756621296
(3)  G-ENP(liq) elect-nuc-pol free energy of system     -646.208032937 a.u.
(4)  G-CDS(liq) cavity-dispersion-solvent structure 
     free energy                                                3.9685 kcal/mol
(6)  G-S(liq) free energy of system                     -646.201708664 a.u.
 SCF   energy in the final basis set =     -646.2017086636
 Total energy in the final basis set =     -646.2017086636
 
 --------------------------------------------------------------
 
                    Orbital Energies (a.u.)
 --------------------------------------------------------------
 
 Alpha MOs
 -- Occupied --
-19.4246 -19.4115 -19.3634 -19.3584 -19.3580 -19.3512 -19.3497 -10.4626
-10.4558 -10.4418  -1.2989  -1.2313  -1.2028  -1.1746  -1.1545  -1.1402
 -1.0194  -0.8667  -0.7930  -0.7443  -0.7031  -0.6818  -0.6668  -0.6441
 -0.6360  -0.6178  -0.6045  -0.5988  -0.5611  -0.5269  -0.5217  -0.5165
 -0.4975  -0.4881  -0.4668  -0.4451  -0.4376  -0.4286  -0.4166  -0.4141
 -0.4050  -0.3348
 -- Virtual --
  0.0269   0.0374   0.0406   0.0476   0.0585   0.0656   0.0764   0.0796
  0.0881   0.1093   0.1154   0.1181   0.1289   0.1367   0.1439   0.1505
  0.1553   0.1655   0.1676   0.1756   0.1794   0.2011   0.2108   0.2252
  0.2289   0.2368   0.2454   0.2545   0.2609   0.2623   0.2728   0.2774
  0.2862   0.2890   0.2958   0.3025   0.3075   0.3150   0.3206   0.3238
  0.3275   0.3306   0.3418   0.3440   0.3457   0.3544   0.3612   0.3649
  0.3728   0.3790   0.3804   0.3901   0.3982   0.4024   0.4124   0.4141
  0.4180   0.4388   0.4476   0.4555   0.4591   0.4624   0.4900   0.5083
  0.5188   0.5378   0.5756   0.5790   0.5982   0.6100   0.6189   0.6273
  0.6381   0.6582   0.6631   0.6699   0.6854   0.6887   0.7007   0.7096
  0.7220   0.7293   0.7357   0.7587   0.7775   0.8025   0.8193   0.8282
  0.8480   0.8817   0.8970   0.9142   0.9334   0.9618   0.9755   0.9903
  0.9962   1.0033   1.0395   1.0560   1.0695   1.0744   1.0782   1.0868
  1.0967   1.1061   1.1251   1.1373   1.1467   1.1512   1.1794   1.1869
  1.1912   1.2025   1.2074   1.2244   1.2302   1.2357   1.2531   1.2589
  1.2716   1.2787   1.2992   1.3135   1.3151   1.3260   1.3373   1.3432
  1.3542   1.3689   1.3881   1.3916   1.4149   1.4287   1.4345   1.4523
  1.4736   1.4942   1.4946   1.5094   1.5159   1.5360   1.5481   1.5692
  1.5907   1.6046   1.6128   1.6472   1.6685   1.7087   1.7189   1.7236
  1.7460   1.7756   1.7882   1.8218   1.8396   1.8747   1.8978   1.9116
  1.9184   1.9471   1.9574   1.9887   2.0060   2.0120   2.0846   2.0862
  2.0981   2.1245   2.1601   2.1888   2.2098   2.2568   2.2655   2.2975
  2.3130   2.3386   2.3557   2.3594   2.3868   2.4283   2.4393   2.4507
  2.4677   2.4968   2.5346   2.5417   2.5756   2.5959   2.6167   2.6599
  2.7152   2.7283   2.7690   2.7829   2.8006   2.8509   2.9099   2.9549
  3.0304   3.0488   3.0985   3.1322   3.1556   3.1663   3.1920   3.1951
  3.2272   3.2973   3.3049   3.3306   3.3561   3.3655   3.3706   3.4039
  3.4330   3.4755   3.4891   3.5155   3.5329   3.5515   3.5725   3.5898
  3.6018   3.6171   3.6606   3.6666   3.6985   3.7241   3.7414   3.7864
  3.8067   3.8196   3.8376   3.8450   3.8648   3.8824   3.8875   3.9047
  3.9193   3.9449   3.9552   4.0017   4.0104   4.0651   4.0989   4.1177
  4.1464   4.1617   4.2028   4.2218   4.2402   4.2639   4.2705   4.3149
  4.3294   4.3514   4.3636   4.3769   4.3778   4.4261   4.4382   4.4723
  4.4930   4.5127   4.5488   4.6004   4.6401   4.7266   4.7494   4.8028
  4.8564   4.9300   5.0373   5.0978   5.1603   5.1837   5.1977   5.2133
  5.2212   5.2278   5.2468   5.2522   5.2572   5.2831   5.2860   5.2938
  5.3023   5.3140   5.3201   5.3262   5.3437   5.3548   5.3657   5.3828
  5.3866   5.3916   5.4114   5.4356   5.4652   5.5074   5.5135   5.5212
  5.5423   5.5585   5.5705   5.5931   5.6247   5.6313   5.6403   5.6488
  5.6629   5.6701   5.7085   5.7368   5.7569   5.8092   5.8426   5.9078
  5.9269   5.9847   6.0345   6.0465   6.0636   6.1098   6.1195   6.1427
  6.2507   6.3063   6.3717   6.4793   6.4931   6.5619   6.7087   6.7336
  6.8601   6.9728   6.9988   7.0157   7.0737   7.0861   7.0983   7.1251
  7.1497   7.1888   7.2019   7.2273   7.2395   7.2710   7.2745   7.2942
  7.3099   7.3368   7.3396   7.3531   7.3692   7.3892   7.4100   7.4233
  7.4501   7.4593   7.4835   7.5360   7.5957   7.6240   7.6635   7.7165
  7.7385   7.7817   7.7933   7.8309   7.8487   7.8710   7.9069   7.9440
  8.0254   8.1112  24.7437  24.7626  24.8665  50.4740  50.5263  50.5768
 50.6074  50.6087  50.6454  50.6485
 
 Beta MOs
 -- Occupied --
-19.4209 -19.3954 -19.3618 -19.3585 -19.3562 -19.3510 -19.3497 -10.4572
-10.4553 -10.4419  -1.2831  -1.2280  -1.2014  -1.1725  -1.1518  -1.1390
 -0.9955  -0.8615  -0.7883  -0.7378  -0.6915  -0.6795  -0.6611  -0.6382
 -0.6327  -0.6080  -0.5997  -0.5904  -0.5420  -0.5198  -0.5163  -0.5033
 -0.4898  -0.4827  -0.4583  -0.4359  -0.4313  -0.4272  -0.4137  -0.3937
 -0.3697
 -- Virtual --
 -0.0545   0.0279   0.0375   0.0407   0.0476   0.0586   0.0654   0.0767
  0.0798   0.0892   0.1103   0.1154   0.1181   0.1289   0.1372   0.1442
  0.1508   0.1559   0.1661   0.1737   0.1765   0.1800   0.2028   0.2121
  0.2257   0.2305   0.2376   0.2465   0.2555   0.2617   0.2634   0.2739
  0.2786   0.2877   0.2905   0.2970   0.3034   0.3087   0.3173   0.3219
  0.3252   0.3293   0.3321   0.3432   0.3462   0.3472   0.3556   0.3621
  0.3660   0.3743   0.3800   0.3822   0.3910   0.3991   0.4046   0.4145
  0.4154   0.4208   0.4399   0.4499   0.4583   0.4615   0.4716   0.4914
  0.5088   0.5230   0.5383   0.5775   0.5798   0.5988   0.6116   0.6208
  0.6284   0.6399   0.6590   0.6635   0.6704   0.6858   0.6900   0.7065
  0.7115   0.7235   0.7302   0.7372   0.7599   0.7784   0.8035   0.8208
  0.8298   0.8495   0.8830   0.8978   0.9161   0.9340   0.9628   0.9762
  0.9924   0.9980   1.0048   1.0414   1.0577   1.0715   1.0759   1.0789
  1.0906   1.0977   1.1092   1.1285   1.1402   1.1476   1.1537   1.1819
  1.1905   1.1934   1.2043   1.2091   1.2270   1.2334   1.2385   1.2563
  1.2615   1.2734   1.2811   1.3022   1.3155   1.3179   1.3299   1.3405
  1.3467   1.3585   1.3721   1.3909   1.3959   1.4165   1.4302   1.4373
  1.4548   1.4752   1.4956   1.4967   1.5114   1.5177   1.5369   1.5496
  1.5717   1.5915   1.6056   1.6145   1.6527   1.6738   1.7117   1.7233
  1.7292   1.7486   1.7804   1.7929   1.8282   1.8444   1.8770   1.9047
  1.9158   1.9226   1.9517   1.9606   1.9922   2.0095   2.0145   2.0881
  2.0919   2.1040   2.1275   2.1624   2.1912   2.2116   2.2596   2.2683
  2.3005   2.3169   2.3403   2.3577   2.3619   2.3896   2.4322   2.4404
  2.4561   2.4706   2.5000   2.5390   2.5462   2.5782   2.6013   2.6192
  2.6632   2.7170   2.7326   2.7721   2.7854   2.8045   2.8562   2.9118
  2.9558   3.0312   3.0569   3.0999   3.1328   3.1605   3.1684   3.1931
  3.2002   3.2281   3.2990   3.3077   3.3374   3.3564   3.3658   3.3724
  3.4073   3.4350   3.4792   3.4927   3.5164   3.5369   3.5547   3.5750
  3.5933   3.6053   3.6243   3.6670   3.6765   3.7054   3.7272   3.7455
  3.7928   3.8084   3.8237   3.8424   3.8499   3.8654   3.8853   3.8922
  3.9068   3.9199   3.9469   3.9593   4.0059   4.0124   4.0672   4.1039
  4.1193   4.1487   4.1654   4.2043   4.2243   4.2417   4.2652   4.2704
  4.3177   4.3330   4.3539   4.3613   4.3751   4.3788   4.4242   4.4390
  4.4682   4.4921   4.5115   4.5501   4.6077   4.6445   4.7433   4.7574
  4.8118   4.8722   4.9470   5.0506   5.1025   5.1917   5.1987   5.2011
  5.2208   5.2270   5.2433   5.2556   5.2593   5.2639   5.2877   5.2913
  5.3002   5.3101   5.3157   5.3309   5.3337   5.3489   5.3631   5.3701
  5.3932   5.3941   5.4082   5.4199   5.4390   5.4717   5.5157   5.5180
  5.5240   5.5453   5.5623   5.5769   5.5997   5.6293   5.6349   5.6460
  5.6526   5.6643   5.6716   5.7138   5.7379   5.7595   5.8126   5.8436
  5.9157   5.9424   5.9894   6.0382   6.0487   6.0654   6.1147   6.1240
  6.1439   6.2538   6.3326   6.3785   6.4837   6.4961   6.5663   6.7116
  6.7348   6.8652   7.0183   7.0269   7.0431   7.0774   7.0955   7.1095
  7.1293   7.1569   7.2034   7.2099   7.2296   7.2415   7.2720   7.2774
  7.2968   7.3135   7.3409   7.3446   7.3627   7.3784   7.4036   7.4224
  7.4297   7.4656   7.4744   7.4857   7.5403   7.6199   7.6279   7.6686
  7.7182   7.7474   7.7862   7.8016   7.8321   7.8498   7.8742   7.9085
  7.9473   8.0540   8.1175  24.7455  24.7627  24.8697  50.4810  50.5329
 50.5775  50.6079  50.6098  50.6464  50.6499
 --------------------------------------------------------------
 
          Ground-State Mulliken Net Atomic Charges

     Atom                 Charge (a.u.)    Spin (a.u.)
  --------------------------------------------------------
      1 C                    -0.445992       0.266695
      2 C                     0.061763      -0.006927
      3 O                    -0.457417       0.000246
      4 O                    -0.413345       0.001148
      5 H                     0.539278       0.010642
      6 H                     0.278087       0.011893
      7 H                     0.366865      -0.000179
      8 H                     0.338911      -0.000729
      9 O                    -0.315216       0.498646
     10 O                    -0.073767       0.115739
     11 C                    -0.186997      -0.000552
     12 O                    -0.460363       0.001042
     13 H                     0.204683      -0.000090
     14 H                     0.238171       0.002177
     15 H                     0.381543       0.000298
     16 O                    -0.371719       0.048160
     17 O                    -0.373015       0.052484
     18 H                     0.358143      -0.000009
     19 H                     0.330389      -0.000687
  --------------------------------------------------------
  Sum of atomic charges =    -0.000000
  Sum of spin   charges =     1.000000

 -----------------------------------------------------------------
                    Cartesian Multipole Moments
 -----------------------------------------------------------------
    Charge (ESU x 10^10)
                 0.0000
    Dipole Moment (Debye)
         X      -3.2601      Y      -3.5776      Z       2.7352
       Tot       5.5596
    Quadrupole Moments (Debye-Ang)
        XX     -73.0073     XY     -23.6622     YY     -84.2017
        XZ      -8.7668     YZ     -11.1685     ZZ     -36.9441
    Octopole Moments (Debye-Ang^2)
       XXX    -769.4532    XXY    -273.2817    XYY    -359.9017
       YYY    -571.3712    XXZ    -237.9088    XYZ    -103.6494
       YYZ    -297.6477    XZZ    -258.1739    YZZ    -166.2148
       ZZZ    -456.7694
    Hexadecapole Moments (Debye-Ang^3)
      XXXX   -6931.3848   XXXY   -2384.5422   XXYY   -2171.1243
      XYYY   -2135.5497   YYYY   -3443.9559   XXXZ   -2474.6101
      XXYZ   -1021.1314   XYYZ   -1370.9893   YYYZ   -1972.5415
      XXZZ   -1952.6580   XYZZ    -939.9735   YYZZ   -1491.8680
      XZZZ   -2427.7163   YZZZ   -1406.6368   ZZZZ   -3566.3857
 -----------------------------------------------------------------
 Calculating analytic gradient of the SCF energy
 Gradient of CDS energy
            1           2           3           4           5           6
    1  -0.0004420  -0.0003682  -0.0001921   0.0005484  -0.0000278  -0.0000410
    2   0.0010010   0.0020639   0.0010243  -0.0028011  -0.0001498  -0.0001043
    3  -0.0058286   0.0020665  -0.0005999  -0.0017133   0.0000831  -0.0001417
            7           8           9          10          11          12
    1  -0.0000745  -0.0002443   0.0000655  -0.0003006  -0.0018550   0.0028426
    2  -0.0004557   0.0003397   0.0000052   0.0002105  -0.0024051   0.0017971
    3   0.0002666   0.0003244  -0.0000486   0.0000436  -0.0000035   0.0003344
           13          14          15          16          17          18
    1  -0.0000760  -0.0002171  -0.0001866  -0.0005225   0.0010195  -0.0000237
    2   0.0000954   0.0003921  -0.0002695   0.0037713  -0.0044828  -0.0003175
    3  -0.0002769   0.0000002   0.0001860   0.0032069   0.0027105  -0.0002265
           19
    1   0.0000954
    2   0.0002854
    3  -0.0003831
 Gradient of SCF Energy
            1           2           3           4           5           6
    1  -0.0045409   0.0126681   0.0184431   0.0163870   0.0117410  -0.0101834
    2   0.0009020   0.0016023   0.0138635   0.0083162  -0.0030574  -0.0048620
    3   0.0018192   0.0015419  -0.0079480  -0.0124133   0.0044159  -0.0023486
            7           8           9          10          11          12
    1  -0.0190428  -0.0145548  -0.0145446   0.0046087  -0.0078705   0.0087836
    2  -0.0098760  -0.0062117   0.0066513  -0.0036356   0.0089539  -0.0117696
    3   0.0107047   0.0112923  -0.0022791  -0.0020331  -0.0044645  -0.0013857
           13          14          15          16          17          18
    1   0.0040631   0.0022283  -0.0074650  -0.0006403  -0.0049438   0.0002816
    2  -0.0041280  -0.0021932   0.0046931   0.0009238   0.0028237  -0.0030642
    3  -0.0027163   0.0064747  -0.0000031  -0.0074353   0.0092441   0.0041270
           19
    1   0.0045816
    2   0.0000678
    3  -0.0065926
 Max gradient component =       1.904E-02
 RMS gradient           =       7.996E-03
 Computing fast CPCM-SWIG gradient
 Updating gradient with PCM contributions...
 -- total gradient after adding PCM contribution --
---------------------------------------------------
  Atom         X              Y              Z     
---------------------------------------------------
   1      -0.004355      -0.000009      -0.000870
   2       0.000805       0.000204      -0.000336
   3      -0.000232      -0.001144       0.001345
   4      -0.000924       0.000324      -0.000784
   5       0.014313       0.000617       0.006431
   6       0.000356      -0.000329      -0.000799
   7       0.000066       0.000419       0.000543
   8       0.000802      -0.000154       0.000461
   9      -0.014553       0.002512      -0.004664
  10       0.002618      -0.002973      -0.000353
  11       0.000783       0.003500      -0.000135
  12      -0.000027      -0.002650       0.002665
  13      -0.000804      -0.000142      -0.000752
  14       0.000791      -0.001129      -0.000099
  15      -0.001526       0.001572      -0.003445
  16       0.001259       0.000299      -0.000129
  17       0.001735      -0.000599       0.001466
  18      -0.000602      -0.000204      -0.000066
  19      -0.000505      -0.000113      -0.000478
---------------------------------------------------
 Number of fixed atoms: 0
 Gradient time:  CPU 359.45 s  wall 18.95 s
 ----------------------------------------------------------------
             Standard Nuclear Orientation (Angstroms)
    I     Atom           X                Y                Z
 ----------------------------------------------------------------
    1      C       3.4481061000     3.1530461000     2.6452835000
    2      C       2.3882569000     2.9061656000     3.7135599000
    3      O       2.8519395000     1.8504447000     4.5270770000
    4      O       2.2483489000     4.0959508000     4.4446133000
    5      H       4.5054328000     3.2632218000     3.2374105000
    6      H       1.4477142000     2.6224870000     3.2345610000
    7      H       2.1000926000     1.4282885000     4.9576371000
    8      H       1.5122149000     3.9902324000     5.0579931000
    9      O       5.7112734000     3.2148066000     3.8063041000
   10      O       6.4196429000     2.2537304000     3.1297963000
   11      C       6.2908315000     0.9983808000     3.7946792000
   12      O       5.0380283000     0.4099030000     3.5866061000
   13      H       7.0334398000     0.3727748000     3.3081479000
   14      H       6.5060114000     1.1356742000     4.8529162000
   15      H       4.3563326000     0.8804687000     4.1008536000
   16      O       3.5911268000     2.1000516000     1.7453293000
   17      O       3.1583743000     4.3162427000     1.9654639000
   18      H       4.0769199000     1.3734628000     2.1730819000
   19      H       3.7336083000     4.3643270000     1.1904248000
 ----------------------------------------------------------------
 Nuclear Repulsion Energy =         637.73335849 hartrees
 There are       42 alpha and       41 beta electrons
 Discretize the solute cavity surface with Lebedev spheres
	Using 110 Lebedev grid points for each H atom
	Using 194 Lebedev grid points for other atoms
	Atomic van der Waals radii will be scaled by 1.20
 Remove points where switching function is < 1.0e-08
 Keep 1512 surface tesserae and discard 1418 interior tesserae
 Molecular Surface Area = 162.358 Angst**2
 Requested basis set is 6-311++G(2df,2p)
 There are 134 shells and 430 basis functions
 A cutoff of  1.0D-12 yielded   7894 shell pairs
 There are     80516 function pairs (     99600 Cartesian)
 Smallest overlap matrix eigenvalue = 1.53E-05
 Guess MOs from SCF MO coefficient file

 -----------------------------------------------------------------------
  General SCF calculation program by
  Eric Jon Sundstrom, Paul Horn, Yuezhi Mao, Dmitri Zuev, Alec White,
  David Stuck, Shaama M.S., Shane Yost, Joonho Lee, David Small,
  Daniel Levine, Susi Lehtola, Hugh Burton, Evgeny Epifanovsky,
  Bang C. Huynh
 -----------------------------------------------------------------------
 Exchange:     0.1500 Hartree-Fock + 1.0000 wB97M-V + LR-HF
 Correlation:  1.0000 wB97M-V
 Using SG-2 standard quadrature grid
 Nonlocal Correlation:  VV10 with C = 0.0100 and b = 6.00 and scale = 1.00000
 Grid used for NLC:  SG-1 standard quadrature
 
 Citation of the SMD model:
 Marenich, A.V.; Cramer, C.J.; Truhlar, D.G.
 J. Phys. Chem. B 2009, 113, 6378-6396.
 iSolventCode=           1
 Solvent: water                                                           
 
 vradii
            1           2           3           4           5           6
    1   1.8500000   1.8500000   1.5200000   1.5200000   1.2000000   1.2000000
            7           8           9          10          11          12
    1   1.2000000   1.2000000   1.5200000   1.5200000   1.8500000   1.5200000
           13          14          15          16          17          18
    1   1.2000000   1.2000000   1.2000000   1.5200000   1.5200000   1.2000000
           19
    1   1.2000000
 -------------------------------------------------------
 OpenMP BLAS3 based DFT computing Module                
 Release: version 1.0, May 2013, Q-Chem Inc. Pittsburgh 
 -------------------------------------------------------
 A unrestricted SCF calculation will be
 performed using Roothaan-Hall, DIIS, GDM
 SCF converges when RMS gradient is below 1.0e-07
 ---------------------------------------
  Cycle       Energy         DIIS error
 ---------------------------------------
    1    -646.1543592051      2.41e-04  Roothaan Step
 ---------------------------------------
  Cycle       Energy         DIIS error
 ---------------------------------------
    1    -646.1987102489      2.62e-04  
    2    -646.2057433641      1.87e-04  Done DIIS. Switching to GDM
 ---------------------------------------
  Cycle       Energy        RMS Gradient
 ---------------------------------------
    1    -646.2057433641      5.16e-03   Normal BFGS step
    2    -646.2058810329      7.35e-03   Normal BFGS step
    3    -646.2080011394      8.62e-04   Normal BFGS step
    4    -646.2080170555      1.50e-03   Normal BFGS step
    5    -646.2080386104      7.02e-04   Normal BFGS step
    6    -646.2080396786      3.71e-04   Normal BFGS step
    7    -646.2080404219      3.22e-04   Normal BFGS step
    8    -646.2080406662      2.13e-04   Normal BFGS step
    9    -646.2080407709      3.57e-05   Normal BFGS step
   10    -646.2080407942      2.07e-05   Normal BFGS step
   11    -646.2080407973      1.66e-05   Normal BFGS step
   12    -646.2080407982      1.12e-05   Normal BFGS step
   13    -646.2080407986      6.41e-06   Normal BFGS step
   14    -646.2080407988      3.35e-06   Normal BFGS step
   15    -646.2080407988      1.30e-06   Normal BFGS step
   16    -646.2080407988      6.46e-07   Normal BFGS step
   17    -646.2080407988      2.36e-07   Normal BFGS step
   18    -646.2080407988      1.21e-07   Normal BFGS step
   19    -646.2080407989      3.61e-08  Convergence criterion met
 ---------------------------------------
 SCF time:   CPU 3006.95s  wall 119.00s 
<S^2> =          0.756603896
(3)  G-ENP(liq) elect-nuc-pol free energy of system     -646.208040799 a.u.
(4)  G-CDS(liq) cavity-dispersion-solvent structure 
     free energy                                                3.9692 kcal/mol
(6)  G-S(liq) free energy of system                     -646.201715444 a.u.
 SCF   energy in the final basis set =     -646.2017154441
 Total energy in the final basis set =     -646.2017154441
 
 --------------------------------------------------------------
 
                    Orbital Energies (a.u.)
 --------------------------------------------------------------
 
 Alpha MOs
 -- Occupied --
-19.4248 -19.4116 -19.3635 -19.3584 -19.3578 -19.3512 -19.3496 -10.4625
-10.4557 -10.4418  -1.2990  -1.2312  -1.2028  -1.1746  -1.1544  -1.1402
 -1.0195  -0.8665  -0.7930  -0.7443  -0.7030  -0.6818  -0.6668  -0.6441
 -0.6359  -0.6179  -0.6045  -0.5988  -0.5612  -0.5269  -0.5217  -0.5165
 -0.4974  -0.4881  -0.4668  -0.4450  -0.4376  -0.4286  -0.4166  -0.4141
 -0.4050  -0.3349
 -- Virtual --
  0.0269   0.0374   0.0406   0.0476   0.0585   0.0656   0.0764   0.0796
  0.0881   0.1093   0.1154   0.1181   0.1289   0.1367   0.1439   0.1505
  0.1552   0.1655   0.1676   0.1756   0.1794   0.2012   0.2109   0.2251
  0.2289   0.2368   0.2454   0.2545   0.2609   0.2623   0.2727   0.2773
  0.2862   0.2890   0.2958   0.3024   0.3076   0.3150   0.3205   0.3238
  0.3275   0.3306   0.3419   0.3440   0.3456   0.3545   0.3612   0.3648
  0.3728   0.3790   0.3804   0.3902   0.3982   0.4024   0.4124   0.4140
  0.4181   0.4388   0.4476   0.4555   0.4591   0.4624   0.4900   0.5084
  0.5188   0.5378   0.5756   0.5790   0.5983   0.6099   0.6188   0.6274
  0.6381   0.6582   0.6631   0.6699   0.6855   0.6887   0.7007   0.7095
  0.7219   0.7293   0.7357   0.7586   0.7775   0.8026   0.8193   0.8282
  0.8480   0.8816   0.8970   0.9141   0.9334   0.9619   0.9755   0.9903
  0.9962   1.0033   1.0395   1.0560   1.0695   1.0744   1.0782   1.0868
  1.0968   1.1061   1.1251   1.1373   1.1467   1.1512   1.1794   1.1869
  1.1912   1.2025   1.2074   1.2244   1.2301   1.2357   1.2531   1.2589
  1.2716   1.2788   1.2992   1.3136   1.3151   1.3260   1.3373   1.3433
  1.3541   1.3689   1.3881   1.3915   1.4149   1.4287   1.4345   1.4524
  1.4737   1.4940   1.4945   1.5094   1.5159   1.5360   1.5480   1.5691
  1.5907   1.6047   1.6128   1.6471   1.6684   1.7086   1.7190   1.7237
  1.7461   1.7756   1.7882   1.8220   1.8396   1.8747   1.8979   1.9117
  1.9184   1.9471   1.9574   1.9886   2.0060   2.0121   2.0845   2.0859
  2.0981   2.1244   2.1601   2.1888   2.2097   2.2569   2.2655   2.2975
  2.3130   2.3386   2.3557   2.3594   2.3868   2.4283   2.4393   2.4508
  2.4678   2.4967   2.5346   2.5418   2.5755   2.5960   2.6167   2.6600
  2.7151   2.7284   2.7690   2.7829   2.8006   2.8509   2.9101   2.9549
  3.0304   3.0483   3.0980   3.1322   3.1556   3.1664   3.1919   3.1952
  3.2272   3.2974   3.3051   3.3308   3.3561   3.3654   3.3706   3.4039
  3.4330   3.4754   3.4892   3.5154   3.5331   3.5515   3.5725   3.5893
  3.6018   3.6174   3.6607   3.6667   3.6989   3.7242   3.7416   3.7865
  3.8067   3.8197   3.8376   3.8451   3.8648   3.8822   3.8876   3.9049
  3.9193   3.9448   3.9553   4.0017   4.0104   4.0649   4.0988   4.1176
  4.1463   4.1616   4.2027   4.2216   4.2400   4.2638   4.2706   4.3148
  4.3291   4.3511   4.3635   4.3767   4.3779   4.4262   4.4382   4.4722
  4.4931   4.5128   4.5488   4.6008   4.6401   4.7266   4.7493   4.8027
  4.8566   4.9299   5.0372   5.0977   5.1602   5.1836   5.1977   5.2133
  5.2211   5.2278   5.2467   5.2521   5.2573   5.2832   5.2860   5.2939
  5.3023   5.3140   5.3200   5.3262   5.3437   5.3548   5.3656   5.3827
  5.3866   5.3917   5.4114   5.4355   5.4652   5.5073   5.5136   5.5210
  5.5423   5.5584   5.5705   5.5931   5.6247   5.6313   5.6402   5.6488
  5.6629   5.6702   5.7084   5.7368   5.7572   5.8092   5.8425   5.9086
  5.9262   5.9849   6.0344   6.0465   6.0638   6.1098   6.1197   6.1427
  6.2503   6.3063   6.3716   6.4795   6.4930   6.5614   6.7087   6.7337
  6.8600   6.9728   6.9987   7.0157   7.0737   7.0861   7.0983   7.1251
  7.1496   7.1887   7.2019   7.2273   7.2394   7.2710   7.2745   7.2943
  7.3099   7.3367   7.3396   7.3530   7.3692   7.3893   7.4099   7.4233
  7.4501   7.4592   7.4835   7.5360   7.5958   7.6239   7.6635   7.7165
  7.7388   7.7817   7.7932   7.8309   7.8487   7.8711   7.9070   7.9441
[...]
    1   1.8500000   1.8500000   1.5200000   1.5200000   1.2000000   1.2000000
            7           8           9          10          11          12
    1   1.2000000   1.2000000   1.5200000   1.5200000   1.8500000   1.5200000
           13          14          15          16          17          18
    1   1.2000000   1.2000000   1.2000000   1.5200000   1.5200000   1.2000000
           19
    1   1.2000000
 Changing PCM_VDW_RADII to SMD_RADIUS
 Discretize the solute cavity surface with Lebedev spheres
	Using 110 Lebedev grid points for each H atom
	Using 194 Lebedev grid points for other atoms
	Atomic van der Waals radii will be scaled by 1.20
 Remove points where switching function is < 1.0e-08
 Keep 1512 surface tesserae and discard 1418 interior tesserae
 Molecular Surface Area = 162.353 Angst**2
 A cutoff of  1.0D-12 yielded   7894 shell pairs
 There are     80516 function pairs (     99600 Cartesian)
 Smallest overlap matrix eigenvalue = 1.53E-05

 Scale SEOQF with 1.000000e-02/1.000000e-01/1.000000e-01

 Standard Electronic Orientation quadrupole field applied
 Nucleus-field energy     =    -0.0000000568 hartrees
 Guess MOs from SCF MO coefficient file

 -----------------------------------------------------------------------
  General SCF calculation program by
  Eric Jon Sundstrom, Paul Horn, Yuezhi Mao, Dmitri Zuev, Alec White,
  David Stuck, Shaama M.S., Shane Yost, Joonho Lee, David Small,
  Daniel Levine, Susi Lehtola, Hugh Burton, Evgeny Epifanovsky,
  Bang C. Huynh
 -----------------------------------------------------------------------
 Exchange:     0.1500 Hartree-Fock + 1.0000 wB97M-V + LR-HF
 Correlation:  1.0000 wB97M-V
 Using SG-2 standard quadrature grid
 Nonlocal Correlation:  VV10 with C = 0.0100 and b = 6.00 and scale = 1.00000
 Grid used for NLC:  SG-1 standard quadrature
 
 Citation of the SMD model:
 Marenich, A.V.; Cramer, C.J.; Truhlar, D.G.
 J. Phys. Chem. B 2009, 113, 6378-6396.
 iSolventCode=           1
 Solvent: water                                                           
 
 vradii
            1           2           3           4           5           6
    1   1.8500000   1.8500000   1.5200000   1.5200000   1.2000000   1.2000000
            7           8           9          10          11          12
    1   1.2000000   1.2000000   1.5200000   1.5200000   1.8500000   1.5200000
           13          14          15          16          17          18
    1   1.2000000   1.2000000   1.2000000   1.5200000   1.5200000   1.2000000
           19
    1   1.2000000
 using 32 threads for integral computing
 -------------------------------------------------------
 OpenMP Integral computing Module                
 Release: version 1.0, May 2013, Q-Chem Inc. Pittsburgh 
 -------------------------------------------------------
 -------------------------------------------------------
 OpenMP BLAS3 based DFT computing Module                
 Release: version 1.0, May 2013, Q-Chem Inc. Pittsburgh 
 -------------------------------------------------------
 A unrestricted SCF calculation will be
 performed using Roothaan-Hall, DIIS, GDM
 SCF converges when RMS gradient is below 1.0e-07
 ---------------------------------------
  Cycle       Energy         DIIS error
 ---------------------------------------
    1    -646.1543722001      2.41e-04  Roothaan Step
 ---------------------------------------
  Cycle       Energy         DIIS error
 ---------------------------------------
    1    -646.1987034738      2.62e-04  
    2    -646.2057384707      1.87e-04  Done DIIS. Switching to GDM
 ---------------------------------------
  Cycle       Energy        RMS Gradient
 ---------------------------------------
    1    -646.2057384707      5.16e-03   Normal BFGS step
    2    -646.2058748197      7.37e-03   Normal BFGS step
    3    -646.2079995208      9.28e-04   Normal BFGS step
    4    -646.2080156129      1.50e-03   Normal BFGS step
    5    -646.2080373417      7.42e-04   Normal BFGS step
    6    -646.2080384759      3.99e-04   Normal BFGS step
    7    -646.2080392588      3.38e-04   Normal BFGS step
    8    -646.2080395342      2.15e-04   Normal BFGS step
    9    -646.2080396402      3.74e-05   Normal BFGS step
   10    -646.2080396646      2.02e-05   Normal BFGS step
   11    -646.2080396676      1.63e-05   Normal BFGS step
   12    -646.2080396685      1.10e-05   Normal BFGS step
   13    -646.2080396689      6.42e-06   Normal BFGS step
   14    -646.2080396691      3.42e-06   Normal BFGS step
   15    -646.2080396691      1.31e-06   Normal BFGS step
   16    -646.2080396691      6.51e-07   Normal BFGS step
   17    -646.2080396691      2.26e-07   Normal BFGS step
   18    -646.2080396691      1.24e-07   Normal BFGS step
   19    -646.2080396692      3.66e-08  Convergence criterion met
 ---------------------------------------
 SCF time:   CPU 3033.85s  wall 120.00s 
<S^2> =          0.756604749
(3)  G-ENP(liq) elect-nuc-pol free energy of system     -646.208039669 a.u.
(4)  G-CDS(liq) cavity-dispersion-solvent structure 
     free energy                                                3.9680 kcal/mol
(6)  G-S(liq) free energy of system                     -646.201716236 a.u.
 SCF   energy in the final basis set =     -646.2017162355
 Total energy in the final basis set =     -646.2017162355
 
 --------------------------------------------------------------
 
                    Orbital Energies (a.u.)
 --------------------------------------------------------------
 
 Alpha MOs
 -- Occupied --
-19.4248 -19.4116 -19.3634 -19.3584 -19.3579 -19.3512 -19.3496 -10.4625
-10.4557 -10.4418  -1.2990  -1.2312  -1.2028  -1.1747  -1.1544  -1.1402
 -1.0195  -0.8666  -0.7930  -0.7443  -0.7031  -0.6817  -0.6668  -0.6441
 -0.6359  -0.6179  -0.6045  -0.5988  -0.5612  -0.5269  -0.5217  -0.5165
 -0.4975  -0.4881  -0.4668  -0.4450  -0.4376  -0.4286  -0.4166  -0.4141
 -0.4050  -0.3349
 -- Virtual --
  0.0269   0.0374   0.0406   0.0476   0.0585   0.0656   0.0764   0.0796
  0.0881   0.1093   0.1154   0.1181   0.1289   0.1367   0.1439   0.1505
  0.1553   0.1655   0.1676   0.1756   0.1794   0.2012   0.2108   0.2252
  0.2289   0.2368   0.2454   0.2545   0.2609   0.2623   0.2727   0.2774
  0.2862   0.2890   0.2958   0.3025   0.3076   0.3150   0.3206   0.3238
  0.3275   0.3306   0.3418   0.3440   0.3456   0.3545   0.3612   0.3649
  0.3728   0.3790   0.3805   0.3901   0.3982   0.4024   0.4124   0.4140
  0.4181   0.4388   0.4476   0.4555   0.4591   0.4624   0.4900   0.5084
  0.5188   0.5378   0.5755   0.5790   0.5982   0.6100   0.6188   0.6274
  0.6381   0.6582   0.6631   0.6699   0.6854   0.6887   0.7007   0.7095
  0.7219   0.7293   0.7357   0.7587   0.7775   0.8026   0.8193   0.8281
  0.8481   0.8817   0.8970   0.9141   0.9335   0.9618   0.9755   0.9903
  0.9962   1.0033   1.0395   1.0560   1.0695   1.0745   1.0782   1.0868
  1.0968   1.1061   1.1251   1.1373   1.1467   1.1512   1.1794   1.1869
  1.1912   1.2025   1.2074   1.2244   1.2301   1.2357   1.2531   1.2589
  1.2716   1.2788   1.2992   1.3136   1.3151   1.3260   1.3373   1.3433
  1.3541   1.3689   1.3881   1.3916   1.4149   1.4287   1.4345   1.4523
  1.4737   1.4941   1.4946   1.5094   1.5159   1.5360   1.5481   1.5692
  1.5907   1.6047   1.6129   1.6472   1.6685   1.7087   1.7189   1.7237
  1.7461   1.7756   1.7882   1.8219   1.8396   1.8747   1.8979   1.9116
  1.9184   1.9471   1.9573   1.9886   2.0059   2.0120   2.0845   2.0861
  2.0981   2.1245   2.1600   2.1888   2.2097   2.2568   2.2655   2.2975
  2.3130   2.3386   2.3557   2.3594   2.3868   2.4284   2.4393   2.4507
  2.4677   2.4967   2.5346   2.5418   2.5756   2.5960   2.6166   2.6599
  2.7152   2.7283   2.7689   2.7829   2.8005   2.8509   2.9100   2.9549
  3.0302   3.0484   3.0981   3.1322   3.1554   3.1663   3.1920   3.1952
  3.2272   3.2974   3.3050   3.3308   3.3560   3.3654   3.3706   3.4040
  3.4330   3.4755   3.4892   3.5154   3.5330   3.5515   3.5725   3.5896
  3.6017   3.6174   3.6606   3.6666   3.6988   3.7241   3.7415   3.7866
  3.8067   3.8197   3.8376   3.8452   3.8648   3.8823   3.8876   3.9047
  3.9193   3.9448   3.9551   4.0016   4.0104   4.0648   4.0989   4.1176
  4.1464   4.1616   4.2027   4.2216   4.2401   4.2639   4.2705   4.3148
  4.3292   4.3512   4.3637   4.3767   4.3779   4.4262   4.4381   4.4723
  4.4931   4.5127   4.5488   4.6008   4.6401   4.7266   4.7493   4.8028
  4.8566   4.9299   5.0372   5.0977   5.1602   5.1836   5.1977   5.2133
  5.2211   5.2278   5.2467   5.2521   5.2572   5.2832   5.2860   5.2939
  5.3023   5.3140   5.3201   5.3262   5.3437   5.3547   5.3658   5.3827
  5.3866   5.3916   5.4113   5.4355   5.4651   5.5073   5.5136   5.5211
  5.5423   5.5584   5.5705   5.5931   5.6246   5.6313   5.6403   5.6488
  5.6629   5.6701   5.7084   5.7368   5.7570   5.8092   5.8425   5.9078
  5.9273   5.9845   6.0344   6.0465   6.0640   6.1098   6.1195   6.1427
  6.2500   6.3062   6.3716   6.4795   6.4931   6.5616   6.7087   6.7336
  6.8598   6.9727   6.9987   7.0156   7.0737   7.0861   7.0983   7.1251
  7.1496   7.1887   7.2019   7.2273   7.2395   7.2710   7.2745   7.2943
  7.3098   7.3368   7.3396   7.3531   7.3692   7.3893   7.4099   7.4234
  7.4501   7.4593   7.4835   7.5359   7.5957   7.6239   7.6635   7.7164
  7.7386   7.7818   7.7932   7.8309   7.8487   7.8710   7.9068   7.9441
  8.0254   8.1112  24.7439  24.7626  24.8656  50.4739  50.5262  50.5768
 50.6074  50.6087  50.6454  50.6486
 
 Beta MOs
 -- Occupied --
-19.4211 -19.3955 -19.3617 -19.3584 -19.3562 -19.3510 -19.3496 -10.4571
-10.4553 -10.4420  -1.2831  -1.2279  -1.2014  -1.1725  -1.1517  -1.1390
 -0.9956  -0.8613  -0.7883  -0.7378  -0.6916  -0.6794  -0.6612  -0.6382
 -0.6327  -0.6081  -0.5996  -0.5904  -0.5420  -0.5198  -0.5163  -0.5033
 -0.4898  -0.4827  -0.4583  -0.4358  -0.4314  -0.4271  -0.4137  -0.3937
 -0.3698
 -- Virtual --
 -0.0545   0.0279   0.0375   0.0407   0.0476   0.0586   0.0654   0.0767
  0.0798   0.0892   0.1103   0.1154   0.1181   0.1289   0.1372   0.1442
  0.1508   0.1559   0.1661   0.1737   0.1765   0.1800   0.2028   0.2121
  0.2257   0.2305   0.2376   0.2465   0.2555   0.2617   0.2634   0.2739
  0.2786   0.2878   0.2904   0.2970   0.3034   0.3087   0.3172   0.3218
  0.3252   0.3293   0.3321   0.3432   0.3463   0.3472   0.3556   0.3621
  0.3660   0.3743   0.3800   0.3823   0.3910   0.3990   0.4046   0.4145
  0.4154   0.4208   0.4398   0.4499   0.4583   0.4615   0.4717   0.4914
  0.5088   0.5230   0.5383   0.5774   0.5798   0.5988   0.6116   0.6208
  0.6284   0.6399   0.6590   0.6635   0.6704   0.6858   0.6900   0.7065
  0.7115   0.7234   0.7302   0.7372   0.7599   0.7784   0.8035   0.8208
  0.8298   0.8495   0.8830   0.8978   0.9161   0.9340   0.9629   0.9762
  0.9925   0.9980   1.0048   1.0414   1.0577   1.0716   1.0759   1.0789
  1.0905   1.0977   1.1092   1.1285   1.1402   1.1475   1.1537   1.1819
  1.1904   1.1935   1.2044   1.2091   1.2270   1.2334   1.2386   1.2563
  1.2615   1.2734   1.2811   1.3022   1.3157   1.3179   1.3299   1.3405
  1.3467   1.3584   1.3721   1.3909   1.3959   1.4165   1.4302   1.4373
  1.4548   1.4753   1.4956   1.4967   1.5114   1.5177   1.5369   1.5495
  1.5716   1.5915   1.6057   1.6145   1.6526   1.6738   1.7117   1.7233
  1.7293   1.7486   1.7805   1.7929   1.8283   1.8443   1.8770   1.9049
  1.9158   1.9227   1.9517   1.9606   1.9921   2.0095   2.0145   2.0880
  2.0918   2.1040   2.1275   2.1623   2.1912   2.2115   2.2597   2.2683
  2.3005   2.3168   2.3403   2.3576   2.3618   2.3897   2.4323   2.4404
  2.4561   2.4706   2.4999   2.5391   2.5463   2.5782   2.6014   2.6191
  2.6632   2.7169   2.7326   2.7721   2.7853   2.8045   2.8562   2.9119
  2.9558   3.0311   3.0565   3.0995   3.1327   3.1603   3.1684   3.1931
  3.2003   3.2282   3.2991   3.3079   3.3376   3.3563   3.3657   3.3724
  3.4075   3.4350   3.4791   3.4927   3.5164   3.5369   3.5546   3.5751
  3.5931   3.6053   3.6246   3.6671   3.6764   3.7057   3.7272   3.7456
  3.7929   3.8084   3.8238   3.8424   3.8500   3.8654   3.8853   3.8924
  3.9069   3.9199   3.9468   3.9592   4.0059   4.0125   4.0669   4.1038
  4.1192   4.1486   4.1652   4.2042   4.2241   4.2416   4.2653   4.2705
  4.3176   4.3327   4.3537   4.3614   4.3753   4.3786   4.4243   4.4389
  4.4682   4.4922   4.5114   4.5501   4.6081   4.6445   4.7433   4.7573
  4.8117   4.8725   4.9470   5.0506   5.1025   5.1916   5.1986   5.2011
  5.2208   5.2270   5.2433   5.2556   5.2593   5.2639   5.2878   5.2912
  5.3002   5.3102   5.3158   5.3309   5.3338   5.3490   5.3630   5.3702
  5.3932   5.3941   5.4082   5.4199   5.4389   5.4717   5.5158   5.5179
  5.5238   5.5452   5.5623   5.5769   5.5997   5.6292   5.6350   5.6460
  5.6527   5.6643   5.6716   5.7138   5.7379   5.7595   5.8126   5.8436
  5.9155   5.9429   5.9892   6.0380   6.0487   6.0658   6.1147   6.1240
  6.1439   6.2531   6.3326   6.3784   6.4838   6.4962   6.5661   6.7116
  6.7348   6.8650   7.0183   7.0268   7.0431   7.0775   7.0955   7.1096
  7.1292   7.1569   7.2034   7.2099   7.2296   7.2415   7.2720   7.2774
  7.2969   7.3135   7.3409   7.3446   7.3627   7.3784   7.4036   7.4223
  7.4298   7.4656   7.4744   7.4857   7.5403   7.6199   7.6278   7.6686
  7.7181   7.7475   7.7863   7.8016   7.8320   7.8498   7.8742   7.9084
  7.9475   8.0541   8.1174  24.7457  24.7627  24.8689  50.4809  50.5328
 50.5775  50.6079  50.6098  50.6465  50.6500
 --------------------------------------------------------------
 
          Ground-State Mulliken Net Atomic Charges

     Atom                 Charge (a.u.)    Spin (a.u.)
  --------------------------------------------------------
      1 C                    -0.446713       0.265951
      2 C                     0.061524      -0.006845
      3 O                    -0.457438       0.000245
      4 O                    -0.413387       0.001142
      5 H                     0.539675       0.010589
      6 H                     0.278118       0.011814
      7 H                     0.366843      -0.000180
      8 H                     0.338875      -0.000726
      9 O                    -0.314692       0.499484
     10 O                    -0.073449       0.116072
     11 C                    -0.186949      -0.000558
     12 O                    -0.460340       0.001054
     13 H                     0.204720      -0.000090
     14 H                     0.238205       0.002182
     15 H                     0.381549       0.000294
     16 O                    -0.371675       0.048008
     17 O                    -0.373213       0.052259
     18 H                     0.358069      -0.000013
     19 H                     0.330278      -0.000682
  --------------------------------------------------------
  Sum of atomic charges =    -0.000000
  Sum of spin   charges =     1.000000

 -----------------------------------------------------------------
                    Cartesian Multipole Moments
 -----------------------------------------------------------------
    Charge (ESU x 10^10)
                -0.0000
    Dipole Moment (Debye)
         X      -3.2464      Y      -3.5810      Z       2.7399
       Tot       5.5560
    Quadrupole Moments (Debye-Ang)
        XX     -72.8850     XY     -23.6368     YY     -84.2218
        XZ      -8.7019     YZ     -11.1621     ZZ     -36.9188
    Octopole Moments (Debye-Ang^2)
       XXX    -768.5829    XXY    -273.0007    XYY    -359.8581
       YYY    -571.4832    XXZ    -237.4125    XYZ    -103.4947
       YYZ    -297.6443    XZZ    -257.9034    YZZ    -166.1613
       ZZZ    -456.6577
    Hexadecapole Moments (Debye-Ang^3)
      XXXX   -6925.5322   XXXY   -2382.4617   XXYY   -2170.3905
      XYYY   -2135.5850   YYYY   -3444.5548   XXXZ   -2471.2563
      XXYZ   -1019.8870   XYYZ   -1370.5548   YYYZ   -1972.6191
      XXZZ   -1950.6907   XYZZ    -939.2885   YYZZ   -1491.7355
      XZZZ   -2426.5902   YZZZ   -1406.3765   ZZZZ   -3565.9264
 -----------------------------------------------------------------
 Calculating analytic gradient of the SCF energy
 Gradient of CDS energy
            1           2           3           4           5           6
    1  -0.0004469  -0.0003685  -0.0001920   0.0005484  -0.0000276  -0.0000410
    2   0.0009965   0.0020639   0.0010243  -0.0028010  -0.0001510  -0.0001042
    3  -0.0058334   0.0020666  -0.0005998  -0.0017133   0.0000823  -0.0001420
            7           8           9          10          11          12
    1  -0.0000744  -0.0002443   0.0000656  -0.0003006  -0.0018550   0.0028426
    2  -0.0004557   0.0003397   0.0000052   0.0002105  -0.0024051   0.0017971
    3   0.0002666   0.0003244  -0.0000480   0.0000437  -0.0000035   0.0003344
           13          14          15          16          17          18
    1  -0.0000760  -0.0002171  -0.0001866  -0.0005204   0.0010226  -0.0000237
    2   0.0000954   0.0003921  -0.0002695   0.0037775  -0.0044841  -0.0003174
    3  -0.0002769   0.0000002   0.0001860   0.0032119   0.0027105  -0.0002264
           19
    1   0.0000950
    2   0.0002859
    3  -0.0003832
 Gradient of SCF Energy
            1           2           3           4           5           6
    1  -0.0038405   0.0123563   0.0184526   0.0163796   0.0118002  -0.0102031
    2   0.0008491   0.0015501   0.0138736   0.0083250  -0.0030811  -0.0048692
    3   0.0015992   0.0016817  -0.0079737  -0.0124136   0.0044922  -0.0022998
            7           8           9          10          11          12
    1  -0.0190373  -0.0145430  -0.0148069   0.0046635  -0.0078817   0.0087658
    2  -0.0098679  -0.0062151   0.0067383  -0.0037470   0.0090110  -0.0117839
    3   0.0106959   0.0112845  -0.0023131  -0.0020808  -0.0045065  -0.0013834
           13          14          15          16          17          18
    1   0.0040770   0.0022334  -0.0074558  -0.0007538  -0.0050818   0.0002836
    2  -0.0041412  -0.0021917   0.0046958   0.0009937   0.0028859  -0.0030436
    3  -0.0027237   0.0065006  -0.0000030  -0.0074031   0.0092434   0.0041629
           19
    1   0.0045918
    2   0.0000182
    3  -0.0065599
 Max gradient component =       1.904E-02
 RMS gradient           =       7.999E-03
 Computing fast CPCM-SWIG gradient
 Updating gradient with PCM contributions...
 -- total gradient after adding PCM contribution --
---------------------------------------------------
  Atom         X              Y              Z     
---------------------------------------------------
   1      -0.003658      -0.000068      -0.001084
   2       0.000518       0.000163      -0.000189
   3      -0.000210      -0.001129       0.001317
   4      -0.000918       0.000330      -0.000789
   5       0.014367       0.000592       0.006508
   6       0.000320      -0.000339      -0.000766
   7       0.000061       0.000423       0.000538
   8       0.000803      -0.000156       0.000458
   9      -0.014820       0.002609      -0.004695
  10       0.002674      -0.003087      -0.000407
  11       0.000792       0.003549      -0.000160
  12      -0.000044      -0.002660       0.002667
  13      -0.000805      -0.000146      -0.000751
  14       0.000789      -0.001133      -0.000095
  15      -0.001519       0.001572      -0.003449
  16       0.001155       0.000367      -0.000098
  17       0.001594      -0.000543       0.001487
  18      -0.000605      -0.000187      -0.000031
  19      -0.000495      -0.000156      -0.000463
---------------------------------------------------
 Number of fixed atoms: 0
 Gradient time:  CPU 357.20 s  wall 18.56 s
rPathMan2.  file_steps = 951
 ------------------------------------------------------------------------
 Reaction path following.  The coordinates are cartesian              
 Step   1 E=    -646.201716 |G|=  0.024307 S_lin= 0.0000 S_tot= 0.0000
 ------------------------------------------------------------------------
 IRC -- initial gradient exceeds tolerance:   5.000000000000000E-003
 IRC -- initial geometry is not a stationary point

 Q-Chem fatal error occurred in module 0, line   42:

 Bad initial gradient

