
Running Job 1 of 2 Q_in.in
qchem Q_in.in_269645.0 /scratch/ari.fischer/qChem2188625.hpc-mn1/qchem269645/ 0
/usr/local/qchem-5.4.1/exe/qcprog.exe_s Q_in.in_269645.0 /scratch/ari.fischer/qChem2188625.hpc-mn1/qchem269645/
                  Welcome to Q-Chem
     A Quantum Leap Into The Future Of Chemistry


 Q-Chem 5.4, Q-Chem, Inc., Pleasanton, CA (2021)

 License issued to: Nanyang Technological University (site)

 E. Epifanovsky,  A. T. B. Gilbert,  Xintian Feng,  Joonho Lee,  Yuezhi Mao,  
 N. Mardirossian,  P. Pokhilko,  A. White,  M. Wormit,  M. P. Coons,  
 A. L. Dempwolff,  Zhengting Gan,  D. Hait,  P. R. Horn,  L. D. Jacobson,  
 I. Kaliman,  J. Kussmann,  A. W. Lange,  Ka Un Lao,  D. S. Levine,  Jie Liu,  
 S. C. McKenzie,  A. F. Morrison,  K. Nanda,  F. Plasser,  D. R. Rehn,  
 M. L. Vidal,  Zhi-Qiang You,  Ying Zhu,  B. Alam,  B. Albrecht,  
 A. Aldossary,  E. Alguire,  J. H. Andersen,  D. Barton,  K. Begam,  A. Behn,  
 Y. A. Bernard,  E. J. Berquist,  H. Burton,  A. Carreras,  K. Carter-Fenk,  
 R. Chakraborty,  A. D. Chien,  K. D. Closser,  V. Cofer-Shabica,  
 S. Dasgupta,  Jia Deng,  M. de Wergifosse,  M. Diedenhofen,  Hainam Do,  
 S. Ehlert,  Po-Tung Fang,  S. Fatehi,  Qingguo Feng,  T. Friedhoff,  
 J. Gayvert,  Qinghui Ge,  G. Gidofalvi,  M. Goldey,  J. Gomes,  
 C. Gonzalez-Espinoza,  S. Gulania,  A. Gunina,  M. W. D. Hanson-Heine,  
 P. H. P. Harbach,  A. W. Hauser,  M. F. Herbst,  M. Hernandez Vera,  
 M. Hodecker,  Z. C. Holden,  S. Houck,  Xunkun Huang,  Kerwin Hui,  
 B. C. Huynh,  M. Ivanov,  Hyunjun Ji,  Hanjie Jiang,  B. Kaduk,  S. Kaehler,  
 K. Khistyaev,  Jaehoon Kim,  P. Klunzinger,  Z. Koczor-Benda,  
 Joong Hoon Koh,  D. Kosenkov,  L. Koulias,  T. Kowalczyk,  C. M. Krauter,  
 K. Kue,  A. Kunitsa,  T. Kus,  A. Landau,  K. V. Lawler,  D. Lefrancois,  
 S. Lehtola,  Rain Li,  Yi-Pei Li,  Jiashu Liang,  M. Liebenthal,  
 Hung-Hsuan Lin,  You-Sheng Lin,  Fenglai Liu,  Kuan-Yu Liu,  
 M. Loipersberger,  A. Luenser,  A. Manjanath,  P. Manohar,  E. Mansoor,  
 S. F. Manzer,  Shan-Ping Mao,  A. V. Marenich,  T. Markovich,  S. Mason,  
 S. A. Maurer,  P. F. McLaughlin,  M. F. S. J. Menger,  J.-M. Mewes,  
 S. A. Mewes,  P. Morgante,  J. W. Mullinax,  K. J. Oosterbaan,  G. Paran,  
 Alexander C. Paul,  Suranjan K. Paul,  F. Pavosevic,  Zheng Pei,  S. Prager,  
 E. I. Proynov,  E. Ramos,  B. Rana,  A. E. Rask,  A. Rettig,  R. M. Richard,  
 F. Rob,  E. Rossomme,  T. Scheele,  M. Scheurer,  M. Schneider,  
 N. Sergueev,  S. M. Sharada,  W. Skomorowski,  D. W. Small,  C. J. Stein,  
 Yu-Chuan Su,  E. J. Sundstrom,  Zhen Tao,  J. Thirman,  T. Tsuchimochi,  
 N. M. Tubman,  S. P. Veccham,  O. Vydrov,  J. Wenzel,  J. Witte,  A. Yamada,  
 Kun Yao,  S. Yeganeh,  S. R. Yost,  A. Zech,  Igor Ying Zhang,  Xing Zhang,  
 Yu Zhang,  D. Zuev,  A. Aspuru-Guzik,  A. T. Bell,  N. A. Besley,  
 K. B. Bravaya,  B. R. Brooks,  D. Casanova,  Jeng-Da Chai,  S. Coriani,  
 C. J. Cramer,  A. E. DePrince, III,  R. A. DiStasio Jr.,  A. Dreuw,  
 B. D. Dunietz,  T. R. Furlani,  W. A. Goddard III,  S. Grimme,  
 S. Hammes-Schiffer,  T. Head-Gordon,  W. J. Hehre,  Chao-Ping Hsu,  
 T.-C. Jagau,  Yousung Jung,  A. Klamt,  Jing Kong,  D. S. Lambrecht,  
 WanZhen Liang,  N. J. Mayhall,  C. W. McCurdy,  J. B. Neaton,  
 C. Ochsenfeld,  J. A. Parkhill,  R. Peverati,  V. A. Rassolov,  Yihan Shao,  
 L. V. Slipchenko,  T. Stauch,  R. P. Steele,  J. E. Subotnik,  
 A. J. W. Thom,  A. Tkatchenko,  D. G. Truhlar,  T. Van Voorhis,  
 T. A. Wesolowski,  K. B. Whaley,  H. L. Woodcock III,  P. M. Zimmerman,  
 S. Faraji,  P. M. W. Gill,  M. Head-Gordon,  J. M. Herbert,  A. I. Krylov

 Additional authors for Version 5.4.1: 
 S. Kotaru,  Shaozhi Li,  Xiangyuan Li,  F. Matz,  A. Molle,  Haisheng Ren,  
 Yingli Su,  Hung-Yi Tsai,  C. Utku,  Fang Wang

 Contributors to earlier versions of Q-Chem not listed above: 
 R. D. Adamson,  B. Austin,  R. Baer,  J. Baker,  G. J. O. Beran,  
 K. Brandhorst,  S. T. Brown,  E. F. C. Byrd,  A. K. Chakraborty,  
 G. K. L. Chan,  Chun-Min Chang,  Yunqing Chen,  C.-L. Cheng,  
 Siu Hung Chien,  D. M. Chipman,  D. L. Crittenden,  H. Dachsel,  
 R. J. Doerksen,  A. D. Dutoi,  R. G. Edgar,  J. Fosso-Tande,  
 L. Fusti-Molnar,  D. Ghosh,  A. Ghysels,  A. Golubeva-Zadorozhnaya,  
 J. Gonthier,  M. S. Gordon,  S. R. Gwaltney,  G. Hawkins,  J. E. Herr,  
 A. Heyden,  S. Hirata,  E. G. Hohenstein,  G. Kedziora,  F. J. Keil,  
 C. Kelley,  Jihan Kim,  R. A. King,  R. Z. Khaliullin,  P. P. Korambath,  
 W. Kurlancheek,  A. Laurent,  A. M. Lee,  M. S. Lee,  S. V. Levchenko,  
 Ching Yeh Lin,  D. Liotard,  E. Livshits,  R. C. Lochan,  I. Lotan,  
 L. A. Martinez-Martinez,  P. E. Maslen,  N. Nair,  D. P. O'Neill,  
 D. Neuhauser,  E. Neuscamman,  C. M. Oana,  R. Olivares-Amaya,  R. Olson,  
 T. M. Perrine,  B. Peters,  P. A. Pieniazek,  A. Prociuk,  Y. M. Rhee,  
 J. Ritchie,  M. A. Rohrdanz,  E. Rosta,  N. J. Russ,  H. F. Schaefer III,  
 M. W. Schmidt,  N. E. Schultz,  S. Sharma,  N. Shenvi,  C. D. Sherrill,  
 A. C. Simmonett,  A. Sodt,  T. Stein,  D. Stuck,  K. S. Thanthiriwatte,  
 V. Vanovschi,  L. Vogt,  Tao Wang,  A. Warshel,  M. A. Watson,  
 C. F. Williams,  Q. Wu,  X. Xu,  Jun Yang,  W. Zhang,  Yan Zhao

 Please cite Q-Chem as follows:
 Y. Shao et al., Mol. Phys. 113, 184-215 (2015)
 DOI: 10.1080/00268976.2014.952696

 Q-Chem 5.4.1 for Intel X86 EM64T Linux

 Parts of Q-Chem use Armadillo 9.800.1 (Horizon Scraper).
 http://arma.sourceforge.net/

 Q-Chem begins on Wed Jun 26 09:26:34 2024  

 Host: 
0

     Scratch files written to /scratch/ari.fischer/qChem2188625.hpc-mn1/qchem269645//
 Aug1521 |scratch|qcdevops|jenkins|workspace|build_RNUM 8249   
 Processing $rem in /usr/local/qchem-5.4.1/config/preferences:
 Processing $rem in /home/ari.fischer/.qchemrc:
 Symmetry turned off for PCM/SM12/SMD calculation


!!********************************************.
!!******************Warning*******************.
!!Desired Analytical derivatives not available.
!!Finite difference job might take a long time.
!!********************************************.
!!********************************************.


 2-order derivative to be evaluated numerically with 1-order analytical derivatives

 Checking the input file for inconsistencies... 	...done.

--------------------------------------------------------------
User input:
--------------------------------------------------------------
$molecule
0 2
C    0.0147868   -0.2201470    0.7491220
C   -0.8339675   -1.0277593    1.7313942
C   -1.5773662   -2.2112444    1.1099962
C   -2.1666233   -1.9164666   -0.2267948
C   -1.8377068   -0.7392019   -0.8682438
C   -1.1368627    0.3465842   -0.0870781
C   -0.7155843    1.5496840   -0.9231352
H    0.4733530    0.6098822    1.3045962
H   -0.3030758   -1.3060163    2.6447065
H   -2.2318067   -2.7158512    1.8276012
H   -2.8731224   -2.6210622   -0.6459793
H   -2.2334629   -0.5172063   -1.8563083
H   -1.5560006    1.9374977   -1.5089036
O    0.3763963    1.1830084   -1.7654066
H   -0.3548961    2.3335902   -0.2534262
H    0.0197799    0.6633426   -2.5054954
O    0.9759996   -0.9388306    0.0161507
H    1.2252805   -0.3325842   -0.7091200
O   -1.8056726   -0.0486043    2.1239195
O   -2.0370977    0.8099405    0.9382599
O   -0.8235334   -3.0468269    0.2901215
$end

$rem
BASIS = 6-311++G(2df,2p)
GUI = 2
JOB_TYPE = Frequency
METHOD = wB97M-V
SCF_ALGORITHM = DIIS_GDM
MAX_SCF_CYCLES = 400
SCF_CONVERGENCE = 6
THRESH = 11
solvent_method = SMD
$end

--------------------------------------------------------------
 ----------------------------------------------------------------
             Standard Nuclear Orientation (Angstroms)
    I     Atom           X                Y                Z
 ----------------------------------------------------------------
    1      C       0.0147868000    -0.2201470000     0.7491220000
    2      C      -0.8339675000    -1.0277593000     1.7313942000
    3      C      -1.5773662000    -2.2112444000     1.1099962000
    4      C      -2.1666233000    -1.9164666000    -0.2267948000
    5      C      -1.8377068000    -0.7392019000    -0.8682438000
    6      C      -1.1368627000     0.3465842000    -0.0870781000
    7      C      -0.7155843000     1.5496840000    -0.9231352000
    8      H       0.4733530000     0.6098822000     1.3045962000
    9      H      -0.3030758000    -1.3060163000     2.6447065000
   10      H      -2.2318067000    -2.7158512000     1.8276012000
   11      H      -2.8731224000    -2.6210622000    -0.6459793000
   12      H      -2.2334629000    -0.5172063000    -1.8563083000
   13      H      -1.5560006000     1.9374977000    -1.5089036000
   14      O       0.3763963000     1.1830084000    -1.7654066000
   15      H      -0.3548961000     2.3335902000    -0.2534262000
   16      H       0.0197799000     0.6633426000    -2.5054954000
   17      O       0.9759996000    -0.9388306000     0.0161507000
   18      H       1.2252805000    -0.3325842000    -0.7091200000
   19      O      -1.8056726000    -0.0486043000     2.1239195000
   20      O      -2.0370977000     0.8099405000     0.9382599000
   21      O      -0.8235334000    -3.0468269000     0.2901215000
 ----------------------------------------------------------------
 Nuclear Repulsion Energy =         798.19864147 hartrees
 There are       46 alpha and       45 beta electrons
 Requested basis set is 6-311++G(2df,2p)
 There are 150 shells and 498 basis functions

 Total QAlloc Memory Limit 288000 MB
 Mega-Array Size       188 MB
 MEM_STATIC part       192 MB
 
 Citation of the SMD model:
 Marenich, A.V.; Cramer, C.J.; Truhlar, D.G.
 J. Phys. Chem. B 2009, 113, 6378-6396.
 iSolventCode=           1
 Solvent: water                                                           
 
 vradii
            1           2           3           4           5           6
    1   1.8500000   1.8500000   1.8500000   1.8500000   1.8500000   1.8500000
            7           8           9          10          11          12
    1   1.8500000   1.2000000   1.2000000   1.2000000   1.2000000   1.2000000
           13          14          15          16          17          18
    1   1.2000000   1.5200000   1.2000000   1.2000000   1.5200000   1.2000000
           19          20          21
    1   1.5200000   1.5200000   1.5200000
 Changing PCM_VDW_RADII to SMD_RADIUS
 Discretize the solute cavity surface with Lebedev spheres
	Using 110 Lebedev grid points for each H atom
	Using 194 Lebedev grid points for other atoms
	Atomic van der Waals radii will be scaled by 1.20
 Remove points where switching function is < 1.0e-08
 Keep 1503 surface tesserae and discard 1815 interior tesserae
 Molecular Surface Area = 167.052 Angst**2
 A cutoff of  1.0D-11 yielded  10030 shell pairs
 There are    111797 function pairs (    140085 Cartesian)
 Smallest overlap matrix eigenvalue = 2.32E-06

 Q-Chem warning in module stvman/mkSTV.C, line 323:

 Overlap eigenvalue is smaller than square root of threshold
 Use THRESH >= 12 to get rid of this warning

 Guess from superposition of atomic densities
 Warning:  Energy on first SCF cycle will be non-variational
 SAD guess density has 91.000000 electrons

 -----------------------------------------------------------------------
  General SCF calculation program by
  Eric Jon Sundstrom, Paul Horn, Yuezhi Mao, Dmitri Zuev, Alec White,
  David Stuck, Shaama M.S., Shane Yost, Joonho Lee, David Small,
  Daniel Levine, Susi Lehtola, Hugh Burton, Evgeny Epifanovsky,
  Bang C. Huynh
 -----------------------------------------------------------------------
 Exchange:     0.1500 Hartree-Fock + 1.0000 wB97M-V + LR-HF
 Correlation:  1.0000 wB97M-V
 Using SG-2 standard quadrature grid
 Nonlocal Correlation:  VV10 with C = 0.0100 and b = 6.00 and scale = 1.00000
 Grid used for NLC:  SG-1 standard quadrature
 using 32 threads for integral computing
 -------------------------------------------------------
 OpenMP Integral computing Module                
 Release: version 1.0, May 2013, Q-Chem Inc. Pittsburgh 
 -------------------------------------------------------
 
 Citation of the SMD model:
 Marenich, A.V.; Cramer, C.J.; Truhlar, D.G.
 J. Phys. Chem. B 2009, 113, 6378-6396.
 iSolventCode=           1
 Solvent: water                                                           
 
 vradii
            1           2           3           4           5           6
    1   1.8500000   1.8500000   1.8500000   1.8500000   1.8500000   1.8500000
            7           8           9          10          11          12
    1   1.8500000   1.2000000   1.2000000   1.2000000   1.2000000   1.2000000
           13          14          15          16          17          18
    1   1.2000000   1.5200000   1.2000000   1.2000000   1.5200000   1.2000000
           19          20          21
    1   1.5200000   1.5200000   1.5200000
 -------------------------------------------------------
 OpenMP BLAS3 based DFT computing Module                
 Release: version 1.0, May 2013, Q-Chem Inc. Pittsburgh 
 -------------------------------------------------------
 A unrestricted SCF calculation will be
 performed using DIIS, GDM
 SCF converges when RMS gradient is below 1.0e-06
 ---------------------------------------
  Cycle       Energy         DIIS error
 ---------------------------------------
    1    -651.2626313743      1.12e-02  
    2    -647.9414640057      1.19e-03  Done DIIS. Switching to GDM
 ---------------------------------------
  Cycle       Energy        RMS Gradient
 ---------------------------------------
    1    -647.9414640057      1.35e-01   Descent step
    2    -648.0691662971      4.27e-02   Normal BFGS step
    3    -648.0914329312      3.14e-02   Normal BFGS step
    4    -648.0950643388      1.47e-02   Normal BFGS step
    5    -648.0968419388      9.10e-03   Normal BFGS step
    6    -648.0973053761      4.24e-03   Normal BFGS step
    7    -648.0974491236      2.36e-03   Normal BFGS step
    8    -648.0974845233      1.72e-03   Normal BFGS step
    9    -648.0975007031      6.89e-04   Normal BFGS step
   10    -648.0975067294      4.07e-04   Normal BFGS step
   11    -648.0975088353      2.74e-04   Normal BFGS step
   12    -648.0975092017      1.02e-04   Normal BFGS step
   13    -648.0975093030      5.38e-05   Normal BFGS step
   14    -648.0975093214      3.37e-05   Normal BFGS step
   15    -648.0975093299      2.23e-05   Normal BFGS step
   16    -648.0975093336      1.25e-05   Normal BFGS step
   17    -648.0975093347      7.48e-06   Normal BFGS step
   18    -648.0975093350      2.10e-06   Normal BFGS step
   19    -648.0975093365      4.91e-07  Convergence criterion met
 ---------------------------------------
 SCF time:   CPU 4764.76s  wall 195.00s 
<S^2> =          0.787346178
(3)  G-ENP(liq) elect-nuc-pol free energy of system     -648.097509336 a.u.
(4)  G-CDS(liq) cavity-dispersion-solvent structure 
     free energy                                                2.7840 kcal/mol
(6)  G-S(liq) free energy of system                     -648.093072743 a.u.
 SCF   energy in the final basis set =     -648.0930727434
 Total energy in the final basis set =     -648.0930727434
 
 --------------------------------------------------------------
 
                    Orbital Energies (a.u.)
 --------------------------------------------------------------
 
 Alpha MOs
 -- Occupied --
-19.4101 -19.4095 -19.3580 -19.3534 -19.3442 -10.4221 -10.4118 -10.4116
-10.4090 -10.3990 -10.3960 -10.3814  -1.2728  -1.1781  -1.1676  -1.1587
 -1.0786  -0.9603  -0.8908  -0.8485  -0.8045  -0.7591  -0.7210  -0.6924
 -0.6636  -0.6425  -0.6123  -0.6047  -0.5887  -0.5840  -0.5653  -0.5512
 -0.5336  -0.5288  -0.5199  -0.4986  -0.4938  -0.4797  -0.4573  -0.4490
 -0.4274  -0.4213  -0.3933  -0.3798  -0.3658  -0.3387
 -- Virtual --
  0.0248   0.0344   0.0363   0.0447   0.0500   0.0548   0.0567   0.0741
  0.0794   0.0837   0.0852   0.0899   0.1077   0.1190   0.1245   0.1275
  0.1334   0.1382   0.1415   0.1474   0.1539   0.1544   0.1608   0.1664
  0.1703   0.1722   0.1748   0.1791   0.1904   0.1972   0.2010   0.2054
  0.2103   0.2160   0.2184   0.2258   0.2296   0.2410   0.2450   0.2575
  0.2709   0.2713   0.2787   0.2887   0.2958   0.3004   0.3071   0.3142
  0.3202   0.3232   0.3334   0.3385   0.3432   0.3480   0.3517   0.3548
  0.3644   0.3706   0.3732   0.3767   0.3820   0.3862   0.3898   0.3947
  0.3979   0.4084   0.4183   0.4232   0.4260   0.4325   0.4431   0.4458
  0.4484   0.4654   0.4682   0.4774   0.4839   0.5140   0.5229   0.5289
  0.5466   0.5634   0.5933   0.5984   0.6112   0.6164   0.6187   0.6291
  0.6521   0.6538   0.6607   0.6708   0.6753   0.6815   0.6872   0.6917
  0.7044   0.7117   0.7192   0.7223   0.7328   0.7425   0.7501   0.7589
  0.7685   0.7731   0.7866   0.8032   0.8238   0.8355   0.8528   0.8609
  0.8794   0.8858   0.9010   0.9260   0.9474   0.9509   0.9670   0.9909
  1.0099   1.0383   1.0455   1.0603   1.0687   1.0794   1.0879   1.1016
  1.1135   1.1181   1.1269   1.1341   1.1495   1.1705   1.1731   1.1760
  1.1921   1.2017   1.2178   1.2282   1.2306   1.2393   1.2526   1.2637
  1.2745   1.2811   1.2912   1.2985   1.3077   1.3132   1.3153   1.3207
  1.3260   1.3401   1.3520   1.3623   1.3651   1.3728   1.3855   1.3911
  1.4006   1.4075   1.4253   1.4355   1.4511   1.4624   1.4712   1.4805
  1.4920   1.5033   1.5151   1.5296   1.5381   1.5462   1.5714   1.5781
  1.5845   1.6005   1.6250   1.6356   1.6511   1.6589   1.6629   1.6757
  1.6935   1.7145   1.7257   1.7679   1.7784   1.7993   1.8028   1.8272
  1.8675   1.8744   1.8807   1.9062   1.9220   1.9495   1.9716   1.9959
  2.0117   2.0382   2.0609   2.0676   2.1023   2.1283   2.1505   2.1699
  2.1771   2.1971   2.2220   2.2637   2.2761   2.3122   2.3288   2.3766
  2.3915   2.4129   2.4306   2.4546   2.4757   2.5134   2.5635   2.6559
  2.6821   2.6943   2.7126   2.7438   2.7633   2.7840   2.7982   2.8074
  2.8218   2.8373   2.8646   2.8814   2.8938   2.9058   2.9214   2.9483
  2.9661   2.9734   2.9894   3.0032   3.0111   3.0255   3.0627   3.0760
  3.1006   3.1070   3.1271   3.1696   3.1821   3.2011   3.2195   3.2304
  3.2417   3.2593   3.2971   3.3092   3.3159   3.3333   3.3507   3.3562
  3.3713   3.3939   3.4066   3.4442   3.4507   3.4704   3.4771   3.4845
  3.5176   3.5258   3.5592   3.5632   3.5656   3.5846   3.5934   3.6211
  3.6311   3.6326   3.6418   3.6689   3.6897   3.6947   3.7179   3.7321
  3.7486   3.7631   3.7685   3.7821   3.7952   3.8024   3.8217   3.8490
  3.8598   3.8751   3.8858   3.8972   3.9110   3.9226   3.9415   3.9500
  3.9615   3.9700   3.9982   4.0056   4.0154   4.0435   4.0681   4.0757
  4.0927   4.1059   4.1225   4.1499   4.1905   4.2016   4.2280   4.2539
  4.2636   4.2840   4.2924   4.2999   4.3112   4.3408   4.3490   4.3598
  4.3780   4.3975   4.4158   4.4337   4.4368   4.4722   4.4776   4.4931
  4.5003   4.5284   4.5409   4.5700   4.5732   4.5992   4.6208   4.6346
  4.6522   4.6693   4.7032   4.7233   4.7392   4.7536   4.7671   4.8069
  4.8747   4.9534   4.9675   5.0729   5.0813   5.1296   5.1998   5.2311
  5.2557   5.2668   5.2868   5.2921   5.3000   5.3099   5.3161   5.3330
  5.3459   5.3589   5.3764   5.3867   5.3974   5.4243   5.4322   5.4453
  5.4503   5.4938   5.4954   5.5023   5.5106   5.5472   5.5727   5.5956
  5.5987   5.6058   5.6222   5.6477   5.6901   5.6918   5.7227   5.7462
  5.7638   5.7674   5.7830   5.7970   5.8664   5.8774   5.9397   5.9559
  5.9880   6.0207   6.0245   6.0601   6.0693   6.0759   6.2281   6.6023
  6.6258   6.6602   6.6781   6.7271   6.7876   7.0348   7.0465   7.0934
  7.1050   7.1504   7.2492   7.2893   7.3179   7.3582   7.3883   7.4084
  7.4170   7.4369   7.4552   7.4899   7.4950   7.5339   7.5671   7.6347
  7.6540   7.6958   7.7490   7.7932   7.8611   7.9005   7.9589   8.2616
 24.4198  24.6838  24.7577  24.7944  24.8235  24.9024  25.0609  50.5932
 50.6223  50.6535  50.6940  50.6959
 
 Beta MOs
 -- Occupied --
-19.4096 -19.4087 -19.3533 -19.3442 -19.3440 -10.4226 -10.4118 -10.4115
-10.4084 -10.3990 -10.3974 -10.3731  -1.2715  -1.1770  -1.1621  -1.1404
 -1.0768  -0.9517  -0.8841  -0.8449  -0.7992  -0.7542  -0.7166  -0.6902
 -0.6611  -0.6377  -0.6103  -0.5996  -0.5845  -0.5769  -0.5621  -0.5435
 -0.5309  -0.5258  -0.5127  -0.4973  -0.4814  -0.4705  -0.4533  -0.4411
 -0.4197  -0.3998  -0.3874  -0.3741  -0.3583
 -- Virtual --
 -0.0533   0.0250   0.0343   0.0364   0.0460   0.0529   0.0550   0.0571
  0.0773   0.0812   0.0854   0.0878   0.0936   0.1136   0.1183   0.1247
  0.1278   0.1333   0.1401   0.1426   0.1476   0.1546   0.1558   0.1611
  0.1667   0.1706   0.1729   0.1763   0.1807   0.1909   0.1970   0.2018
  0.2069   0.2108   0.2159   0.2192   0.2281   0.2298   0.2417   0.2462
  0.2584   0.2713   0.2730   0.2788   0.2897   0.2966   0.3019   0.3074
  0.3152   0.3208   0.3240   0.3339   0.3391   0.3442   0.3484   0.3531
  0.3563   0.3652   0.3731   0.3751   0.3777   0.3829   0.3866   0.3914
  0.3948   0.3986   0.4099   0.4188   0.4249   0.4265   0.4327   0.4443
  0.4478   0.4501   0.4676   0.4699   0.4793   0.4845   0.5151   0.5236
  0.5308   0.5478   0.5643   0.5969   0.6020   0.6130   0.6179   0.6213
  0.6309   0.6523   0.6545   0.6621   0.6716   0.6762   0.6822   0.6887
  0.6927   0.7061   0.7123   0.7199   0.7252   0.7344   0.7441   0.7508
  0.7622   0.7710   0.7757   0.7871   0.8081   0.8259   0.8368   0.8557
  0.8619   0.8806   0.8889   0.9047   0.9265   0.9484   0.9528   0.9682
  0.9917   1.0113   1.0405   1.0468   1.0611   1.0694   1.0804   1.0902
  1.1042   1.1150   1.1196   1.1293   1.1356   1.1503   1.1713   1.1743
  1.1783   1.1944   1.2038   1.2189   1.2298   1.2333   1.2428   1.2570
  1.2644   1.2785   1.2825   1.2942   1.3021   1.3101   1.3149   1.3190
  1.3222   1.3273   1.3413   1.3537   1.3640   1.3676   1.3754   1.3893
  1.3938   1.4033   1.4107   1.4272   1.4387   1.4547   1.4632   1.4725
  1.4822   1.4959   1.5043   1.5175   1.5305   1.5406   1.5486   1.5736
  1.5798   1.5868   1.6039   1.6272   1.6376   1.6549   1.6612   1.6661
  1.6783   1.6956   1.7169   1.7281   1.7699   1.7816   1.8027   1.8067
  1.8325   1.8709   1.8777   1.8846   1.9112   1.9284   1.9560   1.9733
  2.0005   2.0148   2.0397   2.0631   2.0789   2.1050   2.1324   2.1523
  2.1736   2.1839   2.1984   2.2266   2.2662   2.2780   2.3153   2.3297
  2.3779   2.3945   2.4163   2.4323   2.4591   2.4766   2.5152   2.5661
  2.6618   2.6841   2.6977   2.7151   2.7463   2.7676   2.7853   2.8023
  2.8100   2.8316   2.8432   2.8675   2.8852   2.8927   2.9108   2.9359
  2.9589   2.9742   2.9861   2.9949   3.0083   3.0248   3.0354   3.0677
  3.0790   3.1050   3.1108   3.1303   3.1755   3.1852   3.2048   3.2221
  3.2370   3.2449   3.2627   3.3029   3.3165   3.3197   3.3354   3.3551
  3.3636   3.3768   3.3969   3.4135   3.4464   3.4549   3.4751   3.4817
  3.4902   3.5212   3.5301   3.5613   3.5641   3.5761   3.5871   3.6014
  3.6288   3.6334   3.6348   3.6507   3.6729   3.6963   3.7043   3.7220
  3.7366   3.7510   3.7673   3.7778   3.7878   3.8003   3.8059   3.8252
  3.8529   3.8631   3.8786   3.8897   3.8992   3.9145   3.9251   3.9461
  3.9516   3.9655   3.9720   4.0006   4.0098   4.0192   4.0468   4.0734
  4.0803   4.0960   4.1118   4.1262   4.1524   4.1944   4.2036   4.2305
  4.2563   4.2685   4.2912   4.2960   4.3028   4.3140   4.3439   4.3514
  4.3625   4.3802   4.4003   4.4188   4.4366   4.4414   4.4764   4.4801
  4.4949   4.5036   4.5369   4.5485   4.5751   4.5814   4.6058   4.6246
  4.6396   4.6623   4.6726   4.7052   4.7255   4.7416   4.7575   4.7767
  4.8124   4.8771   4.9614   4.9718   5.0810   5.0900   5.1374   5.2076
  5.2470   5.2650   5.2702   5.2935   5.3035   5.3064   5.3227   5.3279
  5.3394   5.3596   5.3735   5.3821   5.3992   5.4030   5.4282   5.4445
  5.4530   5.4571   5.5008   5.5066   5.5129   5.5161   5.5499   5.5750
  5.6014   5.6052   5.6179   5.6250   5.6495   5.6909   5.7141   5.7245
  5.7521   5.7644   5.7703   5.7894   5.8001   5.8693   5.8835   5.9476
  5.9627   5.9958   6.0223   6.0441   6.0651   6.0783   6.0785   6.2293
  6.6037   6.6274   6.6628   6.6812   6.7319   6.7931   7.0371   7.0991
  7.1099   7.1411   7.1581   7.2497   7.2902   7.3189   7.3592   7.3893
  7.4139   7.4228   7.4388   7.4563   7.4929   7.5043   7.5378   7.6243
  7.6389   7.6549   7.7008   7.7767   7.7935   7.8631   7.9017   7.9608
  8.2626  24.4227  24.6839  24.7578  24.7947  24.8236  24.9026  25.0651
 50.5934  50.6224  50.6592  50.6963  50.6986
 --------------------------------------------------------------
 
          Ground-State Mulliken Net Atomic Charges

     Atom                 Charge (a.u.)    Spin (a.u.)
  --------------------------------------------------------
      1 C                    -0.112516       0.022114
      2 C                    -0.123339      -0.035809
      3 C                    -0.367906       0.106732
      4 C                    -0.213811      -0.153213
      5 C                    -0.338242       0.611232
      6 C                     0.178659      -0.063927
      7 C                    -0.337740       0.007038
      8 H                     0.328126      -0.001948
      9 H                     0.274681       0.000507
     10 H                     0.263948       0.002294
     11 H                     0.326995       0.004432
     12 H                     0.332097      -0.009539
     13 H                     0.250305      -0.000176
     14 O                    -0.370106       0.000751
     15 H                     0.239522      -0.000533
     16 H                     0.328970       0.000440
     17 O                    -0.416299       0.002074
     18 H                     0.337043       0.002632
     19 O                    -0.107243      -0.001049
     20 O                    -0.126307       0.026692
     21 O                    -0.346837       0.479255
  --------------------------------------------------------
  Sum of atomic charges =    -0.000000
  Sum of spin   charges =     1.000000

 -----------------------------------------------------------------
                    Cartesian Multipole Moments
 -----------------------------------------------------------------
    Charge (ESU x 10^10)
                -0.0000
    Dipole Moment (Debye)
         X      -2.0989      Y       2.6181      Z      -3.0985
       Tot       4.5673
    Quadrupole Moments (Debye-Ang)
        XX     -70.6102     XY       6.7741     YY     -81.5642
        XZ       9.8471     YZ      -4.5558     ZZ     -60.7524
    Octopole Moments (Debye-Ang^2)
       XXX     196.2055    XXY      14.1047    XYY      51.4835
       YYY     150.8375    XXZ     -37.7754    XYZ      12.5541
       YYZ      -5.7294    XZZ      64.3056    YZZ      17.7716
       ZZZ     -64.7530
    Hexadecapole Moments (Debye-Ang^3)
      XXXX    -876.8672   XXXY     -95.2910   XXYY    -269.1610
      XYYY    -151.0668   YYYY   -1146.9630   XXXZ     154.7319
      XXYZ      37.6009   XYYZ      38.5626   YYYZ     120.0059
      XXZZ    -257.1999   XYZZ     -42.3142   YYZZ    -256.0463
      XZZZ     147.6255   YZZZ      99.0484   ZZZZ    -577.9875
 -----------------------------------------------------------------
 Calculating analytic gradient of the SCF energy
 Gradient of CDS energy
            1           2           3           4           5           6
    1   0.0018425  -0.0000003   0.0031247  -0.0002380  -0.0001487   0.0000515
    2  -0.0012551   0.0000922  -0.0037249  -0.0001858   0.0000785   0.0000632
    3  -0.0012170   0.0001826  -0.0030695  -0.0001469  -0.0002016   0.0001577
            7           8           9          10          11          12
    1   0.0000673  -0.0000557   0.0000695  -0.0001435  -0.0000988  -0.0000510
    2   0.0009982   0.0002000  -0.0000217  -0.0000437  -0.0001809   0.0000819
    3  -0.0003464   0.0001109   0.0002078   0.0001636  -0.0000679  -0.0001256
           13          14          15          16          17          18
    1  -0.0002347  -0.0001587   0.0001374   0.0001698  -0.0018374   0.0004219
    2  -0.0002505  -0.0002252  -0.0001186   0.0000453   0.0011145  -0.0000496
    3  -0.0000647   0.0002726   0.0002821  -0.0004977   0.0013071  -0.0001740
           19          20          21
    1  -0.0000039   0.0000601  -0.0029742
    2   0.0000723  -0.0000851   0.0033949
    3  -0.0000798   0.0000852   0.0032215
 Gradient of SCF Energy
            1           2           3           4           5           6
    1   0.0072789  -0.0090036   0.0091279   0.0053658   0.0051229  -0.0024456
    2  -0.0078292   0.0062932  -0.0025669   0.0000279   0.0020107   0.0031301
    3  -0.0083586  -0.0049424   0.0009490   0.0071181   0.0073052   0.0037107
            7           8           9          10          11          12
    1   0.0119107   0.0040270   0.0035450  -0.0050327  -0.0087098  -0.0071654
    2  -0.0196172   0.0082738  -0.0019338  -0.0031350  -0.0055262   0.0046713
    3  -0.0003170   0.0044506   0.0078620   0.0054207  -0.0048952  -0.0191361
           13          14          15          16          17          18
    1  -0.0127368   0.0135416   0.0031132  -0.0129658  -0.0007181  -0.0003059
    2   0.0053322   0.0206614   0.0088305  -0.0158125  -0.0175341   0.0122570
    3  -0.0099393   0.0206170   0.0073495  -0.0183539   0.0085991  -0.0098890
           19          20          21
    1  -0.0029394  -0.0046549   0.0036451
    2   0.0013835   0.0042650  -0.0031816
    3   0.0065560  -0.0000747  -0.0040315
 Max gradient component =       2.066E-02
 RMS gradient           =       8.856E-03
 Computing fast CPCM-SWIG gradient
 Updating gradient with PCM contributions...
 -- total gradient after adding PCM contribution --
---------------------------------------------------
  Atom         X              Y              Z     
---------------------------------------------------
   1       0.002574      -0.001341      -0.003650
   2      -0.000049       0.000129      -0.001420
   3       0.002252      -0.000639       0.000247
   4       0.000340      -0.001287       0.001338
   5       0.002081       0.001643      -0.001241
   6      -0.000315      -0.000110       0.000796
   7       0.001253      -0.002644      -0.002235
   8       0.001184       0.002946       0.002037
   9       0.001331      -0.000562       0.002765
  10      -0.002389      -0.001503       0.002359
  11      -0.002222      -0.002348      -0.001477
  12      -0.001312       0.000508      -0.002897
  13      -0.002679       0.001554      -0.001507
  14       0.006017       0.003718       0.006023
  15       0.001151       0.002295       0.001776
  16      -0.004123      -0.004054      -0.004548
  17      -0.001288      -0.007446       0.004587
  18      -0.000252       0.006197      -0.004658
  19      -0.001145      -0.000983       0.004745
  20      -0.002867       0.003743      -0.001780
  21       0.000458       0.000186      -0.001260
---------------------------------------------------
 Number of fixed atoms: 0
 Gradient time:  CPU 685.36 s  wall 34.23 s
 ######################################################
 ######################################################
 # Starting finite difference calculation for IDERIV  #
 Finite diff step size:  1.88973e-03 a.u.
 ----------------------------------------------------------------
             Standard Nuclear Orientation (Angstroms)
    I     Atom           X                Y                Z
 ----------------------------------------------------------------
    1      C       0.0157868000    -0.2201470000     0.7491220000
    2      C      -0.8339675000    -1.0277593000     1.7313942000
    3      C      -1.5773662000    -2.2112444000     1.1099962000
    4      C      -2.1666233000    -1.9164666000    -0.2267948000
    5      C      -1.8377068000    -0.7392019000    -0.8682438000
    6      C      -1.1368627000     0.3465842000    -0.0870781000
    7      C      -0.7155843000     1.5496840000    -0.9231352000
    8      H       0.4733530000     0.6098822000     1.3045962000
    9      H      -0.3030758000    -1.3060163000     2.6447065000
   10      H      -2.2318067000    -2.7158512000     1.8276012000
   11      H      -2.8731224000    -2.6210622000    -0.6459793000
   12      H      -2.2334629000    -0.5172063000    -1.8563083000
   13      H      -1.5560006000     1.9374977000    -1.5089036000
   14      O       0.3763963000     1.1830084000    -1.7654066000
   15      H      -0.3548961000     2.3335902000    -0.2534262000
   16      H       0.0197799000     0.6633426000    -2.5054954000
   17      O       0.9759996000    -0.9388306000     0.0161507000
   18      H       1.2252805000    -0.3325842000    -0.7091200000
   19      O      -1.8056726000    -0.0486043000     2.1239195000
   20      O      -2.0370977000     0.8099405000     0.9382599000
   21      O      -0.8235334000    -3.0468269000     0.2901215000
 ----------------------------------------------------------------
 Nuclear Repulsion Energy =         798.18266352 hartrees
 There are       46 alpha and       45 beta electrons
 Discretize the solute cavity surface with Lebedev spheres
	Using 110 Lebedev grid points for each H atom
	Using 194 Lebedev grid points for other atoms
	Atomic van der Waals radii will be scaled by 1.20
 Remove points where switching function is < 1.0e-08
 Keep 1503 surface tesserae and discard 1815 interior tesserae
 Molecular Surface Area = 167.053 Angst**2
 Requested basis set is 6-311++G(2df,2p)
 There are 150 shells and 498 basis functions
 A cutoff of  1.0D-11 yielded  10030 shell pairs
 There are    111797 function pairs (    140085 Cartesian)
 Smallest overlap matrix eigenvalue = 2.32E-06

 Q-Chem warning in module stvman/mkSTV.C, line 323:

 Overlap eigenvalue is smaller than square root of threshold
 Use THRESH >= 12 to get rid of this warning

 Guess MOs from SCF MO coefficient file

 -----------------------------------------------------------------------
  General SCF calculation program by
  Eric Jon Sundstrom, Paul Horn, Yuezhi Mao, Dmitri Zuev, Alec White,
  David Stuck, Shaama M.S., Shane Yost, Joonho Lee, David Small,
  Daniel Levine, Susi Lehtola, Hugh Burton, Evgeny Epifanovsky,
  Bang C. Huynh
 -----------------------------------------------------------------------
 Exchange:     0.1500 Hartree-Fock + 1.0000 wB97M-V + LR-HF
 Correlation:  1.0000 wB97M-V
 Using SG-2 standard quadrature grid
 Nonlocal Correlation:  VV10 with C = 0.0100 and b = 6.00 and scale = 1.00000
 Grid used for NLC:  SG-1 standard quadrature
 
 Citation of the SMD model:
 Marenich, A.V.; Cramer, C.J.; Truhlar, D.G.
 J. Phys. Chem. B 2009, 113, 6378-6396.
 iSolventCode=           1
 Solvent: water                                                           
 
 vradii
            1           2           3           4           5           6
    1   1.8500000   1.8500000   1.8500000   1.8500000   1.8500000   1.8500000
            7           8           9          10          11          12
    1   1.8500000   1.2000000   1.2000000   1.2000000   1.2000000   1.2000000
           13          14          15          16          17          18
    1   1.2000000   1.5200000   1.2000000   1.2000000   1.5200000   1.2000000
           19          20          21
    1   1.5200000   1.5200000   1.5200000
 -------------------------------------------------------
 OpenMP BLAS3 based DFT computing Module                
 Release: version 1.0, May 2013, Q-Chem Inc. Pittsburgh 
 -------------------------------------------------------
 A unrestricted SCF calculation will be
 performed using Roothaan-Hall, DIIS, GDM
 SCF converges when RMS gradient is below 1.0e-06
 ---------------------------------------
  Cycle       Energy         DIIS error
 ---------------------------------------
    1    -648.0491042465      2.06e-04  Roothaan Step
 ---------------------------------------
  Cycle       Energy         DIIS error
 ---------------------------------------
    1    -648.0859211797      2.51e-04  
    2    -648.0912704808      2.66e-04  Done DIIS. Switching to GDM
 ---------------------------------------
  Cycle       Energy        RMS Gradient
 ---------------------------------------
    1    -648.0912704808      1.96e-02   Normal BFGS step
    2    -648.0887290014      3.17e-02  Line search: overstep
    3    -648.0971853971      3.48e-03   Normal BFGS step
    4    -648.0974264284      1.70e-03   Normal BFGS step
    5    -648.0974909309      1.10e-03   Normal BFGS step
    6    -648.0975012799      7.17e-04   Normal BFGS step
    7    -648.0975046000      5.25e-04   Normal BFGS step
    8    -648.0975063455      2.03e-04   Normal BFGS step
    9    -648.0975067783      1.19e-04   Normal BFGS step
   10    -648.0975069158      7.23e-05   Normal BFGS step
   11    -648.0975069782      3.44e-05   Normal BFGS step
   12    -648.0975069884      1.23e-05   Normal BFGS step
   13    -648.0975069914      5.78e-06   Normal BFGS step
   14    -648.0975069916      4.54e-06   Normal BFGS step
   15    -648.0975069915      2.69e-06   Normal BFGS step
   16    -648.0975069917      1.98e-06   Normal BFGS step
   17    -648.0975069910      9.99e-07  Convergence criterion met
 ---------------------------------------
 SCF time:   CPU 4528.81s  wall 187.00s 
<S^2> =          0.787343872
(3)  G-ENP(liq) elect-nuc-pol free energy of system     -648.097506991 a.u.
(4)  G-CDS(liq) cavity-dispersion-solvent structure 
     free energy                                                2.7862 kcal/mol
(6)  G-S(liq) free energy of system                     -648.093066822 a.u.
 SCF   energy in the final basis set =     -648.0930668222
 Total energy in the final basis set =     -648.0930668222
 
 --------------------------------------------------------------
 
                    Orbital Energies (a.u.)
 --------------------------------------------------------------
 
 Alpha MOs
 -- Occupied --
-19.4101 -19.4095 -19.3580 -19.3534 -19.3443 -10.4221 -10.4118 -10.4116
-10.4090 -10.3990 -10.3960 -10.3814  -1.2727  -1.1782  -1.1675  -1.1588
 -1.0785  -0.9602  -0.8907  -0.8484  -0.8044  -0.7592  -0.7210  -0.6924
 -0.6636  -0.6426  -0.6124  -0.6047  -0.5887  -0.5840  -0.5654  -0.5512
 -0.5336  -0.5288  -0.5199  -0.4987  -0.4937  -0.4797  -0.4572  -0.4490
 -0.4274  -0.4213  -0.3933  -0.3798  -0.3657  -0.3387
 -- Virtual --
  0.0248   0.0344   0.0363   0.0447   0.0500   0.0548   0.0567   0.0741
  0.0794   0.0837   0.0852   0.0899   0.1077   0.1190   0.1245   0.1275
  0.1334   0.1382   0.1415   0.1474   0.1539   0.1544   0.1608   0.1664
  0.1703   0.1722   0.1748   0.1791   0.1904   0.1972   0.2010   0.2054
  0.2104   0.2160   0.2183   0.2258   0.2296   0.2410   0.2450   0.2575
  0.2709   0.2713   0.2787   0.2887   0.2959   0.3004   0.3071   0.3143
  0.3202   0.3232   0.3334   0.3384   0.3432   0.3480   0.3517   0.3548
  0.3644   0.3706   0.3733   0.3767   0.3820   0.3862   0.3897   0.3947
  0.3979   0.4085   0.4184   0.4232   0.4260   0.4325   0.4431   0.4458
  0.4484   0.4654   0.4682   0.4774   0.4839   0.5140   0.5229   0.5289
  0.5466   0.5634   0.5933   0.5984   0.6112   0.6164   0.6188   0.6291
  0.6521   0.6538   0.6607   0.6708   0.6753   0.6814   0.6872   0.6917
  0.7044   0.7117   0.7192   0.7223   0.7328   0.7426   0.7501   0.7589
  0.7685   0.7731   0.7866   0.8031   0.8238   0.8355   0.8528   0.8609
  0.8794   0.8858   0.9010   0.9261   0.9474   0.9509   0.9670   0.9909
  1.0099   1.0383   1.0455   1.0603   1.0687   1.0794   1.0879   1.1016
  1.1135   1.1181   1.1269   1.1341   1.1495   1.1705   1.1731   1.1760
  1.1921   1.2017   1.2178   1.2282   1.2306   1.2393   1.2526   1.2636
  1.2745   1.2811   1.2912   1.2985   1.3077   1.3132   1.3153   1.3206
  1.3260   1.3401   1.3520   1.3623   1.3650   1.3728   1.3854   1.3911
  1.4006   1.4074   1.4253   1.4355   1.4511   1.4624   1.4712   1.4805
  1.4920   1.5032   1.5151   1.5296   1.5381   1.5462   1.5714   1.5781
  1.5845   1.6005   1.6250   1.6356   1.6512   1.6590   1.6630   1.6757
  1.6932   1.7145   1.7257   1.7679   1.7784   1.7993   1.8028   1.8272
  1.8676   1.8743   1.8807   1.9062   1.9221   1.9494   1.9716   1.9959
  2.0117   2.0382   2.0609   2.0676   2.1024   2.1283   2.1504   2.1699
  2.1771   2.1971   2.2220   2.2637   2.2761   2.3123   2.3289   2.3767
  2.3916   2.4129   2.4306   2.4544   2.4757   2.5135   2.5635   2.6558
  2.6821   2.6943   2.7126   2.7438   2.7633   2.7838   2.7981   2.8074
  2.8217   2.8373   2.8645   2.8814   2.8938   2.9058   2.9213   2.9482
  2.9661   2.9733   2.9892   3.0030   3.0111   3.0255   3.0627   3.0758
  3.1006   3.1070   3.1270   3.1696   3.1821   3.2011   3.2194   3.2303
  3.2417   3.2593   3.2972   3.3092   3.3158   3.3333   3.3506   3.3563
  3.3712   3.3938   3.4065   3.4441   3.4507   3.4704   3.4771   3.4845
  3.5176   3.5258   3.5591   3.5633   3.5655   3.5845   3.5934   3.6210
  3.6311   3.6326   3.6418   3.6689   3.6898   3.6947   3.7180   3.7321
  3.7486   3.7632   3.7685   3.7821   3.7952   3.8023   3.8217   3.8490
  3.8598   3.8751   3.8855   3.8970   3.9109   3.9226   3.9415   3.9498
  3.9614   3.9700   3.9981   4.0056   4.0150   4.0434   4.0681   4.0756
  4.0926   4.1058   4.1224   4.1498   4.1903   4.2014   4.2280   4.2539
  4.2635   4.2840   4.2922   4.2999   4.3111   4.3407   4.3488   4.3597
  4.3780   4.3975   4.4157   4.4336   4.4367   4.4722   4.4777   4.4932
  4.5004   4.5283   4.5410   4.5700   4.5733   4.5991   4.6207   4.6344
  4.6521   4.6691   4.7032   4.7232   4.7392   4.7532   4.7669   4.8068
  4.8745   4.9534   4.9674   5.0729   5.0812   5.1293   5.1998   5.2310
  5.2554   5.2668   5.2868   5.2921   5.3000   5.3099   5.3160   5.3330
  5.3458   5.3589   5.3764   5.3866   5.3975   5.4242   5.4322   5.4453
  5.4503   5.4935   5.4953   5.5022   5.5105   5.5471   5.5727   5.5957
  5.5987   5.6059   5.6222   5.6478   5.6901   5.6918   5.7227   5.7461
  5.7644   5.7678   5.7830   5.7970   5.8664   5.8775   5.9399   5.9560
  5.9881   6.0208   6.0246   6.0604   6.0697   6.0766   6.2281   6.6023
  6.6257   6.6602   6.6781   6.7276   6.7885   7.0348   7.0465   7.0934
  7.1050   7.1504   7.2492   7.2894   7.3179   7.3582   7.3883   7.4085
  7.4170   7.4370   7.4552   7.4898   7.4951   7.5340   7.5671   7.6348
  7.6540   7.6959   7.7490   7.7932   7.8611   7.9005   7.9588   8.2616
 24.4198  24.6837  24.7581  24.7943  24.8229  24.9022  25.0609  50.5932
 50.6222  50.6536  50.6940  50.6959
 
 Beta MOs
 -- Occupied --
-19.4096 -19.4087 -19.3533 -19.3443 -19.3440 -10.4226 -10.4118 -10.4115
-10.4084 -10.3990 -10.3974 -10.3731  -1.2714  -1.1771  -1.1622  -1.1404
 -1.0767  -0.9516  -0.8840  -0.8449  -0.7992  -0.7542  -0.7165  -0.6902
 -0.6611  -0.6377  -0.6103  -0.5996  -0.5845  -0.5769  -0.5621  -0.5435
 -0.5309  -0.5258  -0.5127  -0.4973  -0.4814  -0.4704  -0.4533  -0.4411
 -0.4197  -0.3998  -0.3873  -0.3741  -0.3583
 -- Virtual --
 -0.0533   0.0250   0.0343   0.0364   0.0460   0.0529   0.0550   0.0572
  0.0773   0.0812   0.0854   0.0878   0.0936   0.1136   0.1183   0.1247
  0.1278   0.1333   0.1401   0.1426   0.1476   0.1546   0.1558   0.1611
  0.1667   0.1706   0.1729   0.1763   0.1807   0.1909   0.1970   0.2018
  0.2069   0.2108   0.2159   0.2192   0.2281   0.2298   0.2417   0.2462
  0.2584   0.2713   0.2730   0.2788   0.2897   0.2967   0.3019   0.3074
  0.3152   0.3207   0.3240   0.3339   0.3391   0.3442   0.3484   0.3532
  0.3563   0.3652   0.3731   0.3751   0.3777   0.3829   0.3866   0.3913
  0.3948   0.3986   0.4099   0.4188   0.4249   0.4265   0.4327   0.4443
  0.4478   0.4501   0.4676   0.4699   0.4793   0.4845   0.5151   0.5237
  0.5308   0.5478   0.5643   0.5969   0.6020   0.6130   0.6179   0.6213
  0.6309   0.6523   0.6545   0.6620   0.6716   0.6762   0.6822   0.6887
  0.6927   0.7061   0.7123   0.7199   0.7252   0.7344   0.7441   0.7508
  0.7622   0.7710   0.7757   0.7871   0.8081   0.8259   0.8369   0.8558
  0.8619   0.8806   0.8889   0.9047   0.9265   0.9484   0.9528   0.9682
  0.9917   1.0113   1.0405   1.0468   1.0611   1.0693   1.0804   1.0902
  1.1042   1.1150   1.1196   1.1293   1.1356   1.1503   1.1713   1.1743
  1.1782   1.1944   1.2038   1.2189   1.2298   1.2333   1.2428   1.2570
  1.2644   1.2785   1.2825   1.2942   1.3021   1.3101   1.3149   1.3190
  1.3222   1.3273   1.3413   1.3537   1.3640   1.3675   1.3753   1.3892
  1.3938   1.4033   1.4106   1.4271   1.4387   1.4547   1.4632   1.4725
  1.4822   1.4959   1.5041   1.5175   1.5305   1.5406   1.5486   1.5735
  1.5797   1.5868   1.6039   1.6272   1.6376   1.6550   1.6612   1.6662
  1.6783   1.6954   1.7169   1.7280   1.7699   1.7816   1.8026   1.8067
  1.8325   1.8709   1.8776   1.8846   1.9112   1.9284   1.9560   1.9733
  2.0005   2.0148   2.0397   2.0632   2.0789   2.1050   2.1325   2.1523
  2.1736   2.1839   2.1984   2.2266   2.2662   2.2780   2.3154   2.3298
  2.3781   2.3946   2.4162   2.4323   2.4590   2.4766   2.5153   2.5662
  2.6617   2.6841   2.6977   2.7152   2.7462   2.7676   2.7851   2.8022
  2.8100   2.8316   2.8432   2.8674   2.8852   2.8927   2.9108   2.9357
  2.9589   2.9742   2.9860   2.9947   3.0083   3.0248   3.0354   3.0676
  3.0788   3.1050   3.1108   3.1301   3.1755   3.1851   3.2047   3.2221
  3.2370   3.2449   3.2627   3.3030   3.3166   3.3196   3.3353   3.3550
  3.3636   3.3768   3.3968   3.4134   3.4464   3.4549   3.4751   3.4817
  3.4902   3.5211   3.5301   3.5612   3.5641   3.5762   3.5870   3.6014
  3.6287   3.6334   3.6348   3.6506   3.6729   3.6963   3.7043   3.7221
  3.7367   3.7510   3.7674   3.7778   3.7878   3.8003   3.8058   3.8252
  3.8529   3.8631   3.8786   3.8894   3.8989   3.9145   3.9251   3.9460
  3.9515   3.9653   3.9720   4.0006   4.0098   4.0189   4.0468   4.0734
  4.0802   4.0959   4.1117   4.1262   4.1524   4.1943   4.2034   4.2305
  4.2562   4.2684   4.2912   4.2958   4.3028   4.3139   4.3439   4.3512
  4.3623   4.3802   4.4004   4.4187   4.4365   4.4414   4.4763   4.4803
  4.4950   4.5037   4.5369   4.5484   4.5750   4.5815   4.6057   4.6245
  4.6395   4.6622   4.6725   4.7052   4.7254   4.7415   4.7571   4.7765
  4.8122   4.8770   4.9614   4.9717   5.0809   5.0898   5.1371   5.2076
  5.2468   5.2648   5.2702   5.2935   5.3035   5.3064   5.3227   5.3279
  5.3395   5.3596   5.3736   5.3821   5.3992   5.4031   5.4281   5.4445
  5.4530   5.4571   5.5006   5.5066   5.5129   5.5159   5.5499   5.5750
  5.6014   5.6053   5.6180   5.6251   5.6495   5.6909   5.7141   5.7245
  5.7520   5.7649   5.7708   5.7895   5.8001   5.8693   5.8837   5.9478
  5.9628   5.9959   6.0224   6.0442   6.0656   6.0784   6.0791   6.2293
  6.6037   6.6273   6.6628   6.6812   6.7326   6.7938   7.0371   7.0991
  7.1099   7.1411   7.1581   7.2498   7.2902   7.3189   7.3592   7.3892
  7.4140   7.4229   7.4388   7.4564   7.4928   7.5044   7.5379   7.6243
  7.6389   7.6548   7.7009   7.7767   7.7935   7.8631   7.9017   7.9608
  8.2626  24.4226  24.6839  24.7581  24.7946  24.8231  24.9023  25.0650
 50.5933  50.6224  50.6593  50.6963  50.6986
 --------------------------------------------------------------
 
          Ground-State Mulliken Net Atomic Charges

     Atom                 Charge (a.u.)    Spin (a.u.)
  --------------------------------------------------------
      1 C                    -0.112747       0.022130
      2 C                    -0.123006      -0.035814
      3 C                    -0.367937       0.106738
      4 C                    -0.213941      -0.153192
      5 C                    -0.337929       0.611210
      6 C                     0.178075      -0.063921
      7 C                    -0.337817       0.007042
      8 H                     0.328236      -0.001947
      9 H                     0.274681       0.000508
     10 H                     0.263955       0.002294
     11 H                     0.326979       0.004432
     12 H                     0.332112      -0.009542
     13 H                     0.250274      -0.000176
     14 O                    -0.370096       0.000751
     15 H                     0.239523      -0.000533
     16 H                     0.328969       0.000440
     17 O                    -0.415898       0.002071
     18 H                     0.337049       0.002634
     19 O                    -0.107272      -0.001049
     20 O                    -0.126333       0.026687
     21 O                    -0.346878       0.479238
  --------------------------------------------------------
  Sum of atomic charges =    -0.000000
  Sum of spin   charges =     1.000000

 -----------------------------------------------------------------
                    Cartesian Multipole Moments
 -----------------------------------------------------------------
    Charge (ESU x 10^10)
                -0.0000
    Dipole Moment (Debye)
         X      -2.0946      Y       2.6172      Z      -3.0996
       Tot       4.5656
    Quadrupole Moments (Debye-Ang)
        XX     -70.6111     XY       6.7720     YY     -81.5670
        XZ       9.8484     YZ      -4.5526     ZZ     -60.7575
    Octopole Moments (Debye-Ang^2)
       XXX     196.2038    XXY      14.1036    XYY      51.4874
       YYY     150.8382    XXZ     -37.7751    XYZ      12.5517
       YYZ      -5.7310    XZZ      64.3086    YZZ      17.7757
       ZZZ     -64.7662
    Hexadecapole Moments (Debye-Ang^3)
      XXXX    -876.8834   XXXY     -95.2947   XXYY    -269.1713
      XYYY    -151.0733   YYYY   -1146.9961   XXXZ     154.7226
      XXYZ      37.6028   XYYZ      38.5581   YYYZ     120.0196
      XXZZ    -257.2092   XYZZ     -42.3180   YYZZ    -256.0598
      XZZZ     147.6244   YZZZ      99.0720   ZZZZ    -578.0414
 -----------------------------------------------------------------
 Calculating analytic gradient of the SCF energy
 Gradient of CDS energy
            1           2           3           4           5           6
    1   0.0019415  -0.0000009   0.0031247  -0.0002380  -0.0001488   0.0000511
    2  -0.0013290   0.0000920  -0.0037249  -0.0001858   0.0000785   0.0000634
    3  -0.0012924   0.0001830  -0.0030695  -0.0001469  -0.0002016   0.0001575
            7           8           9          10          11          12
    1   0.0000672  -0.0000564   0.0000695  -0.0001435  -0.0000988  -0.0000510
    2   0.0009982   0.0001997  -0.0000216  -0.0000437  -0.0001809   0.0000819
    3  -0.0003464   0.0001106   0.0002078   0.0001636  -0.0000679  -0.0001256
           13          14          15          16          17          18
    1  -0.0002347  -0.0001587   0.0001374   0.0001698  -0.0019337   0.0004214
    2  -0.0002505  -0.0002252  -0.0001186   0.0000453   0.0011886  -0.0000494
    3  -0.0000647   0.0002726   0.0002821  -0.0004977   0.0013826  -0.0001739
           19          20          21
    1  -0.0000039   0.0000601  -0.0029745
    2   0.0000724  -0.0000851   0.0033948
    3  -0.0000798   0.0000852   0.0032216
 Gradient of SCF Energy
            1           2           3           4           5           6
    1   0.0083700  -0.0091673   0.0091044   0.0053670   0.0050971  -0.0026433
    2  -0.0078222   0.0062055  -0.0025899   0.0000304   0.0020000   0.0031483
    3  -0.0084743  -0.0048903   0.0009662   0.0071156   0.0072722   0.0036189
            7           8           9          10          11          12
    1   0.0119323   0.0038350   0.0035690  -0.0050305  -0.0087072  -0.0071652
    2  -0.0196138   0.0081167  -0.0019227  -0.0031343  -0.0055238   0.0046705
    3  -0.0003219   0.0043460   0.0078371   0.0054164  -0.0048944  -0.0191320
           13          14          15          16          17          18
    1  -0.0127355   0.0135325   0.0031144  -0.0129642  -0.0010876  -0.0003317
    2   0.0053229   0.0206739   0.0088277  -0.0158154  -0.0173679   0.0122786
    3  -0.0099295   0.0206141   0.0073497  -0.0183541   0.0088187  -0.0098691
           19          20          21
    1  -0.0030084  -0.0047238   0.0036429
    2   0.0014034   0.0042914  -0.0031792
    3   0.0065860  -0.0000458  -0.0040297
 Max gradient component =       2.067E-02
 RMS gradient           =       8.869E-03
 Computing fast CPCM-SWIG gradient
 Updating gradient with PCM contributions...
 -- total gradient after adding PCM contribution --
---------------------------------------------------
  Atom         X              Y              Z     
---------------------------------------------------
   1       0.003690      -0.001343      -0.003765
   2      -0.000225       0.000048      -0.001371
   3       0.002233      -0.000661       0.000262
   4       0.000343      -0.001286       0.001339
   5       0.002052       0.001639      -0.001269
   6      -0.000524      -0.000087       0.000701
   7       0.001279      -0.002645      -0.002241
   8       0.000992       0.002783       0.001929
   9       0.001354      -0.000553       0.002745
  10      -0.002389      -0.001504       0.002358
  11      -0.002221      -0.002347      -0.001478
  12      -0.001314       0.000508      -0.002895
  13      -0.002681       0.001547      -0.001500
  14       0.006012       0.003725       0.006021
  15       0.001152       0.002294       0.001777
  16      -0.004123      -0.004054      -0.004548
  17      -0.001651      -0.007276       0.004799
  18      -0.000283       0.006216      -0.004630
  19      -0.001214      -0.000961       0.004774
  20      -0.002934       0.003768      -0.001749
  21       0.000455       0.000189      -0.001258
---------------------------------------------------
 Number of fixed atoms: 0
 Gradient time:  CPU 678.33 s  wall 33.19 s
 ----------------------------------------------------------------
             Standard Nuclear Orientation (Angstroms)
    I     Atom           X                Y                Z
 ----------------------------------------------------------------
    1      C       0.0137868000    -0.2201470000     0.7491220000
    2      C      -0.8339675000    -1.0277593000     1.7313942000
    3      C      -1.5773662000    -2.2112444000     1.1099962000
    4      C      -2.1666233000    -1.9164666000    -0.2267948000
    5      C      -1.8377068000    -0.7392019000    -0.8682438000
    6      C      -1.1368627000     0.3465842000    -0.0870781000
    7      C      -0.7155843000     1.5496840000    -0.9231352000
    8      H       0.4733530000     0.6098822000     1.3045962000
    9      H      -0.3030758000    -1.3060163000     2.6447065000
   10      H      -2.2318067000    -2.7158512000     1.8276012000
   11      H      -2.8731224000    -2.6210622000    -0.6459793000
   12      H      -2.2334629000    -0.5172063000    -1.8563083000
   13      H      -1.5560006000     1.9374977000    -1.5089036000
   14      O       0.3763963000     1.1830084000    -1.7654066000
   15      H      -0.3548961000     2.3335902000    -0.2534262000
   16      H       0.0197799000     0.6633426000    -2.5054954000
   17      O       0.9759996000    -0.9388306000     0.0161507000
   18      H       1.2252805000    -0.3325842000    -0.7091200000
   19      O      -1.8056726000    -0.0486043000     2.1239195000
   20      O      -2.0370977000     0.8099405000     0.9382599000
   21      O      -0.8235334000    -3.0468269000     0.2901215000
 ----------------------------------------------------------------
 Nuclear Repulsion Energy =         798.21462846 hartrees
 There are       46 alpha and       45 beta electrons
 Discretize the solute cavity surface with Lebedev spheres
	Using 110 Lebedev grid points for each H atom
	Using 194 Lebedev grid points for other atoms
	Atomic van der Waals radii will be scaled by 1.20
 Remove points where switching function is < 1.0e-08
 Keep 1503 surface tesserae and discard 1815 interior tesserae
 Molecular Surface Area = 167.050 Angst**2
 Requested basis set is 6-311++G(2df,2p)
 There are 150 shells and 498 basis functions
 A cutoff of  1.0D-11 yielded  10030 shell pairs
 There are    111797 function pairs (    140085 Cartesian)
 Smallest overlap matrix eigenvalue = 2.32E-06

 Q-Chem warning in module stvman/mkSTV.C, line 323:

 Overlap eigenvalue is smaller than square root of threshold
 Use THRESH >= 12 to get rid of this warning

 Guess MOs from SCF MO coefficient file

 -----------------------------------------------------------------------
  General SCF calculation program by
  Eric Jon Sundstrom, Paul Horn, Yuezhi Mao, Dmitri Zuev, Alec White,
  David Stuck, Shaama M.S., Shane Yost, Joonho Lee, David Small,
  Daniel Levine, Susi Lehtola, Hugh Burton, Evgeny Epifanovsky,
  Bang C. Huynh
 -----------------------------------------------------------------------
 Exchange:     0.1500 Hartree-Fock + 1.0000 wB97M-V + LR-HF
 Correlation:  1.0000 wB97M-V
 Using SG-2 standard quadrature grid
 Nonlocal Correlation:  VV10 with C = 0.0100 and b = 6.00 and scale = 1.00000
 Grid used for NLC:  SG-1 standard quadrature
 
 Citation of the SMD model:
 Marenich, A.V.; Cramer, C.J.; Truhlar, D.G.
 J. Phys. Chem. B 2009, 113, 6378-6396.
 iSolventCode=           1
 Solvent: water                                                           
 
 vradii
            1           2           3           4           5           6
    1   1.8500000   1.8500000   1.8500000   1.8500000   1.8500000   1.8500000
            7           8           9          10          11          12
    1   1.8500000   1.2000000   1.2000000   1.2000000   1.2000000   1.2000000
           13          14          15          16          17          18
    1   1.2000000   1.5200000   1.2000000   1.2000000   1.5200000   1.2000000
           19          20          21
    1   1.5200000   1.5200000   1.5200000
 -------------------------------------------------------
 OpenMP BLAS3 based DFT computing Module                
 Release: version 1.0, May 2013, Q-Chem Inc. Pittsburgh 
 -------------------------------------------------------
 A unrestricted SCF calculation will be
 performed using Roothaan-Hall, DIIS, GDM
 SCF converges when RMS gradient is below 1.0e-06
 ---------------------------------------
  Cycle       Energy         DIIS error
 ---------------------------------------
    1    -648.0490988197      2.06e-04  Roothaan Step
 ---------------------------------------
  Cycle       Energy         DIIS error
 ---------------------------------------
    1    -648.0858922971      2.52e-04  
    2    -648.0912395743      2.66e-04  Done DIIS. Switching to GDM
 ---------------------------------------
  Cycle       Energy        RMS Gradient
 ---------------------------------------
    1    -648.0912395743      1.97e-02   Normal BFGS step
    2    -648.0886895152      3.17e-02  Line search: overstep
    3    -648.0971877778      3.49e-03   Normal BFGS step
    4    -648.0974289814      1.69e-03   Normal BFGS step
    5    -648.0974936865      1.11e-03   Normal BFGS step
    6    -648.0975040476      7.14e-04   Normal BFGS step
    7    -648.0975073631      5.25e-04   Normal BFGS step
    8    -648.0975091072      2.05e-04   Normal BFGS step
    9    -648.0975095419      1.18e-04   Normal BFGS step
   10    -648.0975096791      7.26e-05   Normal BFGS step
   11    -648.0975097417      3.46e-05   Normal BFGS step
   12    -648.0975097520      1.24e-05   Normal BFGS step
   13    -648.0975097550      5.86e-06   Normal BFGS step
   14    -648.0975097552      4.59e-06   Normal BFGS step
   15    -648.0975097551      2.72e-06   Normal BFGS step
   16    -648.0975097552      2.00e-06   Normal BFGS step
   17    -648.0975097552      1.01e-06   Normal BFGS step
  GDM::WARNING energy changes are now smaller than effective accuracy.
  GDM::        calculation will continue, but THRESH should be increased
  GDM::        or SCF_CONVERGENCE decreased. 
  GDM::        effective_thresh = 4.12e-09
   18    -648.0975097568      4.39e-07  Convergence criterion met
 ---------------------------------------
 SCF time:   CPU 4691.81s  wall 194.00s 
<S^2> =          0.787349463
(3)  G-ENP(liq) elect-nuc-pol free energy of system     -648.097509757 a.u.
(4)  G-CDS(liq) cavity-dispersion-solvent structure 
     free energy                                                2.7819 kcal/mol
(6)  G-S(liq) free energy of system                     -648.093076549 a.u.
 SCF   energy in the final basis set =     -648.0930765494
 Total energy in the final basis set =     -648.0930765494
 
 --------------------------------------------------------------
 
                    Orbital Energies (a.u.)
 --------------------------------------------------------------
 
 Alpha MOs
 -- Occupied --
-19.4101 -19.4095 -19.3581 -19.3534 -19.3442 -10.4221 -10.4118 -10.4116
-10.4090 -10.3990 -10.3961 -10.3814  -1.2728  -1.1780  -1.1676  -1.1586
 -1.0786  -0.9604  -0.8909  -0.8485  -0.8045  -0.7591  -0.7211  -0.6924
 -0.6636  -0.6425  -0.6123  -0.6048  -0.5888  -0.5840  -0.5652  -0.5512
 -0.5336  -0.5287  -0.5199  -0.4986  -0.4938  -0.4797  -0.4573  -0.4490
 -0.4274  -0.4214  -0.3933  -0.3799  -0.3658  -0.3387
 -- Virtual --
  0.0248   0.0344   0.0363   0.0447   0.0500   0.0548   0.0567   0.0741
  0.0794   0.0836   0.0852   0.0899   0.1077   0.1190   0.1245   0.1275
  0.1334   0.1382   0.1415   0.1474   0.1539   0.1544   0.1608   0.1664
  0.1702   0.1722   0.1748   0.1791   0.1904   0.1972   0.2010   0.2053
  0.2103   0.2160   0.2184   0.2258   0.2296   0.2410   0.2449   0.2575
  0.2709   0.2714   0.2788   0.2887   0.2957   0.3004   0.3071   0.3142
  0.3202   0.3232   0.3334   0.3385   0.3432   0.3480   0.3517   0.3547
  0.3645   0.3706   0.3732   0.3767   0.3820   0.3862   0.3898   0.3947
  0.3980   0.4084   0.4183   0.4232   0.4261   0.4325   0.4431   0.4458
  0.4484   0.4654   0.4682   0.4774   0.4839   0.5140   0.5229   0.5290
  0.5466   0.5634   0.5934   0.5984   0.6112   0.6165   0.6187   0.6291
  0.6521   0.6538   0.6608   0.6708   0.6753   0.6815   0.6872   0.6917
  0.7044   0.7117   0.7192   0.7223   0.7328   0.7425   0.7501   0.7589
  0.7685   0.7731   0.7866   0.8032   0.8238   0.8355   0.8527   0.8609
  0.8795   0.8858   0.9010   0.9260   0.9475   0.9510   0.9671   0.9909
  1.0099   1.0383   1.0454   1.0603   1.0688   1.0794   1.0879   1.1016
  1.1135   1.1182   1.1269   1.1341   1.1495   1.1706   1.1731   1.1760
  1.1921   1.2017   1.2178   1.2282   1.2306   1.2393   1.2526   1.2637
  1.2745   1.2811   1.2913   1.2985   1.3077   1.3132   1.3153   1.3207
  1.3260   1.3401   1.3520   1.3624   1.3651   1.3728   1.3855   1.3911
  1.4006   1.4075   1.4253   1.4355   1.4511   1.4624   1.4712   1.4805
  1.4920   1.5034   1.5151   1.5296   1.5381   1.5462   1.5715   1.5782
  1.5844   1.6005   1.6251   1.6356   1.6510   1.6588   1.6629   1.6757
  1.6937   1.7145   1.7257   1.7678   1.7784   1.7994   1.8028   1.8272
  1.8675   1.8745   1.8807   1.9062   1.9220   1.9495   1.9716   1.9958
  2.0116   2.0382   2.0609   2.0676   2.1023   2.1283   2.1506   2.1698
  2.1771   2.1971   2.2221   2.2637   2.2760   2.3120   2.3287   2.3764
  2.3915   2.4129   2.4306   2.4547   2.4756   2.5134   2.5635   2.6560
  2.6821   2.6943   2.7126   2.7438   2.7633   2.7841   2.7983   2.8074
  2.8219   2.8373   2.8647   2.8815   2.8938   2.9059   2.9214   2.9484
  2.9660   2.9735   2.9896   3.0033   3.0111   3.0254   3.0628   3.0763
  3.1006   3.1069   3.1272   3.1697   3.1822   3.2012   3.2195   3.2304
  3.2417   3.2593   3.2971   3.3091   3.3160   3.3334   3.3508   3.3562
  3.3713   3.3940   3.4066   3.4442   3.4507   3.4703   3.4771   3.4846
  3.5177   3.5258   3.5593   3.5631   3.5656   3.5847   3.5935   3.6211
  3.6310   3.6325   3.6418   3.6689   3.6896   3.6947   3.7179   3.7320
  3.7487   3.7631   3.7685   3.7821   3.7952   3.8024   3.8217   3.8490
  3.8598   3.8751   3.8862   3.8975   3.9110   3.9226   3.9416   3.9501
  3.9616   3.9701   3.9982   4.0055   4.0157   4.0436   4.0681   4.0757
  4.0929   4.1060   4.1225   4.1499   4.1906   4.2018   4.2280   4.2540
  4.2637   4.2840   4.2925   4.2999   4.3112   4.3408   4.3492   4.3600
  4.3780   4.3975   4.4158   4.4338   4.4368   4.4722   4.4774   4.4930
  4.5002   4.5285   4.5409   4.5701   4.5731   4.5993   4.6209   4.6347
  4.6524   4.6694   4.7032   4.7234   4.7393   4.7539   4.7673   4.8071
  4.8749   4.9533   4.9676   5.0729   5.0815   5.1299   5.1999   5.2312
  5.2560   5.2668   5.2868   5.2922   5.3000   5.3099   5.3162   5.3330
  5.3459   5.3589   5.3765   5.3867   5.3974   5.4244   5.4323   5.4453
  5.4502   5.4941   5.4954   5.5024   5.5106   5.5472   5.5726   5.5956
  5.5987   5.6058   5.6222   5.6475   5.6901   5.6918   5.7227   5.7463
  5.7631   5.7670   5.7830   5.7970   5.8663   5.8772   5.9395   5.9558
  5.9879   6.0207   6.0244   6.0598   6.0690   6.0753   6.2281   6.6023
  6.6258   6.6601   6.6782   6.7265   6.7867   7.0348   7.0465   7.0934
  7.1050   7.1503   7.2491   7.2893   7.3179   7.3582   7.3884   7.4083
  7.4169   7.4369   7.4551   7.4899   7.4948   7.5339   7.5671   7.6347
  7.6541   7.6957   7.7490   7.7932   7.8611   7.9004   7.9589   8.2617
 24.4199  24.6839  24.7574  24.7945  24.8241  24.9026  25.0609  50.5932
 50.6223  50.6534  50.6939  50.6958
 
 Beta MOs
 -- Occupied --
-19.4096 -19.4088 -19.3533 -19.3442 -19.3440 -10.4226 -10.4118 -10.4115
-10.4084 -10.3990 -10.3974 -10.3731  -1.2715  -1.1769  -1.1620  -1.1404
 -1.0768  -0.9518  -0.8841  -0.8449  -0.7993  -0.7542  -0.7166  -0.6902
 -0.6611  -0.6377  -0.6102  -0.5997  -0.5845  -0.5769  -0.5620  -0.5435
 -0.5309  -0.5257  -0.5127  -0.4972  -0.4814  -0.4705  -0.4534  -0.4411
 -0.4197  -0.3998  -0.3875  -0.3742  -0.3584
 -- Virtual --
 -0.0533   0.0250   0.0342   0.0364   0.0460   0.0529   0.0549   0.0571
  0.0773   0.0812   0.0854   0.0878   0.0936   0.1136   0.1183   0.1247
  0.1278   0.1333   0.1401   0.1426   0.1476   0.1546   0.1558   0.1611
  0.1667   0.1706   0.1729   0.1763   0.1807   0.1909   0.1970   0.2018
  0.2069   0.2108   0.2159   0.2193   0.2281   0.2298   0.2417   0.2462
  0.2584   0.2713   0.2730   0.2788   0.2897   0.2966   0.3019   0.3074
  0.3152   0.3208   0.3240   0.3339   0.3392   0.3442   0.3484   0.3531
  0.3562   0.3652   0.3731   0.3751   0.3777   0.3829   0.3866   0.3914
  0.3948   0.3986   0.4098   0.4187   0.4249   0.4265   0.4327   0.4443
  0.4478   0.4501   0.4676   0.4699   0.4793   0.4844   0.5151   0.5236
  0.5308   0.5479   0.5643   0.5970   0.6020   0.6130   0.6180   0.6213
  0.6309   0.6523   0.6546   0.6621   0.6716   0.6762   0.6822   0.6887
  0.6927   0.7061   0.7123   0.7200   0.7252   0.7345   0.7441   0.7508
  0.7622   0.7710   0.7757   0.7870   0.8082   0.8259   0.8368   0.8557
  0.8619   0.8807   0.8889   0.9047   0.9265   0.9484   0.9529   0.9682
  0.9917   1.0112   1.0406   1.0468   1.0611   1.0694   1.0804   1.0902
  1.1042   1.1150   1.1197   1.1293   1.1356   1.1503   1.1714   1.1744
  1.1783   1.1944   1.2038   1.2189   1.2298   1.2333   1.2428   1.2570
  1.2645   1.2784   1.2825   1.2943   1.3021   1.3101   1.3149   1.3191
  1.3223   1.3273   1.3413   1.3537   1.3641   1.3677   1.3754   1.3893
  1.3938   1.4033   1.4107   1.4272   1.4388   1.4547   1.4633   1.4725
  1.4822   1.4958   1.5044   1.5175   1.5305   1.5407   1.5486   1.5736
  1.5799   1.5868   1.6039   1.6272   1.6377   1.6548   1.6611   1.6661
  1.6783   1.6958   1.7170   1.7281   1.7699   1.7816   1.8027   1.8066
  1.8326   1.8708   1.8778   1.8847   1.9112   1.9284   1.9561   1.9734
  2.0004   2.0148   2.0398   2.0631   2.0789   2.1050   2.1324   2.1524
  2.1735   2.1839   2.1984   2.2266   2.2662   2.2780   2.3151   2.3297
  2.3778   2.3945   2.4163   2.4324   2.4592   2.4765   2.5152   2.5661
  2.6619   2.6841   2.6977   2.7151   2.7463   2.7676   2.7854   2.8024
  2.8100   2.8317   2.8432   2.8676   2.8853   2.8927   2.9109   2.9360
  2.9589   2.9742   2.9863   2.9951   3.0084   3.0249   3.0354   3.0678
  3.0793   3.1050   3.1107   3.1304   3.1756   3.1852   3.2049   3.2221
  3.2371   3.2449   3.2627   3.3029   3.3165   3.3197   3.3354   3.3552
  3.3635   3.3768   3.3969   3.4135   3.4464   3.4549   3.4750   3.4817
  3.4903   3.5213   3.5301   3.5614   3.5641   3.5761   3.5871   3.6015
  3.6288   3.6333   3.6348   3.6508   3.6729   3.6962   3.7043   3.7220
  3.7366   3.7511   3.7673   3.7778   3.7878   3.8003   3.8060   3.8252
  3.8529   3.8631   3.8786   3.8900   3.8995   3.9146   3.9250   3.9462
  3.9517   3.9656   3.9720   4.0007   4.0098   4.0195   4.0469   4.0734
  4.0804   4.0962   4.1120   4.1262   4.1525   4.1945   4.2038   4.2306
  4.2564   4.2685   4.2912   4.2962   4.3028   4.3141   4.3440   4.3516
  4.3627   4.3802   4.4003   4.4189   4.4367   4.4415   4.4764   4.4799
  4.4948   4.5035   4.5369   4.5485   4.5752   4.5813   4.6059   4.6248
  4.6398   4.6625   4.6728   4.7052   4.7256   4.7417   4.7579   4.7768
  4.8125   4.8773   4.9613   4.9718   5.0811   5.0901   5.1377   5.2077
  5.2472   5.2651   5.2702   5.2936   5.3035   5.3065   5.3228   5.3280
  5.3394   5.3596   5.3735   5.3822   5.3993   5.4030   5.4283   5.4445
  5.4529   5.4571   5.5011   5.5067   5.5130   5.5162   5.5500   5.5749
  5.6014   5.6051   5.6179   5.6250   5.6494   5.6909   5.7141   5.7245
  5.7522   5.7638   5.7699   5.7894   5.8001   5.8692   5.8833   5.9475
  5.9625   5.9957   6.0221   6.0440   6.0646   6.0777   6.0783   6.2293
  6.6037   6.6274   6.6627   6.6812   6.7312   6.7923   7.0371   7.0991
  7.1099   7.1411   7.1580   7.2497   7.2902   7.3189   7.3592   7.3893
  7.4137   7.4228   7.4388   7.4563   7.4929   7.5042   7.5378   7.6243
  7.6389   7.6549   7.7007   7.7767   7.7936   7.8631   7.9016   7.9608
  8.2626  24.4227  24.6840  24.7575  24.7948  24.8242  24.9028  25.0651
 50.5934  50.6225  50.6591  50.6963  50.6985
 --------------------------------------------------------------
 
          Ground-State Mulliken Net Atomic Charges

     Atom                 Charge (a.u.)    Spin (a.u.)
  --------------------------------------------------------
      1 C                    -0.112279       0.022098
      2 C                    -0.123680      -0.035804
      3 C                    -0.367869       0.106726
      4 C                    -0.213684      -0.153237
      5 C                    -0.338560       0.611257
      6 C                     0.179249      -0.063933
      7 C                    -0.337664       0.007034
      8 H                     0.328016      -0.001950
      9 H                     0.274681       0.000507
     10 H                     0.263940       0.002294
     11 H                     0.327009       0.004432
     12 H                     0.332081      -0.009537
     13 H                     0.250336      -0.000176
     14 O                    -0.370115       0.000751
     15 H                     0.239522      -0.000533
     16 H                     0.328970       0.000440
     17 O                    -0.416700       0.002078
     18 H                     0.337038       0.002630
     19 O                    -0.107214      -0.001048
     20 O                    -0.126282       0.026696
     21 O                    -0.346797       0.479274
  --------------------------------------------------------
  Sum of atomic charges =    -0.000000
  Sum of spin   charges =     1.000000

 -----------------------------------------------------------------
                    Cartesian Multipole Moments
 -----------------------------------------------------------------
    Charge (ESU x 10^10)
                -0.0000
    Dipole Moment (Debye)
         X      -2.1031      Y       2.6189      Z      -3.0974
       Tot       4.5690
    Quadrupole Moments (Debye-Ang)
        XX     -70.6093     XY       6.7762     YY     -81.5614
        XZ       9.8459     YZ      -4.5589     ZZ     -60.7473
    Octopole Moments (Debye-Ang^2)
       XXX     196.2073    XXY      14.1058    XYY      51.4795
       YYY     150.8367    XXZ     -37.7756    XYZ      12.5565
       YYZ      -5.7278    XZZ      64.3026    YZZ      17.7675
       ZZZ     -64.7398
    Hexadecapole Moments (Debye-Ang^3)
      XXXX    -876.8510   XXXY     -95.2874   XXYY    -269.1507
      XYYY    -151.0603   YYYY   -1146.9297   XXXZ     154.7411
      XXYZ      37.5991   XYYZ      38.5670   YYYZ     119.9923
      XXZZ    -257.1907   XYZZ     -42.3104   YYZZ    -256.0327
      XZZZ     147.6264   YZZZ      99.0249   ZZZZ    -577.9336
 -----------------------------------------------------------------
 Calculating analytic gradient of the SCF energy
 Gradient of CDS energy
            1           2           3           4           5           6
    1   0.0017361   0.0000002   0.0031247  -0.0002380  -0.0001486   0.0000518
    2  -0.0011813   0.0000924  -0.0037249  -0.0001858   0.0000784   0.0000631
    3  -0.0011404   0.0001822  -0.0030695  -0.0001469  -0.0002017   0.0001580
            7           8           9          10          11          12
    1   0.0000674  -0.0000514   0.0000695  -0.0001434  -0.0000988  -0.0000510
    2   0.0009982   0.0001998  -0.0000217  -0.0000437  -0.0001809   0.0000819
    3  -0.0003464   0.0001102   0.0002079   0.0001636  -0.0000679  -0.0001256
           13          14          15          16          17          18
    1  -0.0002347  -0.0001587   0.0001374   0.0001698  -0.0017372   0.0004225
    2  -0.0002505  -0.0002252  -0.0001186   0.0000453   0.0010411  -0.0000498
    3  -0.0000647   0.0002725   0.0002821  -0.0004977   0.0012315  -0.0001740
           19          20          21
    1  -0.0000039   0.0000601  -0.0029739
    2   0.0000723  -0.0000851   0.0033950
    3  -0.0000797   0.0000852   0.0032214
 Gradient of SCF Energy
            1           2           3           4           5           6
    1   0.0061797  -0.0088395   0.0091514   0.0053647   0.0051489  -0.0022473
    2  -0.0078366   0.0063811  -0.0025439   0.0000256   0.0020211   0.0031113
    3  -0.0082428  -0.0049950   0.0009321   0.0071201   0.0073384   0.0038030
            7           8           9          10          11          12
    1   0.0118889   0.0042226   0.0035210  -0.0050349  -0.0087124  -0.0071656
    2  -0.0196205   0.0084300  -0.0019449  -0.0031356  -0.0055286   0.0046722
    3  -0.0003120   0.0045540   0.0078868   0.0054250  -0.0048961  -0.0191402
           13          14          15          16          17          18
    1  -0.0127380   0.0135505   0.0031120  -0.0129674  -0.0003456  -0.0002802
    2   0.0053415   0.0206490   0.0088332  -0.0158097  -0.0176988   0.0122353
    3  -0.0099491   0.0206197   0.0073493  -0.0183537   0.0083800  -0.0099087
           19          20          21
    1  -0.0028702  -0.0045858   0.0036473
    2   0.0013637   0.0042386  -0.0031840
    3   0.0065257  -0.0001035  -0.0040333
 Max gradient component =       2.065E-02
 RMS gradient           =       8.845E-03
 Computing fast CPCM-SWIG gradient
 Updating gradient with PCM contributions...
 -- total gradient after adding PCM contribution --
---------------------------------------------------
  Atom         X              Y              Z     
---------------------------------------------------
   1       0.001450      -0.001340      -0.003534
   2       0.000127       0.000209      -0.001469
   3       0.002271      -0.000616       0.000232
   4       0.000338      -0.001288       0.001338
   5       0.002110       0.001647      -0.001214
   6      -0.000105      -0.000134       0.000892
   7       0.001226      -0.002644      -0.002230
   8       0.001379       0.003108       0.002143
   9       0.001307      -0.000572       0.002785
  10      -0.002388      -0.001502       0.002360
  11      -0.002222      -0.002348      -0.001477
  12      -0.001311       0.000509      -0.002899
  13      -0.002676       0.001560      -0.001513
  14       0.006022       0.003711       0.006025
  15       0.001151       0.002297       0.001775
  16      -0.004123      -0.004055      -0.004548
  17      -0.000922      -0.007615       0.004376
  18      -0.000221       0.006177      -0.004685
  19      -0.001075      -0.001005       0.004716
  20      -0.002799       0.003718      -0.001810
  21       0.000460       0.000183      -0.001262
---------------------------------------------------
 Number of fixed atoms: 0
 Gradient time:  CPU 681.10 s  wall 33.81 s
 ----------------------------------------------------------------
             Standard Nuclear Orientation (Angstroms)
    I     Atom           X                Y                Z
 ----------------------------------------------------------------
    1      C       0.0147868000    -0.2191470000     0.7491220000
    2      C      -0.8339675000    -1.0277593000     1.7313942000
    3      C      -1.5773662000    -2.2112444000     1.1099962000
    4      C      -2.1666233000    -1.9164666000    -0.2267948000
    5      C      -1.8377068000    -0.7392019000    -0.8682438000
    6      C      -1.1368627000     0.3465842000    -0.0870781000
    7      C      -0.7155843000     1.5496840000    -0.9231352000
    8      H       0.4733530000     0.6098822000     1.3045962000
    9      H      -0.3030758000    -1.3060163000     2.6447065000
   10      H      -2.2318067000    -2.7158512000     1.8276012000
   11      H      -2.8731224000    -2.6210622000    -0.6459793000
   12      H      -2.2334629000    -0.5172063000    -1.8563083000
   13      H      -1.5560006000     1.9374977000    -1.5089036000
   14      O       0.3763963000     1.1830084000    -1.7654066000
   15      H      -0.3548961000     2.3335902000    -0.2534262000
   16      H       0.0197799000     0.6633426000    -2.5054954000
   17      O       0.9759996000    -0.9388306000     0.0161507000
   18      H       1.2252805000    -0.3325842000    -0.7091200000
   19      O      -1.8056726000    -0.0486043000     2.1239195000
   20      O      -2.0370977000     0.8099405000     0.9382599000
   21      O      -0.8235334000    -3.0468269000     0.2901215000
 ----------------------------------------------------------------
 Nuclear Repulsion Energy =         798.19186268 hartrees
 There are       46 alpha and       45 beta electrons
 Discretize the solute cavity surface with Lebedev spheres
	Using 110 Lebedev grid points for each H atom
	Using 194 Lebedev grid points for other atoms
	Atomic van der Waals radii will be scaled by 1.20
 Remove points where switching function is < 1.0e-08
 Keep 1503 surface tesserae and discard 1815 interior tesserae
 Molecular Surface Area = 167.050 Angst**2
 Requested basis set is 6-311++G(2df,2p)
 There are 150 shells and 498 basis functions
 A cutoff of  1.0D-11 yielded  10030 shell pairs
 There are    111797 function pairs (    140085 Cartesian)
 Smallest overlap matrix eigenvalue = 2.32E-06

 Q-Chem warning in module stvman/mkSTV.C, line 323:

 Overlap eigenvalue is smaller than square root of threshold
 Use THRESH >= 12 to get rid of this warning

 Guess MOs from SCF MO coefficient file

 -----------------------------------------------------------------------
  General SCF calculation program by
  Eric Jon Sundstrom, Paul Horn, Yuezhi Mao, Dmitri Zuev, Alec White,
  David Stuck, Shaama M.S., Shane Yost, Joonho Lee, David Small,
  Daniel Levine, Susi Lehtola, Hugh Burton, Evgeny Epifanovsky,
  Bang C. Huynh
 -----------------------------------------------------------------------
 Exchange:     0.1500 Hartree-Fock + 1.0000 wB97M-V + LR-HF
 Correlation:  1.0000 wB97M-V
 Using SG-2 standard quadrature grid
 Nonlocal Correlation:  VV10 with C = 0.0100 and b = 6.00 and scale = 1.00000
 Grid used for NLC:  SG-1 standard quadrature
 
 Citation of the SMD model:
 Marenich, A.V.; Cramer, C.J.; Truhlar, D.G.
 J. Phys. Chem. B 2009, 113, 6378-6396.
 iSolventCode=           1
 Solvent: water                                                           
 
 vradii
            1           2           3           4           5           6
    1   1.8500000   1.8500000   1.8500000   1.8500000   1.8500000   1.8500000
            7           8           9          10          11          12
    1   1.8500000   1.2000000   1.2000000   1.2000000   1.2000000   1.2000000
           13          14          15          16          17          18
    1   1.2000000   1.5200000   1.2000000   1.2000000   1.5200000   1.2000000
           19          20          21
    1   1.5200000   1.5200000   1.5200000
 -------------------------------------------------------
 OpenMP BLAS3 based DFT computing Module                
 Release: version 1.0, May 2013, Q-Chem Inc. Pittsburgh 
 -------------------------------------------------------
[...]
    3  -0.0078300   0.0145347   0.0055434  -0.0139963   0.0040990  -0.0046878
           19          20          21
    1  -0.0018361  -0.0017617   0.0032774
    2   0.0023816   0.0006030  -0.0033427
    3   0.0018633   0.0015027  -0.0029195
 Max gradient component =       1.600E-02
 RMS gradient           =       6.428E-03
 Computing fast CPCM-SWIG gradient
 Updating gradient with PCM contributions...
 -- total gradient after adding PCM contribution --
---------------------------------------------------
  Atom         X              Y              Z     
---------------------------------------------------
   1      -0.000009       0.000002       0.000011
   2      -0.000013      -0.000004       0.000001
   3      -0.000006      -0.000004      -0.000011
   4       0.000007      -0.000004      -0.000015
   5       0.000011       0.000000      -0.000009
   6       0.000002      -0.000003      -0.000002
   7       0.000002       0.000005       0.000007
   8      -0.000016       0.000002       0.000014
   9      -0.000022      -0.000005       0.000003
  10      -0.000010      -0.000007      -0.000019
  11       0.000013      -0.000003      -0.000023
  12       0.000021       0.000000      -0.000013
  13       0.000008       0.000002       0.000002
  14       0.000008       0.000009       0.000011
  15      -0.000003       0.000002       0.000011
  16       0.000024       0.000011       0.000011
  17       0.000008       0.000012       0.000020
  18       0.000003       0.000000       0.000022
  19      -0.000020      -0.000004      -0.000008
  20      -0.000014      -0.000009      -0.000007
  21       0.000005      -0.000001      -0.000006
---------------------------------------------------
 Number of fixed atoms: 0
 Gradient time:  CPU 788.42 s  wall 36.65 s
 Geometry Optimization Parameters
   NAtoms,    NIC,     NZ,  NCons,   NDum,   NFix, NCnnct, MaxDiis
       21     182       0       0       0       0       0       0

 Cartesian Hessian Update
 Hessian updated using Powell/Murtagh-Sargent update
  Mixing factors:     0.989332 Powell                      0.010668 Murtagh-Sargent


** GEOMETRY OPTIMIZATION IN DELOCALIZED INTERNAL COORDINATES **
   Searching for a Transition State

   Optimization Cycle:   6

                       Coordinates (Angstroms)
     ATOM                X               Y               Z
      1  C         0.0168775734   -0.2231531313    0.7556433661
      2  C        -0.8380829887   -1.0278023842    1.7300135275
      3  C        -1.5857160241   -2.2037859763    1.1088387015
      4  C        -2.1644613030   -1.9145343787   -0.2271473562
      5  C        -1.8270645154   -0.7440471899   -0.8698337464
      6  C        -1.1240388962    0.3375925168   -0.0935067763
      7  C        -0.7223888193    1.5455124813   -0.9245674129
      8  H         0.4648556378    0.6054771869    1.3097981444
      9  H        -0.3132145792   -1.3089664354    2.6401364289
     10  H        -2.2377920477   -2.7035615070    1.8231329887
     11  H        -2.8768975164   -2.6089175855   -0.6401746529
     12  H        -2.2122237860   -0.5237093643   -1.8572462251
     13  H        -1.5788185645    1.9393532858   -1.4726267938
     14  O         0.3340744096    1.1900272212   -1.8101920600
     15  H        -0.3399549650    2.3158873937   -0.2588302000
     16  H        -0.0363840608    0.7149602824   -2.5625242328
     17  O         0.9956466999   -0.9471610338    0.0530123903
     18  H         1.3109292072   -0.3621561355   -0.6500584594
     19  O        -1.8046875271   -0.0448456206    2.1117902717
     20  O        -2.0259045229    0.8014999312    0.9292443663
     21  O        -0.8359363117   -3.0459409570    0.2910743304
   Point Group: c1    Number of degrees of freedom:    57


   Energy is   -648.093744070

 Hessian updated using Powell/Murtagh-Sargent update
  Mixing factors:     0.934907 Powell                      0.065093 Murtagh-Sargent

 57 Hessian modes will be used to form the next step
  Hessian Eigenvalues:
    -0.033035    0.003911    0.005607    0.006545    0.007074    0.008387
     0.012092    0.016082    0.019399    0.022273    0.032276    0.034694
     0.040477    0.046168    0.048616    0.053397    0.054449    0.059688
     0.062940    0.066924    0.068874    0.071500    0.076852    0.089113
     0.092446    0.097742    0.102732    0.106802    0.115621    0.135774
     0.154924    0.164092    0.183580    0.194778    0.202908    0.208106
     0.224548    0.234847    0.239300    0.253436    0.266104    0.277836
     0.295195    0.318061    0.318984    0.325034    0.330935    0.333885
     0.340492    0.342457    0.350462    0.361570    0.391562    0.401157
     0.464617    0.496875    0.508177

 Transition state search - taking P-RFO step
 Searching for Lamda that Maximizes Along the Lowest mode
 Value Taken    Lamda =   0.00000000
 Searching for Lamda that Minimizes Along All other modes
 Value Taken    Lamda =  -0.00000002
 Step Taken.  Stepsize is  0.001635

                             Maximum     Tolerance    Cnvgd?
         Gradient           0.000016      0.000300     YES
         Displacement       0.000627      0.001200     YES
         Energy change     -0.000000      0.000001     YES

 Final energy is   -648.093744070139     


 ******************************
 **  OPTIMIZATION CONVERGED  **
 ******************************

                       Coordinates (Angstroms)
     ATOM                X               Y               Z
      1  C         0.0168775734   -0.2231531313    0.7556433661
      2  C        -0.8380829887   -1.0278023842    1.7300135275
      3  C        -1.5857160241   -2.2037859763    1.1088387015
      4  C        -2.1644613030   -1.9145343787   -0.2271473562
      5  C        -1.8270645154   -0.7440471899   -0.8698337464
      6  C        -1.1240388962    0.3375925168   -0.0935067763
      7  C        -0.7223888193    1.5455124813   -0.9245674129
      8  H         0.4648556378    0.6054771869    1.3097981444
      9  H        -0.3132145792   -1.3089664354    2.6401364289
     10  H        -2.2377920477   -2.7035615070    1.8231329887
     11  H        -2.8768975164   -2.6089175855   -0.6401746529
     12  H        -2.2122237860   -0.5237093643   -1.8572462251
     13  H        -1.5788185645    1.9393532858   -1.4726267938
     14  O         0.3340744096    1.1900272212   -1.8101920600
     15  H        -0.3399549650    2.3158873937   -0.2588302000
     16  H        -0.0363840608    0.7149602824   -2.5625242328
     17  O         0.9956466999   -0.9471610338    0.0530123903
     18  H         1.3109292072   -0.3621561355   -0.6500584594
     19  O        -1.8046875271   -0.0448456206    2.1117902717
     20  O        -2.0259045229    0.8014999312    0.9292443663
     21  O        -0.8359363117   -3.0459409570    0.2910743304

Z-matrix Print:
$molecule
0 2
O 
C  1 1.440344
O  1 1.470936 2 106.940105
C  3 1.430483 1 106.405490 2 -3.215021 0
H  4 1.087595 3 106.284306 1 152.248091 0
C  2 1.505614 1 107.766810 3 88.898513 0
H  6 1.082534 2 119.355315 1 104.637966 0
C  6 1.377288 2 118.967685 1 -64.491634 0
H  8 1.077184 6 122.068748 2 163.949767 0
C  8 1.484409 6 119.344870 2 -12.869543 0
H  10 1.088667 8 116.515628 6 143.161358 0
O  10 1.392887 8 78.421382 6 -103.984507 0
C  2 1.520216 1 107.319118 3 -147.497775 0
H  13 1.087630 2 108.728392 1 53.468611 0
H  13 1.090391 2 110.747439 1 -66.450961 0
O  13 1.423663 2 109.738586 1 170.501352 0
H  16 0.963811 13 108.870291 2 78.622019 0
C  4 1.525718 3 100.759992 1 33.560085 0
H  18 1.092886 4 107.802928 3 62.187402 0
O  18 1.405655 4 115.961776 3 -172.697286 0
H  20 0.967441 18 106.184342 4 167.696171 0
$end

 
 --------------------------------------------------------------
 
                    Orbital Energies (a.u.)
 --------------------------------------------------------------
 
 Alpha MOs
 -- Occupied --
-19.4094 -19.4090 -19.3575 -19.3499 -19.3451 -10.4206 -10.4110 -10.4105
-10.4073 -10.3967 -10.3952 -10.3799  -1.2775  -1.1777  -1.1677  -1.1605
 -1.0785  -0.9621  -0.8926  -0.8491  -0.8065  -0.7609  -0.7215  -0.6952
 -0.6660  -0.6437  -0.6143  -0.6053  -0.5910  -0.5852  -0.5665  -0.5523
 -0.5328  -0.5288  -0.5198  -0.4995  -0.4935  -0.4794  -0.4554  -0.4491
 -0.4289  -0.4209  -0.3933  -0.3799  -0.3653  -0.3375
 -- Virtual --
  0.0247   0.0344   0.0362   0.0452   0.0515   0.0549   0.0568   0.0740
  0.0799   0.0856   0.0864   0.0900   0.1085   0.1195   0.1247   0.1281
  0.1336   0.1384   0.1418   0.1475   0.1544   0.1545   0.1608   0.1663
  0.1706   0.1721   0.1744   0.1793   0.1900   0.1970   0.2015   0.2062
  0.2112   0.2164   0.2196   0.2257   0.2304   0.2412   0.2453   0.2584
  0.2707   0.2732   0.2787   0.2900   0.2972   0.3022   0.3063   0.3149
  0.3191   0.3245   0.3349   0.3398   0.3443   0.3487   0.3534   0.3554
  0.3654   0.3707   0.3740   0.3793   0.3815   0.3870   0.3904   0.3950
  0.3987   0.4084   0.4194   0.4228   0.4277   0.4329   0.4412   0.4457
  0.4497   0.4658   0.4700   0.4787   0.4856   0.5136   0.5233   0.5294
  0.5474   0.5625   0.5941   0.6001   0.6106   0.6168   0.6218   0.6310
  0.6530   0.6547   0.6637   0.6699   0.6765   0.6839   0.6875   0.6935
  0.7060   0.7132   0.7217   0.7233   0.7349   0.7407   0.7503   0.7620
  0.7700   0.7737   0.7892   0.8067   0.8245   0.8380   0.8554   0.8588
  0.8819   0.8841   0.8990   0.9228   0.9430   0.9549   0.9699   0.9920
  1.0135   1.0346   1.0480   1.0550   1.0685   1.0801   1.0850   1.1040
  1.1132   1.1170   1.1279   1.1334   1.1528   1.1709   1.1737   1.1751
  1.1930   1.1982   1.2186   1.2286   1.2339   1.2403   1.2542   1.2635
  1.2708   1.2822   1.2910   1.3013   1.3097   1.3142   1.3182   1.3232
  1.3278   1.3421   1.3555   1.3628   1.3652   1.3734   1.3893   1.3929
  1.4030   1.4088   1.4255   1.4385   1.4515   1.4591   1.4754   1.4835
  1.4966   1.5041   1.5212   1.5317   1.5444   1.5466   1.5748   1.5831
  1.5867   1.6041   1.6173   1.6405   1.6544   1.6619   1.6645   1.6800
  1.6946   1.7159   1.7272   1.7617   1.7747   1.8019   1.8079   1.8276
  1.8702   1.8787   1.8877   1.9094   1.9187   1.9537   1.9756   2.0024
  2.0154   2.0361   2.0570   2.0741   2.0987   2.1268   2.1395   2.1740
  2.1780   2.1984   2.2249   2.2617   2.2844   2.3119   2.3288   2.3762
  2.3923   2.4091   2.4255   2.4497   2.4786   2.5096   2.5646   2.6547
  2.6793   2.6973   2.7120   2.7435   2.7656   2.7813   2.7985   2.8110
  2.8252   2.8375   2.8689   2.8864   2.8959   2.9048   2.9252   2.9471
  2.9664   2.9731   2.9903   3.0078   3.0112   3.0275   3.0608   3.0795
  3.1063   3.1116   3.1298   3.1684   3.1851   3.2013   3.2236   3.2358
  3.2409   3.2634   3.2982   3.3151   3.3187   3.3400   3.3532   3.3582
  3.3726   3.3990   3.4105   3.4501   3.4533   3.4756   3.4764   3.4859
  3.5189   3.5281   3.5604   3.5646   3.5679   3.5857   3.5940   3.6200
  3.6300   3.6354   3.6416   3.6727   3.6911   3.7023   3.7204   3.7400
  3.7537   3.7648   3.7751   3.7868   3.7984   3.8019   3.8294   3.8546
  3.8704   3.8807   3.8919   3.9042   3.9135   3.9196   3.9467   3.9525
  3.9648   3.9759   4.0018   4.0065   4.0176   4.0492   4.0743   4.0840
  4.0953   4.1064   4.1284   4.1496   4.1981   4.2082   4.2363   4.2624
  4.2717   4.2946   4.3034   4.3050   4.3233   4.3435   4.3539   4.3642
  4.3860   4.3974   4.4231   4.4382   4.4470   4.4789   4.4874   4.5001
  4.5053   4.5343   4.5514   4.5765   4.5839   4.6085   4.6285   4.6416
  4.6618   4.6833   4.7106   4.7340   4.7417   4.7639   4.7779   4.8149
  4.8827   4.9556   4.9771   5.0753   5.0879   5.1339   5.2014   5.2364
  5.2593   5.2713   5.2894   5.2991   5.3054   5.3118   5.3190   5.3353
  5.3453   5.3554   5.3805   5.3907   5.4049   5.4265   5.4394   5.4504
  5.4582   5.4977   5.5028   5.5147   5.5190   5.5500   5.5778   5.6058
  5.6128   5.6214   5.6265   5.6730   5.6991   5.7040   5.7352   5.7513
  5.7634   5.7789   5.7971   5.8179   5.8842   5.8882   5.9555   5.9675
  6.0079   6.0318   6.0419   6.0675   6.0804   6.1016   6.2596   6.6040
  6.6385   6.6728   6.6968   6.7479   6.7987   7.0446   7.0530   7.0968
  7.1185   7.1457   7.2923   7.3064   7.3324   7.3552   7.3844   7.4117
  7.4249   7.4303   7.4585   7.4907   7.5005   7.5507   7.5748   7.6411
  7.6653   7.7200   7.7529   7.7910   7.8630   7.9084   7.9733   8.2637
 24.4339  24.7017  24.7759  24.8133  24.8403  24.9240  25.0857  50.5993
 50.6224  50.6560  50.6923  50.6962
 
 Beta MOs
 -- Occupied --
-19.4091 -19.4080 -19.3498 -19.3451 -19.3437 -10.4211 -10.4108 -10.4105
-10.4067 -10.3967 -10.3965 -10.3715  -1.2762  -1.1764  -1.1635  -1.1418
 -1.0767  -0.9535  -0.8857  -0.8457  -0.8013  -0.7559  -0.7171  -0.6929
 -0.6636  -0.6387  -0.6125  -0.5998  -0.5866  -0.5788  -0.5631  -0.5447
 -0.5299  -0.5257  -0.5125  -0.4981  -0.4810  -0.4705  -0.4513  -0.4415
 -0.4206  -0.3999  -0.3877  -0.3742  -0.3579
 -- Virtual --
 -0.0524   0.0249   0.0343   0.0363   0.0462   0.0538   0.0555   0.0577
  0.0768   0.0822   0.0858   0.0889   0.0947   0.1144   0.1189   0.1250
  0.1283   0.1335   0.1399   0.1433   0.1477   0.1547   0.1565   0.1612
  0.1667   0.1714   0.1728   0.1757   0.1809   0.1905   0.1969   0.2021
  0.2077   0.2118   0.2161   0.2207   0.2283   0.2305   0.2417   0.2466
  0.2591   0.2709   0.2751   0.2788   0.2911   0.2980   0.3037   0.3066
  0.3158   0.3197   0.3253   0.3353   0.3405   0.3454   0.3492   0.3549
  0.3568   0.3656   0.3742   0.3750   0.3804   0.3826   0.3875   0.3916
  0.3952   0.3996   0.4098   0.4197   0.4242   0.4282   0.4329   0.4429
  0.4478   0.4510   0.4678   0.4718   0.4807   0.4860   0.5147   0.5241
  0.5314   0.5488   0.5635   0.5973   0.6043   0.6131   0.6179   0.6244
  0.6329   0.6536   0.6555   0.6643   0.6708   0.6776   0.6852   0.6882
  0.6950   0.7078   0.7140   0.7220   0.7266   0.7372   0.7416   0.7510
  0.7650   0.7726   0.7763   0.7898   0.8111   0.8269   0.8394   0.8580
  0.8604   0.8829   0.8875   0.9027   0.9229   0.9443   0.9571   0.9711
  0.9927   1.0150   1.0356   1.0500   1.0562   1.0689   1.0814   1.0868
  1.1064   1.1149   1.1188   1.1302   1.1349   1.1536   1.1719   1.1747
  1.1773   1.1949   1.2004   1.2198   1.2302   1.2367   1.2439   1.2586
  1.2641   1.2756   1.2835   1.2934   1.3046   1.3124   1.3188   1.3200
  1.3245   1.3285   1.3433   1.3570   1.3644   1.3679   1.3755   1.3934
  1.3951   1.4059   1.4118   1.4277   1.4410   1.4559   1.4597   1.4767
  1.4853   1.4998   1.5061   1.5234   1.5331   1.5462   1.5490   1.5767
  1.5852   1.5891   1.6072   1.6194   1.6418   1.6576   1.6642   1.6684
  1.6821   1.6972   1.7187   1.7294   1.7641   1.7775   1.8063   1.8116
  1.8324   1.8732   1.8824   1.8913   1.9148   1.9241   1.9608   1.9776
  2.0062   2.0189   2.0376   2.0596   2.0853   2.1005   2.1307   2.1429
  2.1770   2.1850   2.1999   2.2290   2.2643   2.2862   2.3152   2.3299
  2.3779   2.3945   2.4129   2.4267   2.4547   2.4795   2.5114   2.5673
  2.6609   2.6815   2.7013   2.7143   2.7460   2.7693   2.7830   2.8033
  2.8141   2.8360   2.8419   2.8716   2.8899   2.8945   2.9098   2.9398
  2.9637   2.9774   2.9835   2.9937   3.0123   3.0247   3.0362   3.0653
  3.0827   3.1106   3.1160   3.1334   3.1746   3.1874   3.2054   3.2277
  3.2397   3.2454   3.2669   3.3048   3.3211   3.3231   3.3421   3.3576
  3.3657   3.3789   3.4012   3.4183   3.4520   3.4581   3.4781   3.4825
  3.4932   3.5224   3.5319   3.5639   3.5671   3.5764   3.5872   3.6024
  3.6289   3.6344   3.6373   3.6481   3.6783   3.6967   3.7115   3.7239
  3.7447   3.7564   3.7704   3.7811   3.7933   3.8043   3.8065   3.8329
  3.8577   3.8754   3.8838   3.8951   3.9062   3.9166   3.9232   3.9510
  3.9547   3.9685   3.9775   4.0045   4.0107   4.0210   4.0529   4.0796
  4.0888   4.0974   4.1135   4.1320   4.1528   4.2014   4.2111   4.2386
  4.2648   4.2774   4.3020   4.3057   4.3087   4.3259   4.3470   4.3565
  4.3664   4.3881   4.4002   4.4260   4.4422   4.4514   4.4836   4.4895
  4.5020   4.5084   4.5453   4.5571   4.5826   4.5912   4.6146   4.6334
  4.6465   4.6714   4.6866   4.7122   4.7366   4.7438   4.7685   4.7876
  4.8206   4.8854   4.9611   4.9840   5.0826   5.0974   5.1418   5.2094
  5.2515   5.2693   5.2747   5.2983   5.3032   5.3102   5.3276   5.3318
  5.3405   5.3496   5.3800   5.3858   5.4041   5.4098   5.4305   5.4495
  5.4531   5.4723   5.5053   5.5132   5.5210   5.5292   5.5522   5.5805
  5.6109   5.6180   5.6307   5.6351   5.6749   5.6995   5.7270   5.7372
  5.7522   5.7668   5.7832   5.8018   5.8218   5.8887   5.8934   5.9617
  5.9771   6.0152   6.0425   6.0500   6.0757   6.0878   6.1031   6.2607
  6.6055   6.6403   6.6753   6.7028   6.7499   6.8040   7.0477   7.1063
  7.1199   7.1411   7.1561   7.2928   7.3077   7.3331   7.3563   7.3851
  7.4187   7.4290   7.4316   7.4598   7.4980   7.5064   7.5554   7.6303
  7.6458   7.6664   7.7239   7.7800   7.7914   7.8643   7.9102   7.9753
  8.2647  24.4368  24.7018  24.7760  24.8136  24.8405  24.9242  25.0899
 50.5995  50.6227  50.6613  50.6940  50.6998
 --------------------------------------------------------------
 
          Ground-State Mulliken Net Atomic Charges

     Atom                 Charge (a.u.)    Spin (a.u.)
  --------------------------------------------------------
      1 C                    -0.126161       0.022539
      2 C                    -0.109913      -0.036617
      3 C                    -0.380297       0.109460
      4 C                    -0.205231      -0.152748
      5 C                    -0.353726       0.620366
      6 C                     0.188155      -0.066092
      7 C                    -0.333016       0.006287
      8 H                     0.330779      -0.001871
      9 H                     0.275612       0.000486
     10 H                     0.265729       0.002272
     11 H                     0.326400       0.004536
     12 H                     0.331933      -0.009306
     13 H                     0.253367      -0.000273
     14 O                    -0.379378       0.002354
     15 H                     0.240749      -0.000583
     16 H                     0.329058      -0.000150
     17 O                    -0.416441       0.002667
     18 H                     0.339173       0.002070
     19 O                    -0.105700      -0.000935
     20 O                    -0.120562       0.027584
     21 O                    -0.350529       0.467954
  --------------------------------------------------------
  Sum of atomic charges =     0.000000
  Sum of spin   charges =     1.000000

 -----------------------------------------------------------------
                    Cartesian Multipole Moments
 -----------------------------------------------------------------
    Charge (ESU x 10^10)
                -0.0000
    Dipole Moment (Debye)
         X      -1.9871      Y       2.6432      Z      -2.9872
       Tot       4.4563
    Quadrupole Moments (Debye-Ang)
        XX     -69.9578     XY       6.7333     YY     -81.7665
        XZ       9.7504     YZ      -4.4520     ZZ     -60.7813
    Octopole Moments (Debye-Ang^2)
       XXX     196.7344    XXY      14.2468    XYY      51.8930
       YYY     151.3036    XXZ     -37.6325    XYZ      12.7642
       YYZ      -5.6773    XZZ      63.3328    YZZ      18.1916
       ZZZ     -64.4817
    Hexadecapole Moments (Debye-Ang^3)
      XXXX    -871.3682   XXXY     -94.7528   XXYY    -268.8456
      XYYY    -151.6937   YYYY   -1148.1822   XXXZ     150.3614
      XXYZ      38.2212   XYYZ      37.3992   YYYZ     122.7466
      XXZZ    -257.0799   XYZZ     -42.3062   YYZZ    -256.5424
      XZZZ     146.2736   YZZZ      99.7245   ZZZZ    -576.1768
 -----------------------------------------------------------------
 Total job time:  1565.95s(wall), 37972.33s(cpu) 
 Wed Jun 26 17:50:14 2024

        *************************************************************
        *                                                           *
        *  Thank you very much for using Q-Chem.  Have a nice day.  *
        *                                                           *
        *************************************************************


