
Running Job 1 of 1 Q_in.in
qchem Q_in.in_72363.0 /scratch/ari.fischer/qChem2100608.hpc-mn1/qchem72363/ 0
/usr/local/qchem-5.4.1/exe/qcprog.exe_s Q_in.in_72363.0 /scratch/ari.fischer/qChem2100608.hpc-mn1/qchem72363/
                  Welcome to Q-Chem
     A Quantum Leap Into The Future Of Chemistry


 Q-Chem 5.4, Q-Chem, Inc., Pleasanton, CA (2021)

 License issued to: Nanyang Technological University (site)

 E. Epifanovsky,  A. T. B. Gilbert,  Xintian Feng,  Joonho Lee,  Yuezhi Mao,  
 N. Mardirossian,  P. Pokhilko,  A. White,  M. Wormit,  M. P. Coons,  
 A. L. Dempwolff,  Zhengting Gan,  D. Hait,  P. R. Horn,  L. D. Jacobson,  
 I. Kaliman,  J. Kussmann,  A. W. Lange,  Ka Un Lao,  D. S. Levine,  Jie Liu,  
 S. C. McKenzie,  A. F. Morrison,  K. Nanda,  F. Plasser,  D. R. Rehn,  
 M. L. Vidal,  Zhi-Qiang You,  Ying Zhu,  B. Alam,  B. Albrecht,  
 A. Aldossary,  E. Alguire,  J. H. Andersen,  D. Barton,  K. Begam,  A. Behn,  
 Y. A. Bernard,  E. J. Berquist,  H. Burton,  A. Carreras,  K. Carter-Fenk,  
 R. Chakraborty,  A. D. Chien,  K. D. Closser,  V. Cofer-Shabica,  
 S. Dasgupta,  Jia Deng,  M. de Wergifosse,  M. Diedenhofen,  Hainam Do,  
 S. Ehlert,  Po-Tung Fang,  S. Fatehi,  Qingguo Feng,  T. Friedhoff,  
 J. Gayvert,  Qinghui Ge,  G. Gidofalvi,  M. Goldey,  J. Gomes,  
 C. Gonzalez-Espinoza,  S. Gulania,  A. Gunina,  M. W. D. Hanson-Heine,  
 P. H. P. Harbach,  A. W. Hauser,  M. F. Herbst,  M. Hernandez Vera,  
 M. Hodecker,  Z. C. Holden,  S. Houck,  Xunkun Huang,  Kerwin Hui,  
 B. C. Huynh,  M. Ivanov,  Hyunjun Ji,  Hanjie Jiang,  B. Kaduk,  S. Kaehler,  
 K. Khistyaev,  Jaehoon Kim,  P. Klunzinger,  Z. Koczor-Benda,  
 Joong Hoon Koh,  D. Kosenkov,  L. Koulias,  T. Kowalczyk,  C. M. Krauter,  
 K. Kue,  A. Kunitsa,  T. Kus,  A. Landau,  K. V. Lawler,  D. Lefrancois,  
 S. Lehtola,  Rain Li,  Yi-Pei Li,  Jiashu Liang,  M. Liebenthal,  
 Hung-Hsuan Lin,  You-Sheng Lin,  Fenglai Liu,  Kuan-Yu Liu,  
 M. Loipersberger,  A. Luenser,  A. Manjanath,  P. Manohar,  E. Mansoor,  
 S. F. Manzer,  Shan-Ping Mao,  A. V. Marenich,  T. Markovich,  S. Mason,  
 S. A. Maurer,  P. F. McLaughlin,  M. F. S. J. Menger,  J.-M. Mewes,  
 S. A. Mewes,  P. Morgante,  J. W. Mullinax,  K. J. Oosterbaan,  G. Paran,  
 Alexander C. Paul,  Suranjan K. Paul,  F. Pavosevic,  Zheng Pei,  S. Prager,  
 E. I. Proynov,  E. Ramos,  B. Rana,  A. E. Rask,  A. Rettig,  R. M. Richard,  
 F. Rob,  E. Rossomme,  T. Scheele,  M. Scheurer,  M. Schneider,  
 N. Sergueev,  S. M. Sharada,  W. Skomorowski,  D. W. Small,  C. J. Stein,  
 Yu-Chuan Su,  E. J. Sundstrom,  Zhen Tao,  J. Thirman,  T. Tsuchimochi,  
 N. M. Tubman,  S. P. Veccham,  O. Vydrov,  J. Wenzel,  J. Witte,  A. Yamada,  
 Kun Yao,  S. Yeganeh,  S. R. Yost,  A. Zech,  Igor Ying Zhang,  Xing Zhang,  
 Yu Zhang,  D. Zuev,  A. Aspuru-Guzik,  A. T. Bell,  N. A. Besley,  
 K. B. Bravaya,  B. R. Brooks,  D. Casanova,  Jeng-Da Chai,  S. Coriani,  
 C. J. Cramer,  A. E. DePrince, III,  R. A. DiStasio Jr.,  A. Dreuw,  
 B. D. Dunietz,  T. R. Furlani,  W. A. Goddard III,  S. Grimme,  
 S. Hammes-Schiffer,  T. Head-Gordon,  W. J. Hehre,  Chao-Ping Hsu,  
 T.-C. Jagau,  Yousung Jung,  A. Klamt,  Jing Kong,  D. S. Lambrecht,  
 WanZhen Liang,  N. J. Mayhall,  C. W. McCurdy,  J. B. Neaton,  
 C. Ochsenfeld,  J. A. Parkhill,  R. Peverati,  V. A. Rassolov,  Yihan Shao,  
 L. V. Slipchenko,  T. Stauch,  R. P. Steele,  J. E. Subotnik,  
 A. J. W. Thom,  A. Tkatchenko,  D. G. Truhlar,  T. Van Voorhis,  
 T. A. Wesolowski,  K. B. Whaley,  H. L. Woodcock III,  P. M. Zimmerman,  
 S. Faraji,  P. M. W. Gill,  M. Head-Gordon,  J. M. Herbert,  A. I. Krylov

 Additional authors for Version 5.4.1: 
 S. Kotaru,  Shaozhi Li,  Xiangyuan Li,  F. Matz,  A. Molle,  Haisheng Ren,  
 Yingli Su,  Hung-Yi Tsai,  C. Utku,  Fang Wang

 Contributors to earlier versions of Q-Chem not listed above: 
 R. D. Adamson,  B. Austin,  R. Baer,  J. Baker,  G. J. O. Beran,  
 K. Brandhorst,  S. T. Brown,  E. F. C. Byrd,  A. K. Chakraborty,  
 G. K. L. Chan,  Chun-Min Chang,  Yunqing Chen,  C.-L. Cheng,  
 Siu Hung Chien,  D. M. Chipman,  D. L. Crittenden,  H. Dachsel,  
 R. J. Doerksen,  A. D. Dutoi,  R. G. Edgar,  J. Fosso-Tande,  
 L. Fusti-Molnar,  D. Ghosh,  A. Ghysels,  A. Golubeva-Zadorozhnaya,  
 J. Gonthier,  M. S. Gordon,  S. R. Gwaltney,  G. Hawkins,  J. E. Herr,  
 A. Heyden,  S. Hirata,  E. G. Hohenstein,  G. Kedziora,  F. J. Keil,  
 C. Kelley,  Jihan Kim,  R. A. King,  R. Z. Khaliullin,  P. P. Korambath,  
 W. Kurlancheek,  A. Laurent,  A. M. Lee,  M. S. Lee,  S. V. Levchenko,  
 Ching Yeh Lin,  D. Liotard,  E. Livshits,  R. C. Lochan,  I. Lotan,  
 L. A. Martinez-Martinez,  P. E. Maslen,  N. Nair,  D. P. O'Neill,  
 D. Neuhauser,  E. Neuscamman,  C. M. Oana,  R. Olivares-Amaya,  R. Olson,  
 T. M. Perrine,  B. Peters,  P. A. Pieniazek,  A. Prociuk,  Y. M. Rhee,  
 J. Ritchie,  M. A. Rohrdanz,  E. Rosta,  N. J. Russ,  H. F. Schaefer III,  
 M. W. Schmidt,  N. E. Schultz,  S. Sharma,  N. Shenvi,  C. D. Sherrill,  
 A. C. Simmonett,  A. Sodt,  T. Stein,  D. Stuck,  K. S. Thanthiriwatte,  
 V. Vanovschi,  L. Vogt,  Tao Wang,  A. Warshel,  M. A. Watson,  
 C. F. Williams,  Q. Wu,  X. Xu,  Jun Yang,  W. Zhang,  Yan Zhao

 Please cite Q-Chem as follows:
 Y. Shao et al., Mol. Phys. 113, 184-215 (2015)
 DOI: 10.1080/00268976.2014.952696

 Q-Chem 5.4.1 for Intel X86 EM64T Linux

 Parts of Q-Chem use Armadillo 9.800.1 (Horizon Scraper).
 http://arma.sourceforge.net/

 Q-Chem begins on Tue May 14 09:50:39 2024  

 Host: 
0

     Scratch files written to /scratch/ari.fischer/qChem2100608.hpc-mn1/qchem72363//
 Aug1521 |scratch|qcdevops|jenkins|workspace|build_RNUM 8249   
 Processing $rem in /usr/local/qchem-5.4.1/config/preferences:
 Processing $rem in /home/ari.fischer/.qchemrc:
 Symmetry turned off for PCM/SM12/SMD calculation


!!********************************************.
!!******************Warning*******************.
!!Desired Analytical derivatives not available.
!!Finite difference job might take a long time.
!!********************************************.
!!********************************************.


 2-order derivative to be evaluated numerically with 1-order analytical derivatives

 Checking the input file for inconsistencies... 	...done.

--------------------------------------------------------------
User input:
--------------------------------------------------------------
$molecule
0 2
H         0.5221190841    1.0624935834    1.6063616378
C        -0.1360819585    1.1351395414    0.7537547651
C        -1.3861295936    1.7201189459    0.8366979522
H        -1.7282485958    2.1346591969    1.7762671670
C        -2.2006247765    1.7762768476   -0.2791647448
H        -3.1847827486    2.2193444721   -0.2484039906
C        -1.6908398275    1.1702156389   -1.5478450476
H        -2.2841249255    1.4174339998   -2.4237920985
C        -0.1906802087    1.4284776753   -1.7217830409
H         0.1525161941    1.0113883466   -2.6674343465
C         0.2783260242    0.5557988021   -0.5624488382
H         1.3299430692    0.2877702941   -0.6132569727
O         0.2189234637    2.7672178587   -1.5690098982
H         0.0684484404    3.2229045222   -2.4041464887
O        -1.7103833987   -0.2705418972   -1.4609717854
O        -0.4471325424   -0.6645493277   -0.8222543700
$end

$rem
BASIS = 6-311++G(2df,2p)
GUI = 2
JOB_TYPE = Frequency
METHOD = wB97M-V
SOLVENT_METHOD = SMD
SCF_ALGORITHM = DIIS_GDM
MAX_SCF_CYCLES = 400
SCF_CONVERGENCE = 7
THRESH = 12
$end
--------------------------------------------------------------
 ----------------------------------------------------------------
             Standard Nuclear Orientation (Angstroms)
    I     Atom           X                Y                Z
 ----------------------------------------------------------------
    1      H       0.5221190841     1.0624935834     1.6063616378
    2      C      -0.1360819585     1.1351395414     0.7537547651
    3      C      -1.3861295936     1.7201189459     0.8366979522
    4      H      -1.7282485958     2.1346591969     1.7762671670
    5      C      -2.2006247765     1.7762768476    -0.2791647448
    6      H      -3.1847827486     2.2193444721    -0.2484039906
    7      C      -1.6908398275     1.1702156389    -1.5478450476
    8      H      -2.2841249255     1.4174339998    -2.4237920985
    9      C      -0.1906802087     1.4284776753    -1.7217830409
   10      H       0.1525161941     1.0113883466    -2.6674343465
   11      C       0.2783260242     0.5557988021    -0.5624488382
   12      H       1.3299430692     0.2877702941    -0.6132569727
   13      O       0.2189234637     2.7672178587    -1.5690098982
   14      H       0.0684484404     3.2229045222    -2.4041464887
   15      O      -1.7103833987    -0.2705418972    -1.4609717854
   16      O      -0.4471325424    -0.6645493277    -0.8222543700
 ----------------------------------------------------------------
 Nuclear Repulsion Energy =         477.86250911 hartrees
 There are       34 alpha and       33 beta electrons
 Requested basis set is 6-311++G(2df,2p)
 There are 114 shells and 376 basis functions

 Total QAlloc Memory Limit 288000 MB
 Mega-Array Size       188 MB
 MEM_STATIC part       192 MB
 
 Citation of the SMD model:
 Marenich, A.V.; Cramer, C.J.; Truhlar, D.G.
 J. Phys. Chem. B 2009, 113, 6378-6396.
 iSolventCode=           1
 Solvent: water                                                           
 
 vradii
            1           2           3           4           5           6
    1   1.2000000   1.8500000   1.8500000   1.2000000   1.8500000   1.2000000
            7           8           9          10          11          12
    1   1.8500000   1.2000000   1.8500000   1.2000000   1.8500000   1.2000000
           13          14          15          16
    1   1.5200000   1.2000000   1.5200000   1.5200000
 Changing PCM_VDW_RADII to SMD_RADIUS
 Discretize the solute cavity surface with Lebedev spheres
	Using 110 Lebedev grid points for each H atom
	Using 194 Lebedev grid points for other atoms
	Atomic van der Waals radii will be scaled by 1.20
 Remove points where switching function is < 1.0e-08
 Keep 1161 surface tesserae and discard 1355 interior tesserae
 Molecular Surface Area = 135.615 Angst**2
 A cutoff of  1.0D-12 yielded   6212 shell pairs
 There are     68838 function pairs (     86555 Cartesian)
 Smallest overlap matrix eigenvalue = 3.64E-06
 Guess from superposition of atomic densities
 Warning:  Energy on first SCF cycle will be non-variational
 SAD guess density has 67.000000 electrons

 -----------------------------------------------------------------------
  General SCF calculation program by
  Eric Jon Sundstrom, Paul Horn, Yuezhi Mao, Dmitri Zuev, Alec White,
  David Stuck, Shaama M.S., Shane Yost, Joonho Lee, David Small,
  Daniel Levine, Susi Lehtola, Hugh Burton, Evgeny Epifanovsky,
  Bang C. Huynh
 -----------------------------------------------------------------------
 Exchange:     0.1500 Hartree-Fock + 1.0000 wB97M-V + LR-HF
 Correlation:  1.0000 wB97M-V
 Using SG-2 standard quadrature grid
 Nonlocal Correlation:  VV10 with C = 0.0100 and b = 6.00 and scale = 1.00000
 Grid used for NLC:  SG-1 standard quadrature
 using 16 threads for integral computing
 -------------------------------------------------------
 OpenMP Integral computing Module                
 Release: version 1.0, May 2013, Q-Chem Inc. Pittsburgh 
 -------------------------------------------------------
 
 Citation of the SMD model:
 Marenich, A.V.; Cramer, C.J.; Truhlar, D.G.
 J. Phys. Chem. B 2009, 113, 6378-6396.
 iSolventCode=           1
 Solvent: water                                                           
 
 vradii
            1           2           3           4           5           6
    1   1.2000000   1.8500000   1.8500000   1.2000000   1.8500000   1.2000000
            7           8           9          10          11          12
    1   1.8500000   1.2000000   1.8500000   1.2000000   1.8500000   1.2000000
           13          14          15          16
    1   1.5200000   1.2000000   1.5200000   1.5200000
 -------------------------------------------------------
 OpenMP BLAS3 based DFT computing Module                
 Release: version 1.0, May 2013, Q-Chem Inc. Pittsburgh 
 -------------------------------------------------------
 A unrestricted SCF calculation will be
 performed using DIIS, GDM
 SCF converges when RMS gradient is below 1.0e-07
 ---------------------------------------
  Cycle       Energy         DIIS error
 ---------------------------------------
    1    -460.9026712010      1.30e-02  
    2    -458.2854180009      1.12e-03  Done DIIS. Switching to GDM
 ---------------------------------------
  Cycle       Energy        RMS Gradient
 ---------------------------------------
    1    -458.2854180009      3.84e-02   Descent step
    2    -458.3531738019      2.07e-02   Normal BFGS step
    3    -458.3660846447      7.30e-03   Normal BFGS step
    4    -458.3677772632      4.86e-03   Normal BFGS step
    5    -458.3681567048      2.57e-03   Normal BFGS step
    6    -458.3682550321      6.75e-04   Normal BFGS step
    7    -458.3682643521      2.54e-04   Normal BFGS step
    8    -458.3682662659      1.83e-04   Normal BFGS step
    9    -458.3682667531      5.68e-05   Normal BFGS step
   10    -458.3682668271      5.79e-05   Normal BFGS step
   11    -458.3682668524      1.58e-05   Normal BFGS step
   12    -458.3682668555      1.06e-05   Normal BFGS step
   13    -458.3682668571      6.04e-06   Normal BFGS step
   14    -458.3682668575      2.97e-06   Normal BFGS step
   15    -458.3682668576      1.53e-06   Normal BFGS step
   16    -458.3682668576      4.52e-07   Normal BFGS step
   17    -458.3682668576      1.69e-07   Normal BFGS step
   18    -458.3682668577      9.10e-08  Convergence criterion met
 ---------------------------------------
 SCF time:   CPU 1763.67s  wall 119.00s 
<S^2> =          0.780515826
(3)  G-ENP(liq) elect-nuc-pol free energy of system     -458.368266858 a.u.
(4)  G-CDS(liq) cavity-dispersion-solvent structure 
     free energy                                                2.4855 kcal/mol
(6)  G-S(liq) free energy of system                     -458.364305939 a.u.
 SCF   energy in the final basis set =     -458.3643059392
 Total energy in the final basis set =     -458.3643059392
 
 --------------------------------------------------------------
 
                    Orbital Energies (a.u.)
 --------------------------------------------------------------
 
 Alpha MOs
 -- Occupied --
-19.4004 -19.4003 -19.3481 -10.4055 -10.4052 -10.4030 -10.3540 -10.3537
-10.3489  -1.2667  -1.1709  -1.0638  -0.9728  -0.8795  -0.8432  -0.7526
 -0.7180  -0.6822  -0.6602  -0.6218  -0.5827  -0.5749  -0.5576  -0.5362
 -0.5309  -0.5121  -0.4894  -0.4744  -0.4532  -0.4274  -0.4201  -0.4002
 -0.3606  -0.2843
 -- Virtual --
  0.0243   0.0368   0.0374   0.0463   0.0571   0.0581   0.0761   0.0802
  0.0866   0.0955   0.1119   0.1199   0.1360   0.1376   0.1424   0.1440
  0.1497   0.1541   0.1568   0.1591   0.1606   0.1623   0.1693   0.1826
  0.1889   0.1947   0.1971   0.2105   0.2150   0.2323   0.2344   0.2427
  0.2475   0.2616   0.2771   0.2824   0.2961   0.3030   0.3053   0.3202
  0.3332   0.3384   0.3455   0.3570   0.3591   0.3641   0.3719   0.3785
  0.3847   0.3889   0.3945   0.4004   0.4063   0.4181   0.4277   0.4329
  0.4391   0.4642   0.4843   0.5005   0.5013   0.5423   0.5471   0.5771
  0.5861   0.5977   0.6103   0.6133   0.6332   0.6435   0.6502   0.6706
  0.6815   0.6965   0.7054   0.7161   0.7203   0.7276   0.7329   0.7486
  0.7579   0.7705   0.7741   0.7923   0.7969   0.8116   0.8166   0.8390
  0.8492   0.8554   0.8730   0.8979   0.9328   0.9545   0.9693   0.9938
  1.0246   1.0422   1.0835   1.1003   1.1116   1.1225   1.1290   1.1524
  1.1564   1.1622   1.1713   1.1944   1.2115   1.2129   1.2228   1.2288
  1.2437   1.2541   1.2655   1.2785   1.2839   1.3114   1.3250   1.3297
  1.3439   1.3498   1.3568   1.3883   1.3922   1.3986   1.4199   1.4232
  1.4555   1.4650   1.4708   1.4888   1.5007   1.5254   1.5346   1.5469
  1.5547   1.5791   1.5866   1.6164   1.6268   1.6714   1.6760   1.6833
  1.6941   1.7643   1.7781   1.8073   1.8163   1.8492   1.8577   1.8759
  1.9377   1.9485   1.9886   2.0027   2.0119   2.0796   2.1197   2.1362
  2.1550   2.2477   2.2583   2.2711   2.3082   2.3681   2.4020   2.4253
  2.5065   2.6176   2.6455   2.6813   2.7254   2.7372   2.7496   2.7596
  2.7858   2.8032   2.8308   2.8360   2.8535   2.8574   2.8776   2.8897
  2.9109   2.9332   2.9427   2.9590   2.9661   2.9858   3.0016   3.0164
  3.0402   3.0612   3.0965   3.1224   3.1722   3.1863   3.2008   3.2103
  3.2725   3.2899   3.3150   3.3426   3.3571   3.3735   3.3757   3.3888
  3.4032   3.4227   3.4437   3.4661   3.4866   3.4945   3.5141   3.5352
  3.5549   3.5814   3.6135   3.6378   3.6515   3.6573   3.6833   3.6991
  3.7188   3.7324   3.7470   3.7553   3.7774   3.7787   3.8097   3.8194
  3.8434   3.8725   3.8875   3.8959   3.9097   3.9275   3.9480   3.9921
  4.0115   4.0283   4.0418   4.0639   4.0899   4.0948   4.1017   4.1250
  4.2100   4.2596   4.2643   4.2732   4.3012   4.3083   4.3336   4.3624
  4.3801   4.3906   4.4211   4.4321   4.4653   4.4951   4.5044   4.5394
  4.5569   4.6126   4.6219   4.6240   4.6371   4.6460   4.6632   4.6920
  4.7417   4.7530   4.7840   4.8176   4.8685   4.9517   5.0067   5.1052
  5.1359   5.1656   5.2189   5.2512   5.2654   5.2900   5.2936   5.3224
  5.3439   5.3563   5.4000   5.4340   5.4601   5.4920   5.5110   5.5189
  5.5907   5.6147   5.6233   5.6304   5.6988   5.7130   5.7660   5.7681
  5.8146   5.8924   5.9282   5.9470   6.0280   6.0424   6.0686   6.1614
  6.2585   6.5962   6.6017   6.7250   6.7299   7.0210   7.1199   7.2875
  7.3024   7.3336   7.3777   7.4155   7.4389   7.4690   7.5094   7.6221
  7.7118   7.8320   7.8878   7.9270   8.2269  24.3593  24.7173  24.7304
 24.8092  24.8954  25.2046  50.5873  50.6409  50.6485
 
 Beta MOs
 -- Occupied --
-19.3991 -19.3990 -19.3482 -10.4058 -10.4048 -10.4036 -10.3520 -10.3457
-10.3455  -1.2641  -1.1706  -1.0606  -0.9657  -0.8770  -0.8279  -0.7503
 -0.7100  -0.6805  -0.6561  -0.6185  -0.5780  -0.5693  -0.5515  -0.5332
 -0.5269  -0.5083  -0.4881  -0.4693  -0.4506  -0.4201  -0.3979  -0.3899
 -0.3550
 -- Virtual --
 -0.0185   0.0236   0.0363   0.0369   0.0457   0.0568   0.0577   0.0823
  0.0854   0.0868   0.0996   0.1120   0.1211   0.1352   0.1376   0.1427
  0.1446   0.1501   0.1538   0.1574   0.1597   0.1605   0.1615   0.1700
  0.1838   0.1884   0.1949   0.1995   0.2104   0.2127   0.2321   0.2342
  0.2415   0.2481   0.2642   0.2787   0.2839   0.2982   0.3052   0.3107
  0.3226   0.3344   0.3419   0.3472   0.3569   0.3620   0.3658   0.3750
  0.3813   0.3850   0.3881   0.3950   0.4015   0.4069   0.4188   0.4292
  0.4350   0.4396   0.4657   0.4847   0.5036   0.5046   0.5445   0.5495
  0.5814   0.5901   0.6042   0.6125   0.6190   0.6322   0.6523   0.6603
  0.6730   0.6848   0.6990   0.7094   0.7191   0.7219   0.7301   0.7342
  0.7527   0.7623   0.7772   0.7793   0.7965   0.8003   0.8163   0.8201
  0.8387   0.8570   0.8641   0.8756   0.8988   0.9340   0.9552   0.9710
  0.9961   1.0260   1.0450   1.0856   1.1025   1.1120   1.1249   1.1309
  1.1548   1.1593   1.1655   1.1758   1.1968   1.2142   1.2164   1.2252
  1.2320   1.2452   1.2564   1.2658   1.2809   1.2864   1.3141   1.3278
  1.3308   1.3456   1.3525   1.3594   1.3909   1.3947   1.4009   1.4224
  1.4295   1.4601   1.4699   1.4733   1.4928   1.5046   1.5295   1.5413
  1.5513   1.5585   1.5824   1.5905   1.6191   1.6325   1.6755   1.6806
  1.6889   1.6972   1.7703   1.7791   1.8123   1.8225   1.8513   1.8612
  1.8780   1.9401   1.9547   1.9917   2.0088   2.0171   2.0827   2.1233
  2.1419   2.1576   2.2492   2.2615   2.2732   2.3093   2.3709   2.4039
  2.4281   2.5090   2.6243   2.6571   2.6837   2.7292   2.7474   2.7569
  2.7745   2.8014   2.8122   2.8403   2.8516   2.8576   2.8684   2.8879
  2.9042   2.9238   2.9478   2.9639   2.9674   2.9871   3.0045   3.0266
  3.0337   3.0479   3.0702   3.1177   3.1282   3.1929   3.1975   3.2154
  3.2202   3.2853   3.3044   3.3255   3.3519   3.3679   3.3814   3.3971
  3.3979   3.4131   3.4328   3.4535   3.4775   3.4951   3.5014   3.5293
  3.5555   3.5627   3.6009   3.6194   3.6459   3.6613   3.6724   3.6980
  3.7075   3.7225   3.7398   3.7541   3.7683   3.7893   3.7944   3.8171
  3.8276   3.8542   3.8812   3.8917   3.9011   3.9201   3.9356   3.9579
  3.9974   4.0276   4.0379   4.0484   4.0712   4.0987   4.1010   4.1075
  4.1357   4.2132   4.2676   4.2774   4.2842   4.3073   4.3156   4.3472
  4.3679   4.3872   4.3994   4.4346   4.4451   4.4716   4.5027   4.5119
  4.5457   4.5653   4.6214   4.6330   4.6379   4.6448   4.6592   4.6824
  4.6975   4.7485   4.7556   4.7945   4.8282   4.8794   4.9620   5.0179
  5.1168   5.1509   5.1745   5.2347   5.2599   5.2687   5.2918   5.2967
  5.3246   5.3462   5.3580   5.4024   5.4385   5.4638   5.5001   5.5159
  5.5291   5.5958   5.6170   5.6286   5.6441   5.7031   5.7249   5.7693
  5.7737   5.8173   5.8995   5.9286   5.9515   6.0377   6.0559   6.0766
  6.1714   6.2602   6.5993   6.6046   6.7260   6.7316   7.0240   7.1202
  7.2907   7.3041   7.3338   7.3800   7.4201   7.4401   7.4716   7.5116
  7.6269   7.7119   7.8330   7.8903   7.9300   8.2284  24.3622  24.7175
 24.7345  24.8095  24.8987  25.2077  50.5884  50.6419  50.6487
 --------------------------------------------------------------
 
          Ground-State Mulliken Net Atomic Charges

     Atom                 Charge (a.u.)    Spin (a.u.)
  --------------------------------------------------------
      1 H                     0.311124      -0.013780
      2 C                    -0.298035       0.563754
      3 C                    -0.229740      -0.153468
      4 H                     0.288775       0.006299
      5 C                    -0.336013       0.564709
      6 H                     0.306156      -0.013122
      7 C                    -0.218014      -0.021616
      8 H                     0.285052       0.004975
      9 C                    -0.091499       0.024447
     10 H                     0.276079      -0.002439
     11 C                    -0.195215      -0.020494
     12 H                     0.283940       0.004786
     13 O                    -0.434834      -0.001148
     14 H                     0.342627      -0.000457
     15 O                    -0.141861       0.028572
     16 O                    -0.148540       0.028982
  --------------------------------------------------------
  Sum of atomic charges =     0.000000
  Sum of spin   charges =     1.000000

 -----------------------------------------------------------------
                    Cartesian Multipole Moments
 -----------------------------------------------------------------
    Charge (ESU x 10^10)
                 0.0000
    Dipole Moment (Debye)
         X       0.4516      Y       3.7447      Z      -1.7175
       Tot       4.1445
    Quadrupole Moments (Debye-Ang)
        XX     -49.7113     XY      -8.5947     YY     -53.0012
        XZ       0.9970     YZ      -9.4047     ZZ     -40.3236
    Octopole Moments (Debye-Ang^2)
       XXX     117.5159    XXY     -42.4983    XYY      29.3099
       YYY    -172.5337    XXZ      34.6395    XYZ       8.2357
       YYZ      17.3980    XZZ      36.6220    YZZ     -19.7327
       ZZZ      81.6816
    Hexadecapole Moments (Debye-Ang^3)
      XXXX    -512.2556   XXXY      85.3080   XXYY    -199.8479
      XYYY     111.8309   YYYY    -760.9698   XXXZ     -66.9877
      XXYZ      27.1188   XYYZ     -19.3845   YYYZ      37.9883
      XXZZ    -167.3894   XYZZ      20.6270   YYZZ    -125.2211
      XZZZ     -69.2391   YZZZ      23.8299   ZZZZ    -437.6322
 -----------------------------------------------------------------
 Calculating analytic gradient of the SCF energy
 Gradient of CDS energy
            1           2           3           4           5           6
    1   0.0001188   0.0003268  -0.0001349  -0.0000662  -0.0004512  -0.0001779
    2  -0.0000131  -0.0000698   0.0001626   0.0000803   0.0001716   0.0000801
    3   0.0001538   0.0003459   0.0003773   0.0001819  -0.0000375   0.0000056
            7           8           9          10          11          12
    1  -0.0000526  -0.0001272   0.0007608   0.0000118   0.0001382   0.0001896
    2  -0.0002341  -0.0000052   0.0019815  -0.0001780  -0.0002539  -0.0001034
    3  -0.0002653  -0.0001753   0.0001424  -0.0001456  -0.0001893  -0.0000165
           13          14          15          16
    1  -0.0006464   0.0000866   0.0001156  -0.0000918
    2  -0.0020487   0.0004421  -0.0000384   0.0000265
    3  -0.0000816  -0.0002418   0.0000250  -0.0000792
 Gradient of SCF Energy
            1           2           3           4           5           6
    1   0.0029427  -0.0031796   0.0030576  -0.0014606   0.0067210  -0.0057816
    2  -0.0001905   0.0065494  -0.0055354   0.0017656   0.0032345   0.0029735
    3   0.0033076  -0.0033145  -0.0059821   0.0037040   0.0021297  -0.0003089
            7           8           9          10          11          12
    1   0.0023462  -0.0047653  -0.0019840   0.0030798  -0.0066174   0.0054938
    2  -0.0097867   0.0037241   0.0061380  -0.0007487  -0.0044048  -0.0008103
    3   0.0079358  -0.0079544   0.0085156  -0.0086896   0.0000920  -0.0000859
           13          14          15          16
    1   0.0044244  -0.0035924  -0.0017192   0.0010346
    2  -0.0044205   0.0061904  -0.0013578  -0.0033207
    3   0.0187486  -0.0166626  -0.0015302   0.0000950
 Max gradient component =       1.875E-02
 RMS gradient           =       5.733E-03
 Computing fast CPCM-SWIG gradient
 Updating gradient with PCM contributions...
 -- total gradient after adding PCM contribution --
---------------------------------------------------
  Atom         X              Y              Z     
---------------------------------------------------
   1       0.000008       0.000021       0.000007
   2      -0.000018       0.000006      -0.000000
   3      -0.000003      -0.000007      -0.000002
   4      -0.000018       0.000008       0.000003
   5      -0.000008      -0.000028      -0.000002
   6      -0.000016      -0.000009      -0.000016
   7      -0.000015       0.000126      -0.000039
   8      -0.000010      -0.000037       0.000001
   9      -0.000011      -0.000027       0.000002
  10       0.000011      -0.000003      -0.000010
  11       0.000107       0.000105       0.000033
  12       0.000009       0.000008       0.000018
  13      -0.000004      -0.000005       0.000037
  14      -0.000017       0.000011      -0.000042
  15       0.000189      -0.000158       0.000104
  16      -0.000204      -0.000012      -0.000094
---------------------------------------------------
 Number of fixed atoms: 0
 Gradient time:  CPU 294.00 s  wall 22.82 s
 ######################################################
 ######################################################
 # Starting finite difference calculation for IDERIV  #
 Finite diff step size:  1.88973e-03 a.u.
 ----------------------------------------------------------------
             Standard Nuclear Orientation (Angstroms)
    I     Atom           X                Y                Z
 ----------------------------------------------------------------
    1      H       0.5231190841     1.0624935834     1.6063616378
    2      C      -0.1360819585     1.1351395414     0.7537547651
    3      C      -1.3861295936     1.7201189459     0.8366979522
    4      H      -1.7282485958     2.1346591969     1.7762671670
    5      C      -2.2006247765     1.7762768476    -0.2791647448
    6      H      -3.1847827486     2.2193444721    -0.2484039906
    7      C      -1.6908398275     1.1702156389    -1.5478450476
    8      H      -2.2841249255     1.4174339998    -2.4237920985
    9      C      -0.1906802087     1.4284776753    -1.7217830409
   10      H       0.1525161941     1.0113883466    -2.6674343465
   11      C       0.2783260242     0.5557988021    -0.5624488382
   12      H       1.3299430692     0.2877702941    -0.6132569727
   13      O       0.2189234637     2.7672178587    -1.5690098982
   14      H       0.0684484404     3.2229045222    -2.4041464887
   15      O      -1.7103833987    -0.2705418972    -1.4609717854
   16      O      -0.4471325424    -0.6645493277    -0.8222543700
 ----------------------------------------------------------------
 Nuclear Repulsion Energy =         477.85938054 hartrees
 There are       34 alpha and       33 beta electrons
 Discretize the solute cavity surface with Lebedev spheres
	Using 110 Lebedev grid points for each H atom
	Using 194 Lebedev grid points for other atoms
	Atomic van der Waals radii will be scaled by 1.20
 Remove points where switching function is < 1.0e-08
 Keep 1161 surface tesserae and discard 1355 interior tesserae
 Molecular Surface Area = 135.619 Angst**2
 Requested basis set is 6-311++G(2df,2p)
 There are 114 shells and 376 basis functions
 A cutoff of  1.0D-12 yielded   6212 shell pairs
 There are     68838 function pairs (     86555 Cartesian)
 Smallest overlap matrix eigenvalue = 3.64E-06
 Guess MOs from SCF MO coefficient file

 -----------------------------------------------------------------------
  General SCF calculation program by
  Eric Jon Sundstrom, Paul Horn, Yuezhi Mao, Dmitri Zuev, Alec White,
  David Stuck, Shaama M.S., Shane Yost, Joonho Lee, David Small,
  Daniel Levine, Susi Lehtola, Hugh Burton, Evgeny Epifanovsky,
  Bang C. Huynh
 -----------------------------------------------------------------------
 Exchange:     0.1500 Hartree-Fock + 1.0000 wB97M-V + LR-HF
 Correlation:  1.0000 wB97M-V
 Using SG-2 standard quadrature grid
 Nonlocal Correlation:  VV10 with C = 0.0100 and b = 6.00 and scale = 1.00000
 Grid used for NLC:  SG-1 standard quadrature
 
 Citation of the SMD model:
 Marenich, A.V.; Cramer, C.J.; Truhlar, D.G.
 J. Phys. Chem. B 2009, 113, 6378-6396.
 iSolventCode=           1
 Solvent: water                                                           
 
 vradii
            1           2           3           4           5           6
    1   1.2000000   1.8500000   1.8500000   1.2000000   1.8500000   1.2000000
            7           8           9          10          11          12
    1   1.8500000   1.2000000   1.8500000   1.2000000   1.8500000   1.2000000
           13          14          15          16
    1   1.5200000   1.2000000   1.5200000   1.5200000
 -------------------------------------------------------
 OpenMP BLAS3 based DFT computing Module                
 Release: version 1.0, May 2013, Q-Chem Inc. Pittsburgh 
 -------------------------------------------------------
 A unrestricted SCF calculation will be
 performed using Roothaan-Hall, DIIS, GDM
 SCF converges when RMS gradient is below 1.0e-07
 ---------------------------------------
  Cycle       Energy         DIIS error
 ---------------------------------------
    1    -458.3375946761      2.18e-04  Roothaan Step
 ---------------------------------------
  Cycle       Energy         DIIS error
 ---------------------------------------
    1    -458.3617122722      2.45e-04  
    2    -458.3664069054      1.86e-04  Done DIIS. Switching to GDM
 ---------------------------------------
  Cycle       Energy        RMS Gradient
 ---------------------------------------
    1    -458.3664069054      5.95e-03   Normal BFGS step
    2    -458.3668307309      7.20e-03   Normal BFGS step
    3    -458.3682442861      5.60e-04   Normal BFGS step
    4    -458.3682592039      6.23e-04   Normal BFGS step
    5    -458.3682664831      2.02e-04   Normal BFGS step
    6    -458.3682666755      8.55e-05   Normal BFGS step
    7    -458.3682667511      4.95e-05   Normal BFGS step
    8    -458.3682667674      3.30e-05   Normal BFGS step
    9    -458.3682667718      1.27e-05   Normal BFGS step
   10    -458.3682667729      3.75e-06   Normal BFGS step
   11    -458.3682667731      2.02e-06   Normal BFGS step
   12    -458.3682667732      1.64e-06   Normal BFGS step
   13    -458.3682667732      6.57e-07   Normal BFGS step
   14    -458.3682667732      2.66e-07   Normal BFGS step
   15    -458.3682667732      1.37e-07   Normal BFGS step
   16    -458.3682667732      4.77e-08  Convergence criterion met
 ---------------------------------------
 SCF time:   CPU 1694.50s  wall 114.00s 
<S^2> =          0.780516382
(3)  G-ENP(liq) elect-nuc-pol free energy of system     -458.368266773 a.u.
(4)  G-CDS(liq) cavity-dispersion-solvent structure 
     free energy                                                2.4857 kcal/mol
(6)  G-S(liq) free energy of system                     -458.364305630 a.u.
 SCF   energy in the final basis set =     -458.3643056297
 Total energy in the final basis set =     -458.3643056297
 
 --------------------------------------------------------------
 
                    Orbital Energies (a.u.)
 --------------------------------------------------------------
 
 Alpha MOs
 -- Occupied --
-19.4004 -19.4003 -19.3481 -10.4055 -10.4052 -10.4030 -10.3540 -10.3537
-10.3489  -1.2667  -1.1709  -1.0638  -0.9728  -0.8795  -0.8431  -0.7526
 -0.7179  -0.6822  -0.6602  -0.6218  -0.5827  -0.5748  -0.5576  -0.5362
 -0.5309  -0.5121  -0.4894  -0.4744  -0.4532  -0.4274  -0.4201  -0.4002
 -0.3606  -0.2843
 -- Virtual --
  0.0243   0.0368   0.0374   0.0463   0.0571   0.0581   0.0761   0.0802
  0.0866   0.0955   0.1119   0.1199   0.1360   0.1376   0.1424   0.1440
  0.1497   0.1541   0.1568   0.1591   0.1606   0.1623   0.1693   0.1826
  0.1889   0.1947   0.1971   0.2104   0.2150   0.2323   0.2344   0.2427
  0.2475   0.2616   0.2771   0.2823   0.2961   0.3030   0.3053   0.3202
  0.3332   0.3384   0.3455   0.3570   0.3591   0.3641   0.3719   0.3785
  0.3847   0.3889   0.3945   0.4003   0.4063   0.4181   0.4277   0.4328
  0.4391   0.4642   0.4843   0.5005   0.5013   0.5423   0.5471   0.5771
  0.5861   0.5976   0.6103   0.6133   0.6331   0.6435   0.6502   0.6706
  0.6815   0.6965   0.7054   0.7161   0.7203   0.7275   0.7329   0.7486
  0.7579   0.7705   0.7740   0.7923   0.7969   0.8116   0.8166   0.8390
  0.8493   0.8553   0.8730   0.8978   0.9328   0.9545   0.9693   0.9938
  1.0245   1.0422   1.0835   1.1003   1.1117   1.1225   1.1290   1.1524
  1.1564   1.1622   1.1713   1.1944   1.2115   1.2129   1.2228   1.2288
  1.2437   1.2541   1.2655   1.2785   1.2839   1.3114   1.3250   1.3297
  1.3439   1.3498   1.3568   1.3883   1.3922   1.3986   1.4199   1.4231
  1.4555   1.4650   1.4708   1.4888   1.5008   1.5254   1.5345   1.5468
  1.5547   1.5790   1.5866   1.6164   1.6268   1.6714   1.6760   1.6832
  1.6941   1.7643   1.7781   1.8073   1.8162   1.8492   1.8577   1.8759
  1.9377   1.9486   1.9886   2.0027   2.0118   2.0796   2.1197   2.1361
  2.1550   2.2477   2.2583   2.2711   2.3082   2.3681   2.4020   2.4253
  2.5065   2.6177   2.6456   2.6814   2.7254   2.7372   2.7496   2.7596
  2.7858   2.8032   2.8308   2.8359   2.8535   2.8573   2.8776   2.8897
  2.9109   2.9332   2.9427   2.9590   2.9662   2.9858   3.0015   3.0163
  3.0402   3.0611   3.0965   3.1224   3.1722   3.1863   3.2007   3.2103
  3.2725   3.2899   3.3149   3.3426   3.3570   3.3735   3.3757   3.3888
  3.4032   3.4227   3.4437   3.4660   3.4867   3.4945   3.5141   3.5352
  3.5549   3.5813   3.6135   3.6377   3.6515   3.6572   3.6832   3.6991
  3.7188   3.7325   3.7470   3.7552   3.7773   3.7788   3.8097   3.8194
  3.8433   3.8725   3.8875   3.8958   3.9097   3.9275   3.9481   3.9920
  4.0112   4.0285   4.0419   4.0637   4.0899   4.0948   4.1017   4.1250
  4.2100   4.2595   4.2641   4.2730   4.3011   4.3082   4.3335   4.3623
  4.3802   4.3905   4.4211   4.4320   4.4652   4.4950   4.5043   4.5394
  4.5567   4.6126   4.6218   4.6237   4.6371   4.6459   4.6632   4.6919
  4.7415   4.7530   4.7840   4.8175   4.8684   4.9516   5.0066   5.1051
  5.1356   5.1654   5.2187   5.2511   5.2654   5.2900   5.2936   5.3224
  5.3439   5.3563   5.4000   5.4340   5.4600   5.4920   5.5109   5.5186
  5.5906   5.6147   5.6231   5.6302   5.6988   5.7129   5.7659   5.7680
  5.8146   5.8923   5.9282   5.9468   6.0278   6.0424   6.0684   6.1612
  6.2585   6.5962   6.6017   6.7250   6.7299   7.0210   7.1199   7.2875
  7.3024   7.3336   7.3777   7.4155   7.4389   7.4690   7.5094   7.6221
  7.7118   7.8320   7.8878   7.9270   8.2269  24.3590  24.7172  24.7301
 24.8092  24.8953  25.2044  50.5873  50.6409  50.6485
 
 Beta MOs
 -- Occupied --
-19.3991 -19.3990 -19.3482 -10.4058 -10.4048 -10.4036 -10.3520 -10.3458
-10.3455  -1.2641  -1.1706  -1.0606  -0.9657  -0.8770  -0.8279  -0.7503
 -0.7100  -0.6805  -0.6561  -0.6185  -0.5780  -0.5692  -0.5515  -0.5332
 -0.5269  -0.5083  -0.4881  -0.4692  -0.4506  -0.4201  -0.3979  -0.3899
 -0.3550
 -- Virtual --
 -0.0185   0.0236   0.0363   0.0369   0.0457   0.0568   0.0576   0.0823
  0.0854   0.0868   0.0996   0.1120   0.1211   0.1352   0.1376   0.1427
  0.1446   0.1501   0.1538   0.1574   0.1597   0.1605   0.1615   0.1700
  0.1838   0.1884   0.1949   0.1995   0.2104   0.2127   0.2321   0.2342
  0.2415   0.2481   0.2642   0.2787   0.2839   0.2982   0.3052   0.3107
  0.3227   0.3344   0.3419   0.3471   0.3569   0.3620   0.3657   0.3750
  0.3813   0.3850   0.3881   0.3950   0.4015   0.4069   0.4187   0.4292
  0.4350   0.4395   0.4657   0.4847   0.5036   0.5046   0.5445   0.5495
  0.5814   0.5901   0.6042   0.6124   0.6190   0.6322   0.6523   0.6603
  0.6729   0.6848   0.6990   0.7094   0.7191   0.7219   0.7301   0.7342
  0.7527   0.7623   0.7772   0.7793   0.7965   0.8003   0.8163   0.8201
  0.8387   0.8570   0.8640   0.8756   0.8988   0.9339   0.9552   0.9710
  0.9961   1.0260   1.0450   1.0856   1.1024   1.1120   1.1248   1.1309
  1.1548   1.1593   1.1655   1.1758   1.1968   1.2142   1.2164   1.2251
  1.2320   1.2452   1.2564   1.2658   1.2809   1.2863   1.3141   1.3278
  1.3309   1.3456   1.3525   1.3594   1.3909   1.3947   1.4009   1.4224
  1.4294   1.4601   1.4698   1.4733   1.4928   1.5046   1.5295   1.5412
  1.5512   1.5584   1.5823   1.5905   1.6191   1.6324   1.6755   1.6806
  1.6888   1.6971   1.7703   1.7792   1.8123   1.8224   1.8512   1.8612
  1.8780   1.9401   1.9548   1.9917   2.0088   2.0170   2.0827   2.1233
  2.1418   2.1576   2.2492   2.2615   2.2733   2.3093   2.3709   2.4039
  2.4281   2.5090   2.6244   2.6571   2.6837   2.7292   2.7474   2.7569
  2.7746   2.8014   2.8122   2.8403   2.8515   2.8576   2.8684   2.8879
  2.9041   2.9238   2.9478   2.9638   2.9674   2.9872   3.0044   3.0265
  3.0337   3.0479   3.0702   3.1177   3.1282   3.1929   3.1974   3.2153
  3.2201   3.2854   3.3044   3.3255   3.3519   3.3679   3.3814   3.3970
  3.3979   3.4131   3.4328   3.4535   3.4775   3.4951   3.5014   3.5293
  3.5555   3.5627   3.6009   3.6194   3.6459   3.6613   3.6723   3.6980
  3.7075   3.7224   3.7399   3.7541   3.7681   3.7892   3.7945   3.8171
  3.8276   3.8541   3.8812   3.8916   3.9010   3.9201   3.9355   3.9580
  3.9974   4.0274   4.0380   4.0484   4.0710   4.0988   4.1010   4.1075
  4.1356   4.2132   4.2675   4.2773   4.2839   4.3072   4.3155   4.3471
  4.3679   4.3873   4.3992   4.4345   4.4450   4.4715   4.5027   4.5118
  4.5456   4.5651   4.6213   4.6329   4.6378   4.6447   4.6591   4.6824
  4.6974   4.7484   4.7556   4.7945   4.8281   4.8793   4.9619   5.0177
  5.1167   5.1505   5.1744   5.2345   5.2597   5.2687   5.2917   5.2967
  5.3246   5.3462   5.3580   5.4023   5.4384   5.4637   5.5001   5.5158
  5.5289   5.5958   5.6170   5.6286   5.6437   5.7031   5.7248   5.7693
  5.7737   5.8172   5.8994   5.9286   5.9514   6.0375   6.0559   6.0763
  6.1711   6.2602   6.5993   6.6046   6.7260   6.7316   7.0240   7.1202
  7.2907   7.3041   7.3338   7.3800   7.4201   7.4401   7.4715   7.5116
  7.6269   7.7119   7.8330   7.8903   7.9300   8.2284  24.3618  24.7175
 24.7342  24.8095  24.8985  25.2075  50.5884  50.6419  50.6487
 --------------------------------------------------------------
 
          Ground-State Mulliken Net Atomic Charges

     Atom                 Charge (a.u.)    Spin (a.u.)
  --------------------------------------------------------
      1 H                     0.310877      -0.013809
      2 C                    -0.298039       0.563756
      3 C                    -0.229762      -0.153411
      4 H                     0.288805       0.006300
      5 C                    -0.336092       0.564684
      6 H                     0.306163      -0.013122
      7 C                    -0.218048      -0.021604
      8 H                     0.285051       0.004975
      9 C                    -0.091490       0.024452
     10 H                     0.276075      -0.002439
     11 C                    -0.194907      -0.020507
     12 H                     0.283977       0.004785
     13 O                    -0.434833      -0.001149
     14 H                     0.342627      -0.000457
     15 O                    -0.141864       0.028571
     16 O                    -0.148541       0.028977
  --------------------------------------------------------
  Sum of atomic charges =     0.000000
  Sum of spin   charges =     1.000000

 -----------------------------------------------------------------
                    Cartesian Multipole Moments
 -----------------------------------------------------------------
    Charge (ESU x 10^10)
                 0.0000
    Dipole Moment (Debye)
         X       0.4519      Y       3.7450      Z      -1.7178
       Tot       4.1449
    Quadrupole Moments (Debye-Ang)
        XX     -49.7097     XY      -8.5950     YY     -53.0012
        XZ       0.9982     YZ      -9.4049     ZZ     -40.3254
    Octopole Moments (Debye-Ang^2)
       XXX     117.5110    XXY     -42.4956    XYY      29.3077
       YYY    -172.5339    XXZ      34.6406    XYZ       8.2368
       YYZ      17.3969    XZZ      36.6229    YZZ     -19.7341
       ZZZ      81.6769
    Hexadecapole Moments (Debye-Ang^3)
      XXXX    -512.2499   XXXY      85.2994   XXYY    -199.8436
      XYYY     111.8238   YYYY    -760.9701   XXXZ     -66.9898
      XXYZ      27.1197   XYYZ     -19.3850   YYYZ      37.9853
      XXZZ    -167.3875   XYZZ      20.6274   YYZZ    -125.2245
      XZZZ     -69.2397   YZZZ      23.8257   ZZZZ    -437.6487
 -----------------------------------------------------------------
 Calculating analytic gradient of the SCF energy
 Gradient of CDS energy
            1           2           3           4           5           6
    1   0.0001194   0.0003262  -0.0001348  -0.0000662  -0.0004512  -0.0001779
    2  -0.0000132  -0.0000697   0.0001626   0.0000803   0.0001716   0.0000801
    3   0.0001544   0.0003453   0.0003773   0.0001819  -0.0000375   0.0000056
            7           8           9          10          11          12
    1  -0.0000526  -0.0001272   0.0007608   0.0000118   0.0001382   0.0001896
    2  -0.0002341  -0.0000052   0.0019815  -0.0001780  -0.0002539  -0.0001034
    3  -0.0002653  -0.0001753   0.0001424  -0.0001456  -0.0001893  -0.0000165
           13          14          15          16
    1  -0.0006464   0.0000866   0.0001156  -0.0000918
    2  -0.0020487   0.0004421  -0.0000384   0.0000265
    3  -0.0000816  -0.0002418   0.0000250  -0.0000792
 Gradient of SCF Energy
            1           2           3           4           5           6
    1   0.0032579  -0.0034880   0.0030388  -0.0014599   0.0067163  -0.0057838
    2  -0.0002428   0.0065940  -0.0055329   0.0017615   0.0032424   0.0029737
    3   0.0035947  -0.0035831  -0.0060256   0.0037036   0.0021333  -0.0003111
            7           8           9          10          11          12
    1   0.0023461  -0.0047654  -0.0019849   0.0030801  -0.0066009   0.0054958
    2  -0.0097862   0.0037241   0.0061392  -0.0007491  -0.0044037  -0.0008113
    3   0.0079363  -0.0079548   0.0085204  -0.0086885   0.0001096  -0.0000870
           13          14          15          16
    1   0.0044243  -0.0035923  -0.0017190   0.0010348
    2  -0.0044211   0.0061906  -0.0013580  -0.0033205
    3   0.0187483  -0.0166628  -0.0015299   0.0000965
 Max gradient component =       1.875E-02
 RMS gradient           =       5.749E-03
 Computing fast CPCM-SWIG gradient
 Updating gradient with PCM contributions...
 -- total gradient after adding PCM contribution --
---------------------------------------------------
  Atom         X              Y              Z     
---------------------------------------------------
   1       0.000319      -0.000030       0.000298
   2      -0.000321       0.000050      -0.000272
   3      -0.000022      -0.000004      -0.000046
   4      -0.000017       0.000004       0.000005
   5      -0.000013      -0.000020       0.000001
   6      -0.000017      -0.000010      -0.000018
   7      -0.000016       0.000127      -0.000038
   8      -0.000010      -0.000037       0.000001
   9      -0.000011      -0.000026       0.000007
  10       0.000011      -0.000003      -0.000009
  11       0.000123       0.000105       0.000050
  12       0.000010       0.000007       0.000016
  13      -0.000004      -0.000005       0.000036
  14      -0.000017       0.000011      -0.000042
  15       0.000190      -0.000158       0.000104
  16      -0.000204      -0.000011      -0.000093
---------------------------------------------------
 Number of fixed atoms: 0
 Gradient time:  CPU 290.90 s  wall 22.54 s
 ----------------------------------------------------------------
             Standard Nuclear Orientation (Angstroms)
    I     Atom           X                Y                Z
 ----------------------------------------------------------------
    1      H       0.5211190841     1.0624935834     1.6063616378
    2      C      -0.1360819585     1.1351395414     0.7537547651
    3      C      -1.3861295936     1.7201189459     0.8366979522
    4      H      -1.7282485958     2.1346591969     1.7762671670
    5      C      -2.2006247765     1.7762768476    -0.2791647448
    6      H      -3.1847827486     2.2193444721    -0.2484039906
    7      C      -1.6908398275     1.1702156389    -1.5478450476
    8      H      -2.2841249255     1.4174339998    -2.4237920985
    9      C      -0.1906802087     1.4284776753    -1.7217830409
   10      H       0.1525161941     1.0113883466    -2.6674343465
   11      C       0.2783260242     0.5557988021    -0.5624488382
   12      H       1.3299430692     0.2877702941    -0.6132569727
   13      O       0.2189234637     2.7672178587    -1.5690098982
   14      H       0.0684484404     3.2229045222    -2.4041464887
   15      O      -1.7103833987    -0.2705418972    -1.4609717854
   16      O      -0.4471325424    -0.6645493277    -0.8222543700
 ----------------------------------------------------------------
 Nuclear Repulsion Energy =         477.86563795 hartrees
 There are       34 alpha and       33 beta electrons
 Discretize the solute cavity surface with Lebedev spheres
	Using 110 Lebedev grid points for each H atom
	Using 194 Lebedev grid points for other atoms
	Atomic van der Waals radii will be scaled by 1.20
 Remove points where switching function is < 1.0e-08
 Keep 1161 surface tesserae and discard 1355 interior tesserae
 Molecular Surface Area = 135.612 Angst**2
 Requested basis set is 6-311++G(2df,2p)
 There are 114 shells and 376 basis functions
 A cutoff of  1.0D-12 yielded   6212 shell pairs
 There are     68838 function pairs (     86555 Cartesian)
 Smallest overlap matrix eigenvalue = 3.64E-06
 Guess MOs from SCF MO coefficient file

 -----------------------------------------------------------------------
  General SCF calculation program by
  Eric Jon Sundstrom, Paul Horn, Yuezhi Mao, Dmitri Zuev, Alec White,
  David Stuck, Shaama M.S., Shane Yost, Joonho Lee, David Small,
  Daniel Levine, Susi Lehtola, Hugh Burton, Evgeny Epifanovsky,
  Bang C. Huynh
 -----------------------------------------------------------------------
 Exchange:     0.1500 Hartree-Fock + 1.0000 wB97M-V + LR-HF
 Correlation:  1.0000 wB97M-V
 Using SG-2 standard quadrature grid
 Nonlocal Correlation:  VV10 with C = 0.0100 and b = 6.00 and scale = 1.00000
 Grid used for NLC:  SG-1 standard quadrature
 
 Citation of the SMD model:
 Marenich, A.V.; Cramer, C.J.; Truhlar, D.G.
 J. Phys. Chem. B 2009, 113, 6378-6396.
 iSolventCode=           1
 Solvent: water                                                           
 
 vradii
            1           2           3           4           5           6
    1   1.2000000   1.8500000   1.8500000   1.2000000   1.8500000   1.2000000
            7           8           9          10          11          12
    1   1.8500000   1.2000000   1.8500000   1.2000000   1.8500000   1.2000000
           13          14          15          16
    1   1.5200000   1.2000000   1.5200000   1.5200000
 -------------------------------------------------------
 OpenMP BLAS3 based DFT computing Module                
 Release: version 1.0, May 2013, Q-Chem Inc. Pittsburgh 
 -------------------------------------------------------
 A unrestricted SCF calculation will be
 performed using Roothaan-Hall, DIIS, GDM
 SCF converges when RMS gradient is below 1.0e-07
 ---------------------------------------
  Cycle       Energy         DIIS error
 ---------------------------------------
    1    -458.3376016096      2.18e-04  Roothaan Step
 ---------------------------------------
  Cycle       Energy         DIIS error
 ---------------------------------------
    1    -458.3617155582      2.45e-04  
    2    -458.3664083944      1.86e-04  Done DIIS. Switching to GDM
 ---------------------------------------
  Cycle       Energy        RMS Gradient
 ---------------------------------------
    1    -458.3664083944      5.95e-03   Normal BFGS step
    2    -458.3668311109      7.21e-03   Normal BFGS step
    3    -458.3682439021      5.56e-04   Normal BFGS step
    4    -458.3682588098      6.20e-04   Normal BFGS step
    5    -458.3682660674      2.00e-04   Normal BFGS step
    6    -458.3682662574      8.44e-05   Normal BFGS step
    7    -458.3682663334      4.92e-05   Normal BFGS step
    8    -458.3682663495      3.30e-05   Normal BFGS step
    9    -458.3682663539      1.28e-05   Normal BFGS step
   10    -458.3682663550      3.70e-06   Normal BFGS step
   11    -458.3682663552      2.02e-06   Normal BFGS step
   12    -458.3682663552      1.64e-06   Normal BFGS step
   13    -458.3682663553      6.49e-07   Normal BFGS step
   14    -458.3682663553      2.60e-07   Normal BFGS step
   15    -458.3682663553      1.40e-07   Normal BFGS step
   16    -458.3682663552      4.75e-08  Convergence criterion met
 ---------------------------------------
 SCF time:   CPU 1689.03s  wall 113.00s 
<S^2> =          0.780515298
(3)  G-ENP(liq) elect-nuc-pol free energy of system     -458.368266355 a.u.
(4)  G-CDS(liq) cavity-dispersion-solvent structure 
     free energy                                                2.4854 kcal/mol
(6)  G-S(liq) free energy of system                     -458.364305661 a.u.
 SCF   energy in the final basis set =     -458.3643056606
 Total energy in the final basis set =     -458.3643056606
 
 --------------------------------------------------------------
 
                    Orbital Energies (a.u.)
 --------------------------------------------------------------
 
 Alpha MOs
 -- Occupied --
-19.4004 -19.4003 -19.3481 -10.4055 -10.4052 -10.4030 -10.3539 -10.3537
-10.3489  -1.2667  -1.1709  -1.0638  -0.9728  -0.8795  -0.8432  -0.7526
 -0.7180  -0.6822  -0.6602  -0.6218  -0.5827  -0.5749  -0.5576  -0.5362
 -0.5309  -0.5121  -0.4894  -0.4744  -0.4532  -0.4274  -0.4201  -0.4002
 -0.3606  -0.2843
 -- Virtual --
  0.0243   0.0368   0.0374   0.0463   0.0571   0.0581   0.0761   0.0802
  0.0866   0.0955   0.1119   0.1199   0.1360   0.1376   0.1424   0.1440
  0.1497   0.1541   0.1568   0.1591   0.1606   0.1623   0.1693   0.1826
  0.1889   0.1947   0.1971   0.2105   0.2150   0.2323   0.2344   0.2427
  0.2475   0.2616   0.2771   0.2824   0.2961   0.3030   0.3053   0.3202
  0.3332   0.3384   0.3455   0.3570   0.3592   0.3641   0.3720   0.3785
  0.3847   0.3889   0.3945   0.4004   0.4063   0.4181   0.4277   0.4329
  0.4391   0.4642   0.4843   0.5005   0.5013   0.5423   0.5471   0.5771
  0.5861   0.5977   0.6103   0.6134   0.6332   0.6435   0.6502   0.6706
  0.6815   0.6965   0.7054   0.7161   0.7203   0.7276   0.7329   0.7486
  0.7579   0.7704   0.7741   0.7923   0.7969   0.8116   0.8167   0.8390
  0.8492   0.8554   0.8730   0.8979   0.9329   0.9545   0.9693   0.9938
  1.0246   1.0422   1.0836   1.1003   1.1116   1.1225   1.1290   1.1524
  1.1564   1.1622   1.1714   1.1944   1.2116   1.2129   1.2229   1.2288
  1.2438   1.2541   1.2655   1.2786   1.2840   1.3114   1.3249   1.3296
  1.3439   1.3498   1.3568   1.3883   1.3922   1.3987   1.4199   1.4232
  1.4555   1.4651   1.4708   1.4888   1.5007   1.5254   1.5346   1.5470
  1.5548   1.5791   1.5866   1.6164   1.6269   1.6714   1.6760   1.6833
  1.6941   1.7643   1.7781   1.8073   1.8164   1.8492   1.8577   1.8759
  1.9377   1.9485   1.9887   2.0027   2.0120   2.0796   2.1198   2.1362
  2.1550   2.2477   2.2582   2.2711   2.3082   2.3682   2.4020   2.4253
  2.5066   2.6175   2.6455   2.6813   2.7254   2.7372   2.7496   2.7595
  2.7858   2.8033   2.8308   2.8361   2.8535   2.8574   2.8776   2.8898
  2.9109   2.9332   2.9427   2.9590   2.9661   2.9859   3.0017   3.0164
  3.0402   3.0612   3.0965   3.1225   3.1722   3.1863   3.2009   3.2103
  3.2724   3.2899   3.3150   3.3426   3.3572   3.3735   3.3758   3.3889
  3.4033   3.4227   3.4437   3.4662   3.4866   3.4945   3.5142   3.5352
  3.5550   3.5814   3.6135   3.6379   3.6515   3.6573   3.6833   3.6991
  3.7188   3.7324   3.7470   3.7555   3.7774   3.7787   3.8097   3.8194
  3.8435   3.8725   3.8876   3.8959   3.9098   3.9276   3.9480   3.9921
  4.0118   4.0282   4.0418   4.0640   4.0898   4.0948   4.1017   4.1251
  4.2100   4.2596   4.2645   4.2735   4.3013   4.3083   4.3336   4.3624
  4.3801   4.3907   4.4212   4.4322   4.4654   4.4952   4.5045   4.5394
  4.5571   4.6126   4.6219   4.6243   4.6371   4.6461   4.6632   4.6920
  4.7418   4.7530   4.7841   4.8177   4.8686   4.9518   5.0068   5.1053
  5.1362   5.1658   5.2191   5.2514   5.2655   5.2900   5.2936   5.3224
  5.3439   5.3563   5.4000   5.4341   5.4601   5.4920   5.5111   5.5191
  5.5907   5.6147   5.6235   5.6305   5.6989   5.7130   5.7660   5.7681
  5.8146   5.8925   5.9282   5.9471   6.0283   6.0424   6.0689   6.1616
  6.2585   6.5962   6.6017   6.7250   6.7299   7.0210   7.1199   7.2875
  7.3024   7.3336   7.3777   7.4155   7.4389   7.4690   7.5094   7.6221
  7.7118   7.8320   7.8878   7.9271   8.2269  24.3596  24.7173  24.7307
 24.8092  24.8956  25.2048  50.5873  50.6409  50.6485
 
 Beta MOs
 -- Occupied --
-19.3991 -19.3990 -19.3482 -10.4058 -10.4048 -10.4036 -10.3520 -10.3457
-10.3455  -1.2641  -1.1706  -1.0606  -0.9657  -0.8770  -0.8279  -0.7503
 -0.7100  -0.6805  -0.6561  -0.6185  -0.5780  -0.5693  -0.5514  -0.5332
 -0.5270  -0.5083  -0.4881  -0.4693  -0.4506  -0.4201  -0.3979  -0.3899
 -0.3550
 -- Virtual --
 -0.0185   0.0236   0.0363   0.0369   0.0457   0.0568   0.0577   0.0823
  0.0854   0.0868   0.0996   0.1120   0.1211   0.1352   0.1376   0.1427
  0.1446   0.1501   0.1538   0.1574   0.1597   0.1605   0.1615   0.1700
  0.1838   0.1884   0.1949   0.1995   0.2104   0.2127   0.2321   0.2342
  0.2415   0.2481   0.2642   0.2787   0.2839   0.2982   0.3052   0.3107
  0.3226   0.3344   0.3419   0.3472   0.3569   0.3620   0.3658   0.3751
  0.3814   0.3850   0.3881   0.3950   0.4015   0.4069   0.4188   0.4292
  0.4350   0.4396   0.4657   0.4847   0.5035   0.5046   0.5445   0.5495
  0.5814   0.5901   0.6042   0.6125   0.6190   0.6322   0.6523   0.6603
  0.6730   0.6849   0.6990   0.7094   0.7191   0.7219   0.7301   0.7342
  0.7527   0.7623   0.7772   0.7793   0.7965   0.8003   0.8163   0.8201
  0.8387   0.8570   0.8641   0.8756   0.8989   0.9340   0.9552   0.9710
  0.9961   1.0260   1.0450   1.0857   1.1025   1.1120   1.1249   1.1309
  1.1548   1.1593   1.1655   1.1759   1.1968   1.2142   1.2165   1.2252
  1.2320   1.2453   1.2564   1.2658   1.2809   1.2865   1.3141   1.3278
  1.3308   1.3456   1.3525   1.3593   1.3909   1.3947   1.4010   1.4224
  1.4296   1.4602   1.4699   1.4733   1.4928   1.5046   1.5295   1.5413
  1.5514   1.5585   1.5824   1.5905   1.6191   1.6325   1.6756   1.6805
  1.6890   1.6972   1.7703   1.7791   1.8123   1.8226   1.8513   1.8612
  1.8780   1.9401   1.9545   1.9917   2.0089   2.0172   2.0827   2.1233
  2.1419   2.1576   2.2492   2.2614   2.2732   2.3093   2.3710   2.4039
  2.4281   2.5091   2.6242   2.6570   2.6837   2.7292   2.7474   2.7569
  2.7745   2.8014   2.8122   2.8403   2.8517   2.8576   2.8684   2.8879
  2.9043   2.9238   2.9478   2.9639   2.9674   2.9871   3.0045   3.0266
  3.0337   3.0479   3.0703   3.1177   3.1283   3.1929   3.1975   3.2154
  3.2202   3.2853   3.3044   3.3255   3.3519   3.3679   3.3814   3.3972
  3.3979   3.4131   3.4328   3.4536   3.4776   3.4951   3.5014   3.5293
  3.5556   3.5628   3.6009   3.6194   3.6460   3.6613   3.6725   3.6981
  3.7075   3.7225   3.7397   3.7541   3.7684   3.7893   3.7943   3.8171
  3.8276   3.8543   3.8812   3.8917   3.9012   3.9201   3.9357   3.9579
  3.9974   4.0279   4.0378   4.0483   4.0713   4.0987   4.1010   4.1075
  4.1357   4.2132   4.2676   4.2775   4.2844   4.3074   4.3157   4.3473
  4.3680   4.3872   4.3995   4.4346   4.4452   4.4717   4.5028   4.5120
  4.5457   4.5655   4.6214   4.6331   4.6381   4.6449   4.6594   4.6825
  4.6975   4.7486   4.7556   4.7946   4.8283   4.8795   4.9621   5.0180
  5.1169   5.1512   5.1747   5.2349   5.2600   5.2687   5.2918   5.2967
  5.3246   5.3463   5.3580   5.4024   5.4385   5.4638   5.5001   5.5159
  5.5293   5.5959   5.6170   5.6286   5.6445   5.7032   5.7249   5.7693
  5.7737   5.8173   5.8996   5.9287   5.9516   6.0379   6.0559   6.0770
  6.1716   6.2602   6.5993   6.6046   6.7260   6.7316   7.0240   7.1202
  7.2907   7.3041   7.3338   7.3800   7.4201   7.4401   7.4716   7.5116
  7.6269   7.7119   7.8330   7.8903   7.9300   8.2284  24.3625  24.7176
 24.7348  24.8095  24.8988  25.2079  50.5884  50.6419  50.6487
 --------------------------------------------------------------
 
          Ground-State Mulliken Net Atomic Charges

     Atom                 Charge (a.u.)    Spin (a.u.)
  --------------------------------------------------------
      1 H                     0.311371      -0.013751
      2 C                    -0.298031       0.563753
      3 C                    -0.229719      -0.153525
      4 H                     0.288744       0.006298
      5 C                    -0.335935       0.564735
      6 H                     0.306149      -0.013123
      7 C                    -0.217980      -0.021627
      8 H                     0.285052       0.004974
      9 C                    -0.091509       0.024441
     10 H                     0.276083      -0.002438
     11 C                    -0.195523      -0.020481
     12 H                     0.283903       0.004787
     13 O                    -0.434835      -0.001146
     14 H                     0.342627      -0.000458
     15 O                    -0.141858       0.028574
     16 O                    -0.148540       0.028987
  --------------------------------------------------------
  Sum of atomic charges =     0.000000
  Sum of spin   charges =     1.000000

 -----------------------------------------------------------------
                    Cartesian Multipole Moments
 -----------------------------------------------------------------
    Charge (ESU x 10^10)
                 0.0000
    Dipole Moment (Debye)
         X       0.4514      Y       3.7444      Z      -1.7171
       Tot       4.1440
    Quadrupole Moments (Debye-Ang)
        XX     -49.7128     XY      -8.5945     YY     -53.0011
        XZ       0.9959     YZ      -9.4045     ZZ     -40.3219
    Octopole Moments (Debye-Ang^2)
       XXX     117.5207    XXY     -42.5010    XYY      29.3121
       YYY    -172.5335    XXZ      34.6385    XYZ       8.2345
       YYZ      17.3992    XZZ      36.6210    YZZ     -19.7312
       ZZZ      81.6863
    Hexadecapole Moments (Debye-Ang^3)
      XXXX    -512.2613   XXXY      85.3166   XXYY    -199.8522
      XYYY     111.8379   YYYY    -760.9694   XXXZ     -66.9855
      XXYZ      27.1180   XYYZ     -19.3841   YYYZ      37.9914
      XXZZ    -167.3914   XYZZ      20.6267   YYZZ    -125.2177
      XZZZ     -69.2386   YZZZ      23.8342   ZZZZ    -437.6157
 -----------------------------------------------------------------
 Calculating analytic gradient of the SCF energy
 Gradient of CDS energy
            1           2           3           4           5           6
    1   0.0001181   0.0003275  -0.0001349  -0.0000662  -0.0004512  -0.0001779
    2  -0.0000131  -0.0000698   0.0001627   0.0000803   0.0001716   0.0000801
    3   0.0001532   0.0003466   0.0003773   0.0001819  -0.0000375   0.0000056
            7           8           9          10          11          12
    1  -0.0000526  -0.0001272   0.0007608   0.0000118   0.0001383   0.0001896
    2  -0.0002341  -0.0000052   0.0019815  -0.0001780  -0.0002539  -0.0001034
    3  -0.0002653  -0.0001753   0.0001424  -0.0001456  -0.0001894  -0.0000165
           13          14          15          16
    1  -0.0006464   0.0000866   0.0001156  -0.0000918
    2  -0.0020487   0.0004421  -0.0000384   0.0000265
    3  -0.0000816  -0.0002418   0.0000250  -0.0000792
 Gradient of SCF Energy
            1           2           3           4           5           6
    1   0.0026272  -0.0028709   0.0030764  -0.0014613   0.0067257  -0.0057794
    2  -0.0001381   0.0065046  -0.0055381   0.0017696   0.0032267   0.0029733
    3   0.0030192  -0.0030447  -0.0059386   0.0037043   0.0021260  -0.0003067
            7           8           9          10          11          12
    1   0.0023464  -0.0047651  -0.0019832   0.0030794  -0.0066340   0.0054918
    2  -0.0097873   0.0037241   0.0061368  -0.0007482  -0.0044059  -0.0008092
    3   0.0079354  -0.0079540   0.0085107  -0.0086907   0.0000744  -0.0000848
           13          14          15          16
    1   0.0044245  -0.0035924  -0.0017195   0.0010344
    2  -0.0044198   0.0061901  -0.0013576  -0.0033209
    3   0.0187490  -0.0166625  -0.0015305   0.0000934
 Max gradient component =       1.875E-02
 RMS gradient           =       5.718E-03
 Computing fast CPCM-SWIG gradient
 Updating gradient with PCM contributions...
 -- total gradient after adding PCM contribution --
---------------------------------------------------
  Atom         X              Y              Z     
---------------------------------------------------
   1      -0.000303       0.000072      -0.000285
   2       0.000285      -0.000039       0.000272
   3       0.000016      -0.000009       0.000041
   4      -0.000019       0.000011       0.000002
   5      -0.000002      -0.000036      -0.000004
   6      -0.000015      -0.000009      -0.000014
   7      -0.000015       0.000125      -0.000039
   8      -0.000010      -0.000037       0.000002
   9      -0.000010      -0.000028      -0.000002
  10       0.000011      -0.000002      -0.000011
  11       0.000091       0.000105       0.000016
  12       0.000008       0.000009       0.000019
  13      -0.000004      -0.000005       0.000037
  14      -0.000017       0.000011      -0.000042
  15       0.000189      -0.000158       0.000103
  16      -0.000204      -0.000012      -0.000095
---------------------------------------------------
 Number of fixed atoms: 0
 Gradient time:  CPU 290.91 s  wall 22.49 s
 ----------------------------------------------------------------
             Standard Nuclear Orientation (Angstroms)
    I     Atom           X                Y                Z
 ----------------------------------------------------------------
    1      H       0.5221190841     1.0634935834     1.6063616378
    2      C      -0.1360819585     1.1351395414     0.7537547651
    3      C      -1.3861295936     1.7201189459     0.8366979522
    4      H      -1.7282485958     2.1346591969     1.7762671670
    5      C      -2.2006247765     1.7762768476    -0.2791647448
    6      H      -3.1847827486     2.2193444721    -0.2484039906
    7      C      -1.6908398275     1.1702156389    -1.5478450476
    8      H      -2.2841249255     1.4174339998    -2.4237920985
    9      C      -0.1906802087     1.4284776753    -1.7217830409
   10      H       0.1525161941     1.0113883466    -2.6674343465
   11      C       0.2783260242     0.5557988021    -0.5624488382
   12      H       1.3299430692     0.2877702941    -0.6132569727
   13      O       0.2189234637     2.7672178587    -1.5690098982
   14      H       0.0684484404     3.2229045222    -2.4041464887
   15      O      -1.7103833987    -0.2705418972    -1.4609717854
   16      O      -0.4471325424    -0.6645493277    -0.8222543700
 ----------------------------------------------------------------
 Nuclear Repulsion Energy =         477.86270679 hartrees
 There are       34 alpha and       33 beta electrons
 Discretize the solute cavity surface with Lebedev spheres
	Using 110 Lebedev grid points for each H atom
	Using 194 Lebedev grid points for other atoms
	Atomic van der Waals radii will be scaled by 1.20
 Remove points where switching function is < 1.0e-08
 Keep 1161 surface tesserae and discard 1355 interior tesserae
 Molecular Surface Area = 135.615 Angst**2
 Requested basis set is 6-311++G(2df,2p)
 There are 114 shells and 376 basis functions
 A cutoff of  1.0D-12 yielded   6212 shell pairs
 There are     68838 function pairs (     86555 Cartesian)
 Smallest overlap matrix eigenvalue = 3.64E-06
 Guess MOs from SCF MO coefficient file

 -----------------------------------------------------------------------
  General SCF calculation program by
  Eric Jon Sundstrom, Paul Horn, Yuezhi Mao, Dmitri Zuev, Alec White,
  David Stuck, Shaama M.S., Shane Yost, Joonho Lee, David Small,
  Daniel Levine, Susi Lehtola, Hugh Burton, Evgeny Epifanovsky,
  Bang C. Huynh
 -----------------------------------------------------------------------
 Exchange:     0.1500 Hartree-Fock + 1.0000 wB97M-V + LR-HF
 Correlation:  1.0000 wB97M-V
 Using SG-2 standard quadrature grid
 Nonlocal Correlation:  VV10 with C = 0.0100 and b = 6.00 and scale = 1.00000
 Grid used for NLC:  SG-1 standard quadrature
 
 Citation of the SMD model:
 Marenich, A.V.; Cramer, C.J.; Truhlar, D.G.
 J. Phys. Chem. B 2009, 113, 6378-6396.
 iSolventCode=           1
 Solvent: water                                                           
 
 vradii
            1           2           3           4           5           6
    1   1.2000000   1.8500000   1.8500000   1.2000000   1.8500000   1.2000000
            7           8           9          10          11          12
    1   1.8500000   1.2000000   1.8500000   1.2000000   1.8500000   1.2000000
           13          14          15          16
    1   1.5200000   1.2000000   1.5200000   1.5200000
 -------------------------------------------------------
 OpenMP BLAS3 based DFT computing Module                
 Release: version 1.0, May 2013, Q-Chem Inc. Pittsburgh 
 -------------------------------------------------------
 A unrestricted SCF calculation will be
 performed using Roothaan-Hall, DIIS, GDM
 SCF converges when RMS gradient is below 1.0e-07
 ---------------------------------------
  Cycle       Energy         DIIS error
 ---------------------------------------
    1    -458.3375963341      2.18e-04  Roothaan Step
 ---------------------------------------
  Cycle       Energy         DIIS error
 ---------------------------------------
    1    -458.3617127251      2.45e-04  
    2    -458.3664071423      1.86e-04  Done DIIS. Switching to GDM
 ---------------------------------------
  Cycle       Energy        RMS Gradient
 ---------------------------------------
    1    -458.3664071423      5.95e-03   Normal BFGS step
    2    -458.3668308737      7.21e-03   Normal BFGS step
    3    -458.3682442535      5.59e-04   Normal BFGS step
    4    -458.3682591772      6.22e-04   Normal BFGS step
    5    -458.3682664569      2.04e-04   Normal BFGS step
    6    -458.3682666499      8.63e-05   Normal BFGS step
    7    -458.3682667262      4.99e-05   Normal BFGS step
    8    -458.3682667427      3.32e-05   Normal BFGS step
    9    -458.3682667472      1.27e-05   Normal BFGS step
   10    -458.3682667482      3.79e-06   Normal BFGS step
   11    -458.3682667484      2.04e-06   Normal BFGS step
   12    -458.3682667485      1.64e-06   Normal BFGS step
   13    -458.3682667485      6.62e-07   Normal BFGS step
   14    -458.3682667485      2.70e-07   Normal BFGS step
   15    -458.3682667485      1.38e-07   Normal BFGS step
   16    -458.3682667485      4.76e-08  Convergence criterion met
 ---------------------------------------
 SCF time:   CPU 1689.58s  wall 114.00s 
<S^2> =          0.780514601
(3)  G-ENP(liq) elect-nuc-pol free energy of system     -458.368266749 a.u.
(4)  G-CDS(liq) cavity-dispersion-solvent structure 
     free energy                                                2.4855 kcal/mol
(6)  G-S(liq) free energy of system                     -458.364305855 a.u.
 SCF   energy in the final basis set =     -458.3643058546
 Total energy in the final basis set =     -458.3643058546
 
 --------------------------------------------------------------
 
                    Orbital Energies (a.u.)
 --------------------------------------------------------------
 
 Alpha MOs
 -- Occupied --
-19.4004 -19.4003 -19.3481 -10.4055 -10.4052 -10.4030 -10.3540 -10.3537
-10.3489  -1.2667  -1.1709  -1.0638  -0.9728  -0.8795  -0.8432  -0.7526
 -0.7180  -0.6822  -0.6602  -0.6218  -0.5827  -0.5749  -0.5576  -0.5362
 -0.5309  -0.5121  -0.4894  -0.4744  -0.4532  -0.4274  -0.4201  -0.4002
 -0.3606  -0.2843
 -- Virtual --
  0.0243   0.0368   0.0374   0.0463   0.0571   0.0581   0.0761   0.0802
  0.0866   0.0955   0.1119   0.1199   0.1360   0.1376   0.1424   0.1440
  0.1497   0.1541   0.1568   0.1591   0.1606   0.1623   0.1693   0.1826
  0.1889   0.1947   0.1971   0.2105   0.2150   0.2323   0.2344   0.2427
  0.2475   0.2616   0.2771   0.2824   0.2961   0.3030   0.3053   0.3202
  0.3332   0.3384   0.3455   0.3570   0.3592   0.3642   0.3719   0.3785
  0.3847   0.3889   0.3945   0.4004   0.4063   0.4181   0.4277   0.4329
  0.4391   0.4642   0.4843   0.5005   0.5013   0.5423   0.5472   0.5771
  0.5861   0.5977   0.6103   0.6134   0.6331   0.6435   0.6502   0.6706
  0.6815   0.6965   0.7054   0.7161   0.7203   0.7276   0.7329   0.7486
  0.7579   0.7705   0.7741   0.7923   0.7969   0.8116   0.8166   0.8390
  0.8492   0.8554   0.8730   0.8978   0.9328   0.9545   0.9693   0.9939
  1.0246   1.0422   1.0836   1.1003   1.1117   1.1225   1.1290   1.1524
  1.1564   1.1623   1.1713   1.1944   1.2115   1.2128   1.2229   1.2288
  1.2438   1.2540   1.2655   1.2785   1.2840   1.3114   1.3250   1.3296
  1.3439   1.3498   1.3567   1.3883   1.3922   1.3986   1.4199   1.4232
  1.4555   1.4650   1.4708   1.4888   1.5007   1.5254   1.5346   1.5469
  1.5547   1.5791   1.5866   1.6164   1.6268   1.6714   1.6760   1.6832
  1.6941   1.7642   1.7781   1.8074   1.8163   1.8492   1.8577   1.8759
  1.9377   1.9485   1.9886   2.0028   2.0120   2.0796   2.1198   2.1362
  2.1551   2.2477   2.2582   2.2711   2.3082   2.3681   2.4020   2.4253
  2.5065   2.6175   2.6455   2.6813   2.7254   2.7372   2.7496   2.7596
  2.7858   2.8032   2.8308   2.8359   2.8535   2.8574   2.8775   2.8897
  2.9109   2.9332   2.9427   2.9590   2.9662   2.9859   3.0016   3.0163
  3.0402   3.0612   3.0965   3.1224   3.1722   3.1863   3.2008   3.2103
  3.2725   3.2900   3.3150   3.3426   3.3571   3.3735   3.3757   3.3888
  3.4032   3.4227   3.4437   3.4661   3.4866   3.4945   3.5141   3.5352
  3.5549   3.5813   3.6135   3.6379   3.6516   3.6572   3.6833   3.6992
  3.7188   3.7324   3.7470   3.7553   3.7773   3.7787   3.8098   3.8195
  3.8433   3.8724   3.8876   3.8959   3.9098   3.9276   3.9480   3.9921
  4.0116   4.0282   4.0419   4.0640   4.0899   4.0948   4.1017   4.1251
  4.2099   4.2596   4.2643   4.2731   4.3012   4.3083   4.3336   4.3624
  4.3801   4.3907   4.4212   4.4321   4.4653   4.4951   4.5044   4.5394
  4.5569   4.6126   4.6218   4.6240   4.6371   4.6460   4.6632   4.6920
  4.7417   4.7530   4.7840   4.8177   4.8685   4.9518   5.0067   5.1052
  5.1360   5.1656   5.2189   5.2513   5.2654   5.2900   5.2936   5.3225
  5.3439   5.3563   5.4000   5.4340   5.4601   5.4920   5.5110   5.5189
  5.5907   5.6147   5.6233   5.6304   5.6988   5.7129   5.7660   5.7681
  5.8146   5.8924   5.9282   5.9470   6.0281   6.0424   6.0686   6.1614
  6.2585   6.5962   6.6017   6.7250   6.7299   7.0210   7.1199   7.2875
  7.3023   7.3336   7.3777   7.4155   7.4389   7.4690   7.5094   7.6221
  7.7118   7.8320   7.8878   7.9270   8.2269  24.3593  24.7172  24.7304
 24.8092  24.8955  25.2047  50.5873  50.6409  50.6485
 
 Beta MOs
 -- Occupied --
-19.3991 -19.3990 -19.3482 -10.4058 -10.4048 -10.4036 -10.3520 -10.3457
-10.3455  -1.2641  -1.1706  -1.0606  -0.9657  -0.8770  -0.8279  -0.7503
 -0.7100  -0.6805  -0.6561  -0.6185  -0.5780  -0.5693  -0.5515  -0.5332
 -0.5269  -0.5083  -0.4881  -0.4692  -0.4506  -0.4201  -0.3979  -0.3899
 -0.3550
 -- Virtual --
 -0.0185   0.0236   0.0363   0.0369   0.0457   0.0568   0.0577   0.0823
  0.0854   0.0868   0.0996   0.1120   0.1211   0.1352   0.1376   0.1427
  0.1446   0.1501   0.1538   0.1574   0.1597   0.1605   0.1615   0.1700
  0.1838   0.1884   0.1949   0.1995   0.2104   0.2127   0.2321   0.2342
  0.2415   0.2481   0.2642   0.2787   0.2839   0.2982   0.3052   0.3107
  0.3226   0.3344   0.3419   0.3472   0.3569   0.3620   0.3658   0.3750
  0.3813   0.3850   0.3881   0.3951   0.4015   0.4069   0.4187   0.4292
  0.4350   0.4396   0.4657   0.4847   0.5036   0.5046   0.5445   0.5495
  0.5814   0.5901   0.6042   0.6125   0.6190   0.6322   0.6523   0.6603
  0.6730   0.6848   0.6990   0.7094   0.7191   0.7219   0.7301   0.7342
  0.7527   0.7623   0.7772   0.7793   0.7965   0.8003   0.8163   0.8201
  0.8387   0.8570   0.8641   0.8756   0.8988   0.9339   0.9552   0.9710
  0.9961   1.0260   1.0450   1.0857   1.1025   1.1120   1.1249   1.1309
  1.1548   1.1593   1.1655   1.1758   1.1968   1.2142   1.2164   1.2252
  1.2320   1.2453   1.2563   1.2658   1.2809   1.2864   1.3141   1.3278
  1.3308   1.3456   1.3525   1.3593   1.3909   1.3948   1.4009   1.4224
  1.4296   1.4602   1.4699   1.4733   1.4928   1.5046   1.5295   1.5413
  1.5513   1.5585   1.5824   1.5905   1.6191   1.6325   1.6756   1.6806
  1.6889   1.6972   1.7703   1.7791   1.8123   1.8225   1.8513   1.8612
  1.8780   1.9401   1.9546   1.9917   2.0089   2.0172   2.0827   2.1233
  2.1419   2.1576   2.2492   2.2614   2.2732   2.3093   2.3709   2.4039
  2.4281   2.5090   2.6243   2.6570   2.6837   2.7292   2.7474   2.7569
  2.7745   2.8014   2.8122   2.8403   2.8516   2.8577   2.8684   2.8879
  2.9041   2.9238   2.9478   2.9639   2.9674   2.9872   3.0045   3.0266
  3.0337   3.0479   3.0702   3.1177   3.1282   3.1929   3.1975   3.2154
  3.2202   3.2854   3.3044   3.3255   3.3519   3.3679   3.3813   3.3971
  3.3978   3.4131   3.4328   3.4535   3.4776   3.4951   3.5014   3.5293
  3.5555   3.5627   3.6009   3.6194   3.6460   3.6613   3.6724   3.6981
  3.7075   3.7225   3.7398   3.7541   3.7683   3.7892   3.7944   3.8171
  3.8276   3.8542   3.8812   3.8917   3.9011   3.9201   3.9357   3.9579
  3.9974   4.0278   4.0378   4.0484   4.0713   4.0987   4.1010   4.1075
  4.1357   4.2132   4.2676   4.2774   4.2841   4.3073   4.3156   4.3472
  4.3679   4.3872   4.3994   4.4346   4.4451   4.4716   4.5027   4.5119
  4.5457   4.5653   4.6214   4.6329   4.6379   4.6448   4.6593   4.6825
  4.6974   4.7486   4.7556   4.7945   4.8283   4.8794   4.9620   5.0179
  5.1168   5.1509   5.1746   5.2347   5.2599   5.2687   5.2918   5.2967
  5.3246   5.3462   5.3580   5.4024   5.4385   5.4638   5.5001   5.5158
  5.5291   5.5958   5.6170   5.6286   5.6442   5.7031   5.7248   5.7693
  5.7737   5.8173   5.8995   5.9286   5.9515   6.0377   6.0559   6.0767
  6.1714   6.2602   6.5993   6.6046   6.7260   6.7316   7.0240   7.1202
  7.2907   7.3041   7.3338   7.3800   7.4201   7.4401   7.4716   7.5116
  7.6269   7.7119   7.8330   7.8903   7.9300   8.2284  24.3622  24.7175
 24.7346  24.8095  24.8987  25.2077  50.5884  50.6419  50.6487
 --------------------------------------------------------------
 
          Ground-State Mulliken Net Atomic Charges

     Atom                 Charge (a.u.)    Spin (a.u.)
  --------------------------------------------------------
      1 H                     0.311058      -0.013771
      2 C                    -0.298275       0.563757
      3 C                    -0.229234      -0.153507
      4 H                     0.288801       0.006297
      5 C                    -0.336202       0.564738
      6 H                     0.306150      -0.013122
      7 C                    -0.217986      -0.021620
      8 H                     0.285052       0.004975
      9 C                    -0.091442       0.024463
     10 H                     0.276077      -0.002440
     11 C                    -0.195326      -0.020482
     12 H                     0.283933       0.004784
     13 O                    -0.434833      -0.001150
     14 H                     0.342625      -0.000457
     15 O                    -0.141855       0.028568
     16 O                    -0.148545       0.028967
  --------------------------------------------------------
  Sum of atomic charges =     0.000000
  Sum of spin   charges =     1.000000

 -----------------------------------------------------------------
                    Cartesian Multipole Moments
 -----------------------------------------------------------------
    Charge (ESU x 10^10)
                 0.0000
    Dipole Moment (Debye)
         X       0.4520      Y       3.7456      Z      -1.7176
       Tot       4.1454
    Quadrupole Moments (Debye-Ang)
        XX     -49.7117     XY      -8.5936     YY     -52.9992
        XZ       0.9971     YZ      -9.4032     ZZ     -40.3233
    Octopole Moments (Debye-Ang^2)
       XXX     117.5178    XXY     -42.4993    XYY      29.3126
       YYY    -172.5323    XXZ      34.6395    XYZ       8.2370
       YYZ      17.4012    XZZ      36.6224    YZZ     -19.7297
       ZZZ      81.6811
    Hexadecapole Moments (Debye-Ang^3)
      XXXX    -512.2606   XXXY      85.3109   XXYY    -199.8503
      XYYY     111.8356   YYYY    -760.9720   XXXZ     -66.9877
      XXYZ      27.1188   XYYZ     -19.3817   YYYZ      37.9902
      XXZZ    -167.3894   XYZZ      20.6293   YYZZ    -125.2148
      XZZZ     -69.2385   YZZZ      23.8320   ZZZZ    -437.6291
 -----------------------------------------------------------------
 Calculating analytic gradient of the SCF energy
 Gradient of CDS energy
            1           2           3           4           5           6
    1   0.0001187   0.0003269  -0.0001349  -0.0000662  -0.0004512  -0.0001779
    2  -0.0000129  -0.0000700   0.0001626   0.0000803   0.0001716   0.0000801
    3   0.0001538   0.0003460   0.0003773   0.0001819  -0.0000375   0.0000056
            7           8           9          10          11          12
    1  -0.0000526  -0.0001272   0.0007608   0.0000118   0.0001382   0.0001896
    2  -0.0002341  -0.0000052   0.0019815  -0.0001780  -0.0002539  -0.0001034
    3  -0.0002653  -0.0001753   0.0001424  -0.0001456  -0.0001894  -0.0000165
           13          14          15          16
    1  -0.0006464   0.0000866   0.0001156  -0.0000918
    2  -0.0020487   0.0004421  -0.0000384   0.0000265
    3  -0.0000816  -0.0002418   0.0000250  -0.0000792
 Gradient of SCF Energy
            1           2           3           4           5           6
    1   0.0028907  -0.0031353   0.0030717  -0.0014644   0.0067288  -0.0057807
    2  -0.0001396   0.0064795  -0.0055244   0.0017602   0.0032409   0.0029730
    3   0.0032933  -0.0032970  -0.0059651   0.0037064   0.0021282  -0.0003078
[...]
 H          0.136 -0.040  0.062   -0.057 -0.051  0.140   -0.068 -0.118  0.288
 C          0.097  0.081 -0.027   -0.171 -0.070  0.003   -0.164  0.101 -0.037
 H          0.078 -0.012  0.042   -0.269 -0.408  0.038   -0.092  0.428 -0.103
 O          0.005 -0.002  0.007    0.001 -0.025 -0.007    0.013 -0.009 -0.002
 H         -0.008 -0.051 -0.017   -0.041 -0.161 -0.073   -0.108 -0.255 -0.117
 O         -0.073 -0.111 -0.054    0.366  0.014  0.141   -0.056 -0.021 -0.007
 O         -0.022  0.149  0.005   -0.266  0.219 -0.183    0.048 -0.018  0.043
 TransDip   0.082 -0.035  0.030   -0.098 -0.247  0.034   -0.026  0.015  0.013

 Mode:                16                     17                     18
 Frequency:       883.21                 958.34                 984.69
 Force Cnst:      1.2924                 3.5626                 2.1150
 Red. Mass:       2.8121                 6.5837                 3.7021
 IR Active:          YES                    YES                    YES
 IR Intens:        1.012                 89.902                  7.917
 Raman Active:       YES                    YES                    YES
               X      Y      Z        X      Y      Z        X      Y      Z
 H         -0.075  0.214  0.186   -0.083 -0.152 -0.081   -0.047 -0.018  0.110
 C         -0.004 -0.012  0.106   -0.023  0.045 -0.104    0.014  0.022  0.058
 C         -0.095  0.027 -0.053    0.011 -0.056 -0.041   -0.032  0.017  0.015
 H         -0.349  0.100 -0.179    0.041 -0.027 -0.049   -0.200  0.070 -0.068
 C          0.144 -0.036 -0.093    0.104  0.011 -0.033    0.027 -0.027 -0.031
 H          0.051 -0.246 -0.330    0.020 -0.190  0.031    0.039 -0.001 -0.133
 C          0.072 -0.078  0.195   -0.118 -0.313  0.100    0.024  0.180  0.028
 H          0.006  0.057  0.282   -0.307 -0.350  0.201    0.205  0.417 -0.017
 C         -0.127  0.037 -0.006    0.030  0.013 -0.027   -0.022  0.007  0.008
 H         -0.453  0.115 -0.157    0.080  0.073 -0.035   -0.374  0.163 -0.188
 C          0.155  0.018 -0.062   -0.168 -0.245  0.086   -0.054 -0.246 -0.079
 H          0.148  0.024 -0.244   -0.161 -0.300  0.305   -0.110 -0.517 -0.078
 O          0.012 -0.012 -0.003    0.024  0.054 -0.010   -0.006  0.008 -0.007
 H          0.057  0.067  0.034   -0.016  0.060 -0.001   -0.027 -0.038 -0.028
 O         -0.030  0.067 -0.017   -0.113  0.290 -0.091   -0.039 -0.191 -0.002
 O         -0.052 -0.042 -0.020    0.239  0.120  0.092    0.109  0.215  0.034
 TransDip  -0.002  0.031  0.009   -0.086 -0.291 -0.011   -0.057 -0.042 -0.056

 Mode:                19                     20                     21
 Frequency:       993.89                 997.77                1026.80
 Force Cnst:      1.5155                 0.7760                 2.4424
 Red. Mass:       2.6039                 1.3229                 3.9319
 IR Active:          YES                    YES                    YES
 IR Intens:       79.356                  3.524                  6.734
 Raman Active:       YES                    YES                    YES
               X      Y      Z        X      Y      Z        X      Y      Z
 H         -0.181  0.031  0.036   -0.073 -0.229  0.068   -0.235  0.057 -0.081
 C         -0.040  0.017 -0.061    0.035  0.043  0.005   -0.132  0.029 -0.154
 C          0.053 -0.098 -0.168   -0.062 -0.125  0.046   -0.061  0.027  0.109
 H          0.127  0.045 -0.219    0.361  0.811 -0.211   -0.046  0.195  0.037
 C          0.071 -0.020 -0.005   -0.001  0.055 -0.012    0.211 -0.080  0.002
 H          0.077 -0.042  0.135   -0.122 -0.213  0.047    0.219 -0.091  0.148
 C         -0.016  0.130  0.151    0.014 -0.004 -0.009   -0.203  0.078 -0.163
 H         -0.324  0.207  0.390    0.068  0.008 -0.042   -0.559  0.008  0.050
 C          0.044 -0.010 -0.112   -0.002  0.000  0.003   -0.035 -0.011  0.110
 H         -0.032 -0.091 -0.103    0.002 -0.000  0.005    0.012  0.057  0.098
 C         -0.048  0.085  0.141   -0.001  0.004 -0.016    0.243 -0.066  0.027
 H         -0.061 -0.036  0.589    0.005  0.038 -0.076    0.238 -0.164  0.290
 O         -0.021 -0.006  0.006    0.001  0.000 -0.000    0.013  0.014  0.004
 H          0.103  0.195  0.096   -0.002 -0.006 -0.003   -0.093 -0.195 -0.093
 O          0.001 -0.075 -0.007    0.001 -0.002  0.002    0.033 -0.001  0.026
 O         -0.010 -0.015 -0.017   -0.004 -0.004 -0.001   -0.035  0.013 -0.007
 TransDip  -0.015  0.211  0.191    0.029  0.038 -0.037   -0.040 -0.073  0.007

 Mode:                22                     23                     24
 Frequency:      1074.48                1114.92                1122.28
 Force Cnst:      1.0152                 0.8198                 0.9736
 Red. Mass:       1.4925                 1.1193                 1.3120
 IR Active:          YES                    YES                    YES
 IR Intens:        4.870                  0.306                  2.948
 Raman Active:       YES                    YES                    YES
               X      Y      Z        X      Y      Z        X      Y      Z
 H          0.100 -0.037 -0.008    0.262 -0.158 -0.205   -0.515  0.328  0.355
 C          0.042 -0.011  0.035    0.018 -0.015 -0.003   -0.089  0.041  0.007
 C         -0.064  0.016 -0.051   -0.047  0.012 -0.033    0.032 -0.030 -0.056
 H         -0.373  0.109 -0.205   -0.456  0.139 -0.240    0.107 -0.052 -0.027
 C          0.020 -0.006  0.017    0.029  0.003  0.039    0.050 -0.007  0.066
 H          0.028  0.003  0.085    0.085  0.094  0.536    0.117  0.099  0.533
 C         -0.052  0.055  0.050   -0.017 -0.034 -0.009    0.038 -0.033 -0.013
 H         -0.412 -0.038  0.267    0.300  0.062 -0.195    0.185  0.003 -0.100
 C          0.114 -0.034  0.025    0.012 -0.001  0.005    0.001  0.005 -0.000
 H          0.440 -0.106  0.174   -0.195  0.085 -0.107    0.044  0.024  0.007
 C         -0.049 -0.011 -0.084   -0.006  0.037 -0.012   -0.024 -0.024 -0.046
 H         -0.020  0.171 -0.419   -0.029 -0.106  0.256   -0.003  0.115 -0.301
 O         -0.005  0.010  0.011    0.000 -0.003  0.000    0.002 -0.001 -0.001
 H         -0.104 -0.205 -0.091   -0.002 -0.014 -0.005   -0.014 -0.023 -0.011
 O          0.009 -0.003 -0.004    0.010  0.010  0.005    0.003  0.000  0.004
 O          0.010 -0.008  0.011   -0.000 -0.014  0.001   -0.005  0.006 -0.000
 TransDip  -0.030 -0.063 -0.012    0.007  0.010 -0.013    0.018 -0.017 -0.049

 Mode:                25                     26                     27
 Frequency:      1184.63                1243.21                1267.85
 Force Cnst:      1.4355                 1.5037                 1.4173
 Red. Mass:       1.7362                 1.6512                 1.4965
 IR Active:          YES                    YES                    YES
 IR Intens:       18.403                  7.359                 12.244
 Raman Active:       YES                    YES                    YES
               X      Y      Z        X      Y      Z        X      Y      Z
 H          0.035 -0.055 -0.077    0.044 -0.048 -0.036    0.080 -0.085 -0.084
 C          0.046 -0.032 -0.081    0.029 -0.014 -0.021   -0.023  0.025  0.005
 C         -0.083  0.032 -0.020   -0.031  0.004 -0.035    0.032 -0.006  0.025
 H         -0.170  0.049 -0.059   -0.030  0.017 -0.040   -0.044 -0.006 -0.003
 C          0.011  0.012  0.077   -0.025  0.015  0.060   -0.002 -0.013 -0.042
 H          0.021  0.034  0.093   -0.005  0.062  0.110    0.014  0.015  0.054
 C          0.086 -0.005 -0.031    0.157  0.027 -0.042   -0.030  0.026  0.034
 H         -0.013 -0.009  0.036   -0.311 -0.479  0.132    0.081 -0.255 -0.119
 C         -0.106  0.017 -0.024   -0.052  0.063 -0.008    0.061 -0.104 -0.015
 H          0.254 -0.433  0.303   -0.015  0.491 -0.178   -0.393 -0.206 -0.141
 C          0.040 -0.068  0.106    0.017 -0.040  0.074    0.006 -0.094  0.030
 H          0.050  0.038 -0.264    0.100  0.276  0.108    0.222  0.752 -0.021
 O         -0.008  0.008 -0.030    0.006 -0.048  0.008    0.007  0.078  0.011
 H          0.245  0.583  0.245   -0.160 -0.395 -0.155    0.034  0.117  0.025
 O         -0.012 -0.023 -0.001   -0.048 -0.022 -0.019   -0.003 -0.009 -0.005
 O         -0.001  0.035 -0.006   -0.005  0.033 -0.007   -0.037  0.035 -0.015
 TransDip   0.033  0.132  0.019   -0.080 -0.028 -0.020   -0.021 -0.109 -0.017

 Mode:                28                     29                     30
 Frequency:      1285.59                1313.93                1338.94
 Force Cnst:      1.2790                 2.2260                 1.4897
 Red. Mass:       1.3135                 2.1885                 1.4104
 IR Active:          YES                    YES                    YES
 IR Intens:       13.152                154.396                 47.934
 Raman Active:       YES                    YES                    YES
               X      Y      Z        X      Y      Z        X      Y      Z
 H          0.017 -0.023 -0.006   -0.010  0.030  0.019   -0.188  0.131  0.185
 C          0.029 -0.010 -0.015    0.026 -0.028 -0.011    0.034 -0.013 -0.004
 C         -0.026  0.009 -0.021   -0.056  0.015 -0.039    0.043 -0.017  0.008
 H          0.013 -0.043  0.016    0.121 -0.030  0.045   -0.272  0.081 -0.150
 C          0.002  0.019  0.027    0.000  0.014  0.057   -0.007  0.012  0.053
 H         -0.029 -0.037 -0.100   -0.004  0.010  0.013   -0.039 -0.039 -0.249
 C         -0.047 -0.076 -0.016    0.065 -0.026 -0.070    0.001  0.017  0.026
 H          0.134  0.739  0.090   -0.180  0.124  0.134    0.201 -0.150 -0.154
 C         -0.030 -0.017 -0.053   -0.061 -0.167 -0.066   -0.105 -0.038 -0.044
 H          0.252  0.358 -0.116   -0.406 -0.413 -0.091    0.378 -0.196  0.200
 C         -0.003 -0.052  0.069   -0.009  0.069  0.054    0.008 -0.022 -0.095
 H          0.099  0.373 -0.038   -0.133 -0.353 -0.220    0.079  0.119  0.576
 O          0.018  0.009  0.003    0.053  0.152  0.077    0.025  0.048  0.026
 H         -0.068 -0.147 -0.070   -0.188 -0.446 -0.227   -0.078 -0.187 -0.092
 O          0.037 -0.003  0.027    0.004  0.010  0.003   -0.006  0.001 -0.006
 O         -0.025  0.011 -0.010    0.021 -0.002 -0.002   -0.005  0.011  0.002
 TransDip  -0.051 -0.100 -0.028   -0.181 -0.351 -0.046   -0.069 -0.211 -0.006

 Mode:                31                     32                     33
 Frequency:      1361.52                1376.99                1437.92
 Force Cnst:      1.8114                 2.1196                 2.4531
 Red. Mass:       1.6584                 1.8973                 2.0137
 IR Active:          YES                    YES                    YES
 IR Intens:       13.027                 23.955                 19.287
 Raman Active:       YES                    YES                    YES
               X      Y      Z        X      Y      Z        X      Y      Z
 H         -0.160  0.091  0.071    0.306 -0.231 -0.303   -0.132  0.047 -0.038
 C          0.034 -0.044 -0.082   -0.111  0.063  0.048   -0.087  0.020 -0.057
 C         -0.019  0.011  0.009    0.040 -0.013  0.019    0.213 -0.068  0.101
 H         -0.138  0.061 -0.061    0.169 -0.043  0.077   -0.690  0.216 -0.354
 C          0.056 -0.013  0.060   -0.015 -0.036 -0.123   -0.093  0.038 -0.021
 H          0.010 -0.107 -0.343    0.061  0.086  0.367   -0.115  0.026 -0.106
 C         -0.101  0.062  0.061    0.006  0.041  0.106    0.051 -0.033 -0.029
 H          0.396 -0.374 -0.399    0.199 -0.121 -0.061   -0.184  0.162  0.181
 C          0.035 -0.005 -0.053   -0.112 -0.035 -0.084   -0.007 -0.026  0.011
 H          0.055  0.227 -0.144    0.527  0.070  0.106   -0.075  0.110 -0.071
 C         -0.017  0.044  0.131    0.068 -0.016  0.042    0.019  0.019  0.058
 H         -0.094 -0.136 -0.414    0.015 -0.189 -0.238   -0.038 -0.125 -0.281
 O          0.000 -0.007  0.006    0.025  0.031  0.020    0.003  0.006 -0.004
 H         -0.046 -0.111 -0.044   -0.082 -0.199 -0.094    0.017  0.045  0.015
 O          0.002 -0.005 -0.009   -0.007 -0.004 -0.011    0.000  0.003  0.001
 O          0.005 -0.007 -0.008   -0.000  0.009 -0.006    0.001 -0.002 -0.001
 TransDip  -0.040  0.107  0.015    0.041 -0.127  0.083   -0.131  0.022 -0.047

 Mode:                34                     35                     36
 Frequency:      1456.74                1508.07                3104.49
 Force Cnst:      2.6269                 3.7673                 6.1731
 Red. Mass:       2.1010                 2.8115                 1.0871
 IR Active:          YES                    YES                    YES
 IR Intens:       31.180                 15.549                 33.121
 Raman Active:       YES                    YES                    YES
               X      Y      Z        X      Y      Z        X      Y      Z
 H         -0.081  0.037  0.054    0.363 -0.264 -0.357    0.001 -0.000  0.001
 C          0.032 -0.020 -0.043   -0.177  0.113  0.110   -0.000 -0.000  0.000
 C          0.008  0.014  0.063    0.058 -0.070 -0.156    0.000 -0.000 -0.000
 H         -0.093  0.032  0.028    0.062 -0.080 -0.183   -0.001  0.001  0.003
 C         -0.021 -0.006 -0.076    0.053  0.041  0.225   -0.000  0.000  0.000
 H         -0.003  0.033  0.147   -0.034 -0.134 -0.538   -0.001  0.000 -0.000
 C         -0.017 -0.029  0.023   -0.022 -0.020 -0.057    0.004 -0.002  0.006
 H          0.084  0.153  0.002    0.076 -0.007 -0.130   -0.048  0.023 -0.074
 C          0.054  0.238 -0.109    0.024  0.096 -0.014    0.027 -0.030 -0.074
 H         -0.207 -0.671  0.172   -0.119 -0.270  0.080   -0.317  0.366  0.861
 C          0.013 -0.039  0.053    0.049 -0.042 -0.018   -0.007  0.001  0.001
 H          0.049  0.095 -0.031    0.060 -0.013 -0.135    0.085 -0.018 -0.005
 O         -0.013 -0.054  0.049   -0.008 -0.024  0.011    0.000 -0.000  0.001
 H         -0.179 -0.484 -0.165   -0.041 -0.118 -0.036   -0.005 -0.002 -0.004
 O         -0.002 -0.011  0.005    0.001 -0.006  0.004    0.000  0.000  0.000
 O         -0.010 -0.002 -0.001   -0.006 -0.002 -0.000   -0.000  0.000 -0.000
 TransDip   0.080  0.127 -0.098    0.063  0.019 -0.108    0.042 -0.107 -0.144

 Mode:                37                     38                     39
 Frequency:      3144.77                3148.76                3191.31
 Force Cnst:      6.3347                 6.3694                 6.5364
 Red. Mass:       1.0872                 1.0904                 1.0893
 IR Active:          YES                    YES                    YES
 IR Intens:       14.015                 10.447                  7.865
 Raman Active:       YES                    YES                    YES
               X      Y      Z        X      Y      Z        X      Y      Z
 H         -0.023  0.003 -0.027   -0.033  0.005 -0.039   -0.118  0.012 -0.155
 C          0.002 -0.000  0.002    0.003 -0.001  0.003    0.008  0.000  0.013
 C          0.000 -0.000  0.000    0.000 -0.000 -0.000    0.026 -0.032 -0.072
 H         -0.000 -0.000 -0.001   -0.001  0.001  0.003   -0.302  0.365  0.827
 C          0.003 -0.001  0.001   -0.004  0.001 -0.001   -0.015  0.007  0.003
 H         -0.041  0.018 -0.001    0.044 -0.019  0.001    0.194 -0.088 -0.008
 C         -0.035  0.014 -0.052    0.031 -0.012  0.045   -0.001  0.000 -0.001
 H          0.410 -0.172  0.610   -0.348  0.146 -0.517    0.010 -0.004  0.015
 C          0.001 -0.001 -0.001   -0.004  0.003  0.010    0.000  0.000 -0.000
 H         -0.005  0.005  0.010    0.041 -0.043 -0.109   -0.000 -0.000 -0.000
 C         -0.053  0.015  0.003   -0.063  0.017  0.003    0.001 -0.000  0.000
 H          0.627 -0.160 -0.032    0.726 -0.185 -0.037   -0.016  0.004  0.001
 O         -0.000  0.000 -0.000    0.000  0.000 -0.000    0.000 -0.000  0.000
 H         -0.000 -0.000  0.001    0.001  0.002  0.000   -0.000 -0.000 -0.000
 O          0.000  0.001 -0.000    0.001 -0.001  0.001   -0.000 -0.000 -0.000
 O         -0.000 -0.001  0.000   -0.001 -0.000 -0.001    0.000 -0.000 -0.000
 TransDip  -0.098  0.032 -0.061   -0.050  0.013  0.089    0.025 -0.036 -0.078

 Mode:                40                     41                     42
 Frequency:      3221.93                3228.77                3834.89
 Force Cnst:      6.6676                 6.7330                 9.2442
 Red. Mass:       1.0902                 1.0962                 1.0669
 IR Active:          YES                    YES                    YES
 IR Intens:       12.444                  7.081                156.172
 Raman Active:       YES                    YES                    YES
               X      Y      Z        X      Y      Z        X      Y      Z
 H          0.336 -0.037  0.434    0.494 -0.055  0.635    0.000  0.000  0.000
 C         -0.028  0.003 -0.038   -0.045  0.006 -0.055    0.000 -0.000 -0.000
 C         -0.000  0.002  0.007    0.009 -0.011 -0.023   -0.000  0.000  0.000
 H          0.019 -0.026 -0.064   -0.088  0.106  0.240   -0.000  0.000  0.000
 C         -0.066  0.030  0.002    0.042 -0.018  0.001    0.000 -0.000 -0.000
 H          0.753 -0.339 -0.022   -0.466  0.209  0.012   -0.000  0.000  0.000
 C         -0.002 -0.000 -0.005    0.001  0.000  0.004    0.000 -0.000  0.000
 H          0.025 -0.009  0.042   -0.019  0.007 -0.031   -0.000  0.000 -0.001
 C          0.001 -0.000 -0.000   -0.001 -0.000  0.001   -0.001 -0.001 -0.001
 H         -0.002  0.001  0.001    0.003 -0.003 -0.009   -0.002 -0.003  0.003
 C         -0.002  0.001  0.001   -0.005  0.002  0.002   -0.000 -0.000  0.000
 H          0.027 -0.008 -0.003    0.050 -0.015 -0.006    0.000  0.000 -0.000
 O         -0.000 -0.000 -0.000    0.000  0.000 -0.000   -0.009  0.032 -0.053
 H          0.000 -0.000  0.000    0.000  0.000 -0.000    0.149 -0.482  0.861
 O          0.000  0.000 -0.000    0.000 -0.000  0.000   -0.000 -0.000  0.000
 O         -0.000 -0.000  0.000   -0.000  0.000  0.000    0.000 -0.000  0.000
 TransDip  -0.103  0.036 -0.030    0.009 -0.023 -0.082    0.014 -0.261  0.303

 STANDARD THERMODYNAMIC QUANTITIES AT   298.15 K  AND     1.00 ATM

   This Molecule has  0 Imaginary Frequencies
   Zero point vibrational energy:       78.042 kcal/mol

   Atom    1 Element H  Has Mass    1.00783
   Atom    2 Element C  Has Mass   12.00000
   Atom    3 Element C  Has Mass   12.00000
   Atom    4 Element H  Has Mass    1.00783
   Atom    5 Element C  Has Mass   12.00000
   Atom    6 Element H  Has Mass    1.00783
   Atom    7 Element C  Has Mass   12.00000
   Atom    8 Element H  Has Mass    1.00783
   Atom    9 Element C  Has Mass   12.00000
   Atom   10 Element H  Has Mass    1.00783
   Atom   11 Element C  Has Mass   12.00000
   Atom   12 Element H  Has Mass    1.00783
   Atom   13 Element O  Has Mass   15.99491
   Atom   14 Element H  Has Mass    1.00783
   Atom   15 Element O  Has Mass   15.99491
   Atom   16 Element O  Has Mass   15.99491
   Molecular Mass:   127.039540 amu
   Principal axes and moments of inertia in amu*Bohr^2:
                             1           2           3
    Eigenvalues --      805.07743   901.13421   980.37756
          X               0.26661    -0.44691     0.85393
          Y               0.95851     0.03024    -0.28344
          Z               0.10085     0.89407     0.43643
   Rotational Symmetry Number is   1
   The Molecule is an Asymmetric Top
   Translational Enthalpy:        0.889 kcal/mol
   Rotational Enthalpy:           0.889 kcal/mol
   Vibrational Enthalpy:         80.821 kcal/mol
   gas constant (RT):             0.592 kcal/mol
   Translational Entropy:        40.431  cal/mol.K
   Rotational Entropy:           28.055  cal/mol.K
   Vibrational Entropy:          14.717  cal/mol.K

   Total Enthalpy:               83.191 kcal/mol
   Total Entropy:                83.203  cal/mol.K
 Total job time:  13933.78s(wall), 201895.20s(cpu) 
 Tue May 14 13:42:53 2024

        *************************************************************
        *                                                           *
        *  Thank you very much for using Q-Chem.  Have a nice day.  *
        *                                                           *
        *************************************************************


