
Running Job 1 of 1 Q_in.in
qchem Q_in.in_9312.0 /scratch/ari.fischer/qChem1914445.hpc-mn1/qchem9312/ 0
/usr/local/qchem-5.4.1/exe/qcprog.exe_s Q_in.in_9312.0 /scratch/ari.fischer/qChem1914445.hpc-mn1/qchem9312/
                  Welcome to Q-Chem
     A Quantum Leap Into The Future Of Chemistry


 Q-Chem 5.4, Q-Chem, Inc., Pleasanton, CA (2021)

 License issued to: Nanyang Technological University (site)

 E. Epifanovsky,  A. T. B. Gilbert,  Xintian Feng,  Joonho Lee,  Yuezhi Mao,  
 N. Mardirossian,  P. Pokhilko,  A. White,  M. Wormit,  M. P. Coons,  
 A. L. Dempwolff,  Zhengting Gan,  D. Hait,  P. R. Horn,  L. D. Jacobson,  
 I. Kaliman,  J. Kussmann,  A. W. Lange,  Ka Un Lao,  D. S. Levine,  Jie Liu,  
 S. C. McKenzie,  A. F. Morrison,  K. Nanda,  F. Plasser,  D. R. Rehn,  
 M. L. Vidal,  Zhi-Qiang You,  Ying Zhu,  B. Alam,  B. Albrecht,  
 A. Aldossary,  E. Alguire,  J. H. Andersen,  D. Barton,  K. Begam,  A. Behn,  
 Y. A. Bernard,  E. J. Berquist,  H. Burton,  A. Carreras,  K. Carter-Fenk,  
 R. Chakraborty,  A. D. Chien,  K. D. Closser,  V. Cofer-Shabica,  
 S. Dasgupta,  Jia Deng,  M. de Wergifosse,  M. Diedenhofen,  Hainam Do,  
 S. Ehlert,  Po-Tung Fang,  S. Fatehi,  Qingguo Feng,  T. Friedhoff,  
 J. Gayvert,  Qinghui Ge,  G. Gidofalvi,  M. Goldey,  J. Gomes,  
 C. Gonzalez-Espinoza,  S. Gulania,  A. Gunina,  M. W. D. Hanson-Heine,  
 P. H. P. Harbach,  A. W. Hauser,  M. F. Herbst,  M. Hernandez Vera,  
 M. Hodecker,  Z. C. Holden,  S. Houck,  Xunkun Huang,  Kerwin Hui,  
 B. C. Huynh,  M. Ivanov,  Hyunjun Ji,  Hanjie Jiang,  B. Kaduk,  S. Kaehler,  
 K. Khistyaev,  Jaehoon Kim,  P. Klunzinger,  Z. Koczor-Benda,  
 Joong Hoon Koh,  D. Kosenkov,  L. Koulias,  T. Kowalczyk,  C. M. Krauter,  
 K. Kue,  A. Kunitsa,  T. Kus,  A. Landau,  K. V. Lawler,  D. Lefrancois,  
 S. Lehtola,  Rain Li,  Yi-Pei Li,  Jiashu Liang,  M. Liebenthal,  
 Hung-Hsuan Lin,  You-Sheng Lin,  Fenglai Liu,  Kuan-Yu Liu,  
 M. Loipersberger,  A. Luenser,  A. Manjanath,  P. Manohar,  E. Mansoor,  
 S. F. Manzer,  Shan-Ping Mao,  A. V. Marenich,  T. Markovich,  S. Mason,  
 S. A. Maurer,  P. F. McLaughlin,  M. F. S. J. Menger,  J.-M. Mewes,  
 S. A. Mewes,  P. Morgante,  J. W. Mullinax,  K. J. Oosterbaan,  G. Paran,  
 Alexander C. Paul,  Suranjan K. Paul,  F. Pavosevic,  Zheng Pei,  S. Prager,  
 E. I. Proynov,  E. Ramos,  B. Rana,  A. E. Rask,  A. Rettig,  R. M. Richard,  
 F. Rob,  E. Rossomme,  T. Scheele,  M. Scheurer,  M. Schneider,  
 N. Sergueev,  S. M. Sharada,  W. Skomorowski,  D. W. Small,  C. J. Stein,  
 Yu-Chuan Su,  E. J. Sundstrom,  Zhen Tao,  J. Thirman,  T. Tsuchimochi,  
 N. M. Tubman,  S. P. Veccham,  O. Vydrov,  J. Wenzel,  J. Witte,  A. Yamada,  
 Kun Yao,  S. Yeganeh,  S. R. Yost,  A. Zech,  Igor Ying Zhang,  Xing Zhang,  
 Yu Zhang,  D. Zuev,  A. Aspuru-Guzik,  A. T. Bell,  N. A. Besley,  
 K. B. Bravaya,  B. R. Brooks,  D. Casanova,  Jeng-Da Chai,  S. Coriani,  
 C. J. Cramer,  A. E. DePrince, III,  R. A. DiStasio Jr.,  A. Dreuw,  
 B. D. Dunietz,  T. R. Furlani,  W. A. Goddard III,  S. Grimme,  
 S. Hammes-Schiffer,  T. Head-Gordon,  W. J. Hehre,  Chao-Ping Hsu,  
 T.-C. Jagau,  Yousung Jung,  A. Klamt,  Jing Kong,  D. S. Lambrecht,  
 WanZhen Liang,  N. J. Mayhall,  C. W. McCurdy,  J. B. Neaton,  
 C. Ochsenfeld,  J. A. Parkhill,  R. Peverati,  V. A. Rassolov,  Yihan Shao,  
 L. V. Slipchenko,  T. Stauch,  R. P. Steele,  J. E. Subotnik,  
 A. J. W. Thom,  A. Tkatchenko,  D. G. Truhlar,  T. Van Voorhis,  
 T. A. Wesolowski,  K. B. Whaley,  H. L. Woodcock III,  P. M. Zimmerman,  
 S. Faraji,  P. M. W. Gill,  M. Head-Gordon,  J. M. Herbert,  A. I. Krylov

 Additional authors for Version 5.4.1: 
 S. Kotaru,  Shaozhi Li,  Xiangyuan Li,  F. Matz,  A. Molle,  Haisheng Ren,  
 Yingli Su,  Hung-Yi Tsai,  C. Utku,  Fang Wang

 Contributors to earlier versions of Q-Chem not listed above: 
 R. D. Adamson,  B. Austin,  R. Baer,  J. Baker,  G. J. O. Beran,  
 K. Brandhorst,  S. T. Brown,  E. F. C. Byrd,  A. K. Chakraborty,  
 G. K. L. Chan,  Chun-Min Chang,  Yunqing Chen,  C.-L. Cheng,  
 Siu Hung Chien,  D. M. Chipman,  D. L. Crittenden,  H. Dachsel,  
 R. J. Doerksen,  A. D. Dutoi,  R. G. Edgar,  J. Fosso-Tande,  
 L. Fusti-Molnar,  D. Ghosh,  A. Ghysels,  A. Golubeva-Zadorozhnaya,  
 J. Gonthier,  M. S. Gordon,  S. R. Gwaltney,  G. Hawkins,  J. E. Herr,  
 A. Heyden,  S. Hirata,  E. G. Hohenstein,  G. Kedziora,  F. J. Keil,  
 C. Kelley,  Jihan Kim,  R. A. King,  R. Z. Khaliullin,  P. P. Korambath,  
 W. Kurlancheek,  A. Laurent,  A. M. Lee,  M. S. Lee,  S. V. Levchenko,  
 Ching Yeh Lin,  D. Liotard,  E. Livshits,  R. C. Lochan,  I. Lotan,  
 L. A. Martinez-Martinez,  P. E. Maslen,  N. Nair,  D. P. O'Neill,  
 D. Neuhauser,  E. Neuscamman,  C. M. Oana,  R. Olivares-Amaya,  R. Olson,  
 T. M. Perrine,  B. Peters,  P. A. Pieniazek,  A. Prociuk,  Y. M. Rhee,  
 J. Ritchie,  M. A. Rohrdanz,  E. Rosta,  N. J. Russ,  H. F. Schaefer III,  
 M. W. Schmidt,  N. E. Schultz,  S. Sharma,  N. Shenvi,  C. D. Sherrill,  
 A. C. Simmonett,  A. Sodt,  T. Stein,  D. Stuck,  K. S. Thanthiriwatte,  
 V. Vanovschi,  L. Vogt,  Tao Wang,  A. Warshel,  M. A. Watson,  
 C. F. Williams,  Q. Wu,  X. Xu,  Jun Yang,  W. Zhang,  Yan Zhao

 Please cite Q-Chem as follows:
 Y. Shao et al., Mol. Phys. 113, 184-215 (2015)
 DOI: 10.1080/00268976.2014.952696

 Q-Chem 5.4.1 for Intel X86 EM64T Linux

 Parts of Q-Chem use Armadillo 9.800.1 (Horizon Scraper).
 http://arma.sourceforge.net/

 Q-Chem begins on Tue Feb  6 21:49:56 2024  

 Host: 
0

     Scratch files written to /scratch/ari.fischer/qChem1914445.hpc-mn1/qchem9312//
 Aug1521 |scratch|qcdevops|jenkins|workspace|build_RNUM 8249   
 Processing $rem in /usr/local/qchem-5.4.1/config/preferences:
 Processing $rem in /home/ari.fischer/.qchemrc:
 Symmetry turned off for PCM/SM12/SMD calculation

 Checking the input file for inconsistencies... 	...done.

--------------------------------------------------------------
User input:
--------------------------------------------------------------
$molecule
0 2
H         0.5273481328    1.0602979496    1.6148240282
C        -0.1303467889    1.1355652055    0.7560717843
C        -1.3838129386    1.7264163305    0.8364153650
H        -1.7278103560    2.1448730587    1.7792276545
C        -2.1979016224    1.7861578746   -0.2861270718
H        -3.1863144259    2.2314246376   -0.2560875565
C        -1.6851021183    1.1715818243   -1.5544428340
H        -2.2793006330    1.4184920032   -2.4361716321
C        -0.1800849955    1.4254019250   -1.7264972292
H         0.1629600815    1.0006358305   -2.6755720884
C         0.2821254422    0.5490876100   -0.5624422398
H         1.3368246597    0.2725341943   -0.6107463909
O         0.2386586399    2.7605594299   -1.5646496832
H        -0.0027950787    3.2341924898   -2.3770580432
O        -1.7153710384   -0.2711056637   -1.4652114372
O        -0.4478292604   -0.6719661998   -0.8189627256
$end

$rem
BASIS = 6-311++G(2df,2p)
GUI = 2
JOB_TYPE = Optimization
METHOD = wB97M-V
SCF_ALGORITHM = DIIS_GDM
MAX_SCF_CYCLES = 400
GEOM_OPT_MAX_CYCLES = 150
SCF_CONVERGENCE = 7
THRESH = 12
Solvent_method = SMD
$end
--------------------------------------------------------------
 ----------------------------------------------------------------
             Standard Nuclear Orientation (Angstroms)
    I     Atom           X                Y                Z
 ----------------------------------------------------------------
    1      H       0.5273481328     1.0602979496     1.6148240282
    2      C      -0.1303467889     1.1355652055     0.7560717843
    3      C      -1.3838129386     1.7264163305     0.8364153650
    4      H      -1.7278103560     2.1448730587     1.7792276545
    5      C      -2.1979016224     1.7861578746    -0.2861270718
    6      H      -3.1863144259     2.2314246376    -0.2560875565
    7      C      -1.6851021183     1.1715818243    -1.5544428340
    8      H      -2.2793006330     1.4184920032    -2.4361716321
    9      C      -0.1800849955     1.4254019250    -1.7264972292
   10      H       0.1629600815     1.0006358305    -2.6755720884
   11      C       0.2821254422     0.5490876100    -0.5624422398
   12      H       1.3368246597     0.2725341943    -0.6107463909
   13      O       0.2386586399     2.7605594299    -1.5646496832
   14      H      -0.0027950787     3.2341924898    -2.3770580432
   15      O      -1.7153710384    -0.2711056637    -1.4652114372
   16      O      -0.4478292604    -0.6719661998    -0.8189627256
 ----------------------------------------------------------------
 Nuclear Repulsion Energy =         476.65657209 hartrees
 There are       34 alpha and       33 beta electrons
 Requested basis set is 6-311++G(2df,2p)
 There are 114 shells and 376 basis functions

 Total QAlloc Memory Limit 288000 MB
 Mega-Array Size       188 MB
 MEM_STATIC part       192 MB
 
 Citation of the SMD model:
 Marenich, A.V.; Cramer, C.J.; Truhlar, D.G.
 J. Phys. Chem. B 2009, 113, 6378-6396.
 iSolventCode=           1
 Solvent: water                                                           
 
 vradii
            1           2           3           4           5           6
    1   1.2000000   1.8500000   1.8500000   1.2000000   1.8500000   1.2000000
            7           8           9          10          11          12
    1   1.8500000   1.2000000   1.8500000   1.2000000   1.8500000   1.2000000
           13          14          15          16
    1   1.5200000   1.2000000   1.5200000   1.5200000
 Changing PCM_VDW_RADII to SMD_RADIUS
 Discretize the solute cavity surface with Lebedev spheres
	Using 110 Lebedev grid points for each H atom
	Using 194 Lebedev grid points for other atoms
	Atomic van der Waals radii will be scaled by 1.20
 Remove points where switching function is < 1.0e-08
 Keep 1161 surface tesserae and discard 1355 interior tesserae
 Molecular Surface Area = 136.023 Angst**2
 A cutoff of  1.0D-12 yielded   6205 shell pairs
 There are     68775 function pairs (     86475 Cartesian)
 Smallest overlap matrix eigenvalue = 3.76E-06

 Scale SEOQF with 1.000000e-01/1.000000e-01/1.000000e-01

 Standard Electronic Orientation quadrupole field applied
 Nucleus-field energy     =     0.0000000032 hartrees
 Guess from superposition of atomic densities
 Warning:  Energy on first SCF cycle will be non-variational
 SAD guess density has 67.000000 electrons

 -----------------------------------------------------------------------
  General SCF calculation program by
  Eric Jon Sundstrom, Paul Horn, Yuezhi Mao, Dmitri Zuev, Alec White,
  David Stuck, Shaama M.S., Shane Yost, Joonho Lee, David Small,
  Daniel Levine, Susi Lehtola, Hugh Burton, Evgeny Epifanovsky,
  Bang C. Huynh
 -----------------------------------------------------------------------
 Exchange:     0.1500 Hartree-Fock + 1.0000 wB97M-V + LR-HF
 Correlation:  1.0000 wB97M-V
 Using SG-2 standard quadrature grid
 Nonlocal Correlation:  VV10 with C = 0.0100 and b = 6.00 and scale = 1.00000
 Grid used for NLC:  SG-1 standard quadrature
 
 Citation of the SMD model:
 Marenich, A.V.; Cramer, C.J.; Truhlar, D.G.
 J. Phys. Chem. B 2009, 113, 6378-6396.
 iSolventCode=           1
 Solvent: water                                                           
 
 vradii
            1           2           3           4           5           6
    1   1.2000000   1.8500000   1.8500000   1.2000000   1.8500000   1.2000000
            7           8           9          10          11          12
    1   1.8500000   1.2000000   1.8500000   1.2000000   1.8500000   1.2000000
           13          14          15          16
    1   1.5200000   1.2000000   1.5200000   1.5200000
 using 8 threads for integral computing
 -------------------------------------------------------
 OpenMP Integral computing Module                
 Release: version 1.0, May 2013, Q-Chem Inc. Pittsburgh 
 -------------------------------------------------------
 -------------------------------------------------------
 OpenMP BLAS3 based DFT computing Module                
 Release: version 1.0, May 2013, Q-Chem Inc. Pittsburgh 
 -------------------------------------------------------
 A unrestricted SCF calculation will be
 performed using DIIS, GDM
 SCF converges when RMS gradient is below 1.0e-07
 ---------------------------------------
  Cycle       Energy         DIIS error
 ---------------------------------------
    1    -460.8194965273      1.29e-02  
    2    -458.2859447793      1.11e-03  Done DIIS. Switching to GDM
 ---------------------------------------
  Cycle       Energy        RMS Gradient
 ---------------------------------------
    1    -458.2859447793      3.95e-02   Descent step
    2    -458.3527101618      2.03e-02   Normal BFGS step
    3    -458.3657531257      7.12e-03   Normal BFGS step
    4    -458.3674350145      4.76e-03   Normal BFGS step
    5    -458.3678174821      2.47e-03   Normal BFGS step
    6    -458.3679169893      7.05e-04   Normal BFGS step
    7    -458.3679263476      3.04e-04   Normal BFGS step
    8    -458.3679285776      1.92e-04   Normal BFGS step
    9    -458.3679291062      6.11e-05   Normal BFGS step
   10    -458.3679291921      5.18e-05   Normal BFGS step
   11    -458.3679292160      1.81e-05   Normal BFGS step
   12    -458.3679292190      1.15e-05   Normal BFGS step
   13    -458.3679292206      5.69e-06   Normal BFGS step
   14    -458.3679292210      3.26e-06   Normal BFGS step
   15    -458.3679292211      1.65e-06   Normal BFGS step
   16    -458.3679292212      4.15e-07   Normal BFGS step
   17    -458.3679292211      1.73e-07   Normal BFGS step
   18    -458.3679292212      7.04e-08  Convergence criterion met
 ---------------------------------------
 SCF time:   CPU 1622.73s  wall 206.00s 
<S^2> =          0.781432161
(3)  G-ENP(liq) elect-nuc-pol free energy of system     -458.367929221 a.u.
(4)  G-CDS(liq) cavity-dispersion-solvent structure 
     free energy                                                2.5010 kcal/mol
(6)  G-S(liq) free energy of system                     -458.363943650 a.u.
 SCF   energy in the final basis set =     -458.3639436497
 Total energy in the final basis set =     -458.3639436497
 
 --------------------------------------------------------------
 
                    Orbital Energies (a.u.)
 --------------------------------------------------------------
 
 Alpha MOs
 -- Occupied --
-19.4010 -19.4008 -19.3495 -10.4070 -10.4068 -10.4049 -10.3558 -10.3556
-10.3508  -1.2629  -1.1703  -1.0640  -0.9704  -0.8776  -0.8423  -0.7509
 -0.7174  -0.6796  -0.6584  -0.6200  -0.5813  -0.5741  -0.5560  -0.5357
 -0.5295  -0.5135  -0.4889  -0.4752  -0.4506  -0.4276  -0.4198  -0.3991
 -0.3623  -0.2848
 -- Virtual --
  0.0243   0.0368   0.0374   0.0460   0.0571   0.0579   0.0747   0.0780
  0.0864   0.0955   0.1120   0.1180   0.1359   0.1375   0.1423   0.1440
  0.1494   0.1538   0.1567   0.1587   0.1603   0.1621   0.1694   0.1816
  0.1887   0.1943   0.1969   0.2103   0.2149   0.2313   0.2336   0.2423
  0.2473   0.2612   0.2757   0.2823   0.2947   0.3019   0.3034   0.3177
  0.3320   0.3366   0.3457   0.3563   0.3567   0.3620   0.3711   0.3790
  0.3848   0.3878   0.3930   0.3988   0.4055   0.4196   0.4273   0.4307
  0.4367   0.4639   0.4837   0.4982   0.4991   0.5408   0.5461   0.5770
  0.5852   0.5960   0.6080   0.6110   0.6320   0.6438   0.6492   0.6712
  0.6804   0.6960   0.7038   0.7127   0.7179   0.7253   0.7311   0.7484
  0.7547   0.7688   0.7736   0.7907   0.7943   0.8105   0.8166   0.8380
  0.8480   0.8548   0.8709   0.8955   0.9374   0.9585   0.9630   0.9890
  1.0207   1.0378   1.0823   1.0997   1.1095   1.1207   1.1276   1.1520
  1.1528   1.1595   1.1707   1.1940   1.2098   1.2133   1.2220   1.2301
  1.2420   1.2535   1.2639   1.2755   1.2825   1.3095   1.3207   1.3285
  1.3423   1.3489   1.3554   1.3857   1.3904   1.3953   1.4174   1.4187
  1.4528   1.4633   1.4661   1.4860   1.4995   1.5237   1.5306   1.5436
  1.5521   1.5750   1.5825   1.6135   1.6215   1.6682   1.6724   1.6765
  1.6966   1.7613   1.7757   1.8065   1.8133   1.8453   1.8561   1.8702
  1.9332   1.9426   1.9868   1.9998   2.0067   2.0757   2.1119   2.1324
  2.1493   2.2409   2.2591   2.2685   2.3044   2.3681   2.3983   2.4199
  2.5058   2.6201   2.6458   2.6797   2.7301   2.7381   2.7433   2.7618
  2.7848   2.8037   2.8277   2.8356   2.8497   2.8542   2.8747   2.8857
  2.9105   2.9309   2.9383   2.9572   2.9631   2.9826   2.9987   3.0119
  3.0361   3.0584   3.0890   3.1155   3.1684   3.1813   3.1973   3.2043
  3.2702   3.2904   3.3151   3.3362   3.3539   3.3675   3.3782   3.3828
  3.3973   3.4214   3.4391   3.4625   3.4850   3.4914   3.5102   3.5350
  3.5504   3.5764   3.6130   3.6329   3.6468   3.6522   3.6805   3.6972
  3.7196   3.7332   3.7427   3.7496   3.7721   3.7768   3.8070   3.8094
  3.8384   3.8695   3.8818   3.8947   3.9045   3.9177   3.9435   3.9818
  4.0018   4.0190   4.0354   4.0623   4.0823   4.0848   4.0932   4.1196
  4.2001   4.2535   4.2561   4.2647   4.2891   4.2989   4.3239   4.3470
  4.3714   4.3800   4.4134   4.4258   4.4568   4.4844   4.4976   4.5312
  4.5473   4.5996   4.6080   4.6110   4.6284   4.6357   4.6494   4.6870
  4.7332   4.7430   4.7708   4.8062   4.8548   4.9463   4.9926   5.1010
  5.1242   5.1549   5.2114   5.2445   5.2637   5.2832   5.2882   5.3177
  5.3404   5.3531   5.3986   5.4251   5.4560   5.4827   5.4996   5.5094
  5.5867   5.6016   5.6134   5.6342   5.6825   5.6973   5.7463   5.7542
  5.8003   5.8788   5.9079   5.9347   6.0041   6.0187   6.0499   6.1362
  6.2337   6.5870   6.5918   6.6950   6.7184   7.0142   7.1155   7.2691
  7.2886   7.3246   7.3723   7.4103   7.4369   7.4611   7.4928   7.6165
  7.6948   7.8265   7.8745   7.9181   8.2276  24.3480  24.7013  24.7123
 24.7888  24.8730  25.1716  50.5815  50.6404  50.6454
 
 Beta MOs
 -- Occupied --
-19.3997 -19.3995 -19.3495 -10.4074 -10.4063 -10.4054 -10.3540 -10.3475
-10.3473  -1.2603  -1.1701  -1.0609  -0.9632  -0.8752  -0.8271  -0.7486
 -0.7094  -0.6779  -0.6542  -0.6166  -0.5764  -0.5686  -0.5502  -0.5327
 -0.5256  -0.5098  -0.4876  -0.4697  -0.4480  -0.4214  -0.3972  -0.3885
 -0.3567
 -- Virtual --
 -0.0189   0.0237   0.0363   0.0370   0.0454   0.0568   0.0575   0.0804
  0.0843   0.0866   0.0995   0.1120   0.1193   0.1350   0.1375   0.1429
  0.1443   0.1497   0.1535   0.1574   0.1593   0.1603   0.1612   0.1701
  0.1829   0.1882   0.1944   0.1991   0.2105   0.2126   0.2312   0.2334
  0.2413   0.2479   0.2639   0.2769   0.2838   0.2968   0.3039   0.3087
  0.3208   0.3329   0.3408   0.3470   0.3564   0.3596   0.3638   0.3742
  0.3818   0.3850   0.3868   0.3935   0.3996   0.4062   0.4200   0.4286
  0.4328   0.4375   0.4654   0.4842   0.5017   0.5020   0.5429   0.5485
  0.5807   0.5894   0.6022   0.6103   0.6167   0.6311   0.6519   0.6606
  0.6732   0.6841   0.6982   0.7072   0.7155   0.7198   0.7282   0.7325
  0.7512   0.7613   0.7761   0.7774   0.7948   0.7976   0.8152   0.8206
  0.8375   0.8562   0.8628   0.8737   0.8968   0.9384   0.9591   0.9646
  0.9912   1.0223   1.0407   1.0843   1.1019   1.1101   1.1230   1.1294
  1.1529   1.1577   1.1626   1.1752   1.1963   1.2122   1.2166   1.2245
  1.2331   1.2434   1.2559   1.2644   1.2775   1.2854   1.3123   1.3233
  1.3296   1.3440   1.3514   1.3582   1.3886   1.3925   1.3976   1.4205
  1.4245   1.4575   1.4680   1.4692   1.4898   1.5036   1.5278   1.5372
  1.5482   1.5553   1.5781   1.5866   1.6161   1.6273   1.6728   1.6771
  1.6820   1.6992   1.7670   1.7772   1.8116   1.8188   1.8480   1.8591
  1.8723   1.9354   1.9486   1.9918   2.0047   2.0117   2.0786   2.1158
  2.1379   2.1520   2.2426   2.2619   2.2706   2.3056   2.3709   2.4003
  2.4227   2.5082   2.6264   2.6569   2.6831   2.7339   2.7471   2.7541
  2.7751   2.7992   2.8125   2.8372   2.8495   2.8546   2.8665   2.8825
  2.9010   2.9241   2.9464   2.9612   2.9642   2.9832   3.0005   3.0245
  3.0303   3.0435   3.0671   3.1105   3.1210   3.1882   3.1939   3.2105
  3.2164   3.2833   3.3044   3.3255   3.3461   3.3629   3.3768   3.3900
  3.3997   3.4078   3.4326   3.4482   3.4737   3.4929   3.4999   3.5246
  3.5537   3.5594   3.5955   3.6194   3.6417   3.6571   3.6675   3.6965
  3.7051   3.7234   3.7409   3.7500   3.7627   3.7840   3.7910   3.8145
  3.8187   3.8481   3.8779   3.8870   3.8995   3.9146   3.9256   3.9531
  3.9874   4.0185   4.0287   4.0418   4.0692   4.0871   4.0938   4.0996
  4.1306   4.2037   4.2614   4.2684   4.2755   4.2955   4.3079   4.3371
  4.3523   4.3788   4.3886   4.4267   4.4389   4.4635   4.4923   4.5053
  4.5373   4.5549   4.6087   4.6206   4.6251   4.6358   4.6484   4.6679
  4.6920   4.7403   4.7460   4.7808   4.8165   4.8652   4.9572   5.0039
  5.1129   5.1393   5.1639   5.2269   5.2528   5.2663   5.2858   5.2911
  5.3194   5.3429   5.3546   5.4012   5.4299   5.4596   5.4905   5.5061
  5.5175   5.5930   5.6104   5.6229   5.6372   5.6874   5.7079   5.7496
  5.7592   5.8031   5.8855   5.9084   5.9394   6.0161   6.0316   6.0564
  6.1454   6.2353   6.5900   6.5946   6.6969   6.7190   7.0172   7.1158
  7.2701   7.2919   7.3255   7.3746   7.4149   7.4378   7.4636   7.4950
  7.6213   7.6949   7.8277   7.8769   7.9210   8.2292  24.3509  24.7017
 24.7165  24.7892  24.8761  25.1747  50.5826  50.6409  50.6460
 --------------------------------------------------------------
 
          Ground-State Mulliken Net Atomic Charges

     Atom                 Charge (a.u.)    Spin (a.u.)
  --------------------------------------------------------
      1 H                     0.311705      -0.014218
      2 C                    -0.297099       0.566830
      3 C                    -0.230435      -0.157467
      4 H                     0.288104       0.006434
      5 C                    -0.352353       0.567745
      6 H                     0.305298      -0.013363
      7 C                    -0.207831      -0.021558
      8 H                     0.284602       0.004940
      9 C                    -0.086274       0.025047
     10 H                     0.276500      -0.002486
     11 C                    -0.192810      -0.021740
     12 H                     0.285114       0.004739
     13 O                    -0.433205      -0.001715
     14 H                     0.342733      -0.000114
     15 O                    -0.143953       0.028456
     16 O                    -0.150095       0.028472
  --------------------------------------------------------
  Sum of atomic charges =    -0.000000
  Sum of spin   charges =     1.000000

 -----------------------------------------------------------------
                    Cartesian Multipole Moments
 -----------------------------------------------------------------
    Charge (ESU x 10^10)
                -0.0000
    Dipole Moment (Debye)
         X       0.2811      Y       3.8081      Z      -1.6589
       Tot       4.1632
    Quadrupole Moments (Debye-Ang)
        XX     -49.7968     XY      -9.3030     YY     -52.7263
        XZ       1.4793     YZ      -9.3127     ZZ     -40.6445
    Octopole Moments (Debye-Ang^2)
       XXX     116.9544    XXY     -42.4982    XYY      26.8451
       YYY    -171.0358    XXZ      34.8030    XYZ       9.8432
       YYZ      17.5491    XZZ      35.2629    YZZ     -20.4806
       ZZZ      83.1535
    Hexadecapole Moments (Debye-Ang^3)
      XXXX    -512.4800   XXXY      84.2154   XXYY    -199.9909
      XYYY     103.9416   YYYY    -756.3791   XXXZ     -66.9333
      XXYZ      27.1887   XYYZ     -14.3030   YYYZ      36.9413
      XXZZ    -167.8749   XYZZ      16.4801   YYZZ    -127.8177
      XZZZ     -66.2950   YZZZ      27.0142   ZZZZ    -443.3223
 -----------------------------------------------------------------
 Calculating analytic gradient of the SCF energy
 Gradient of CDS energy
            1           2           3           4           5           6
    1   0.0001216   0.0003303  -0.0001364  -0.0000681  -0.0004514  -0.0001832
    2  -0.0000139  -0.0000702   0.0001633   0.0000829   0.0001754   0.0000825
    3   0.0001588   0.0003460   0.0003798   0.0001867  -0.0000440   0.0000056
            7           8           9          10          11          12
    1  -0.0000462  -0.0001312   0.0007620   0.0000126   0.0001326   0.0001943
    2  -0.0002531  -0.0000059   0.0019335  -0.0001847  -0.0002536  -0.0001080
    3  -0.0002535  -0.0001804   0.0001383  -0.0001514  -0.0001913  -0.0000160
           13          14          15          16
    1  -0.0006399   0.0000789   0.0001150  -0.0000910
    2  -0.0019865   0.0004518  -0.0000393   0.0000260
    3  -0.0000921  -0.0002310   0.0000244  -0.0000798
 Gradient of SCF Energy
            1           2           3           4           5           6
    1   0.0048213  -0.0005745   0.0025726  -0.0025573   0.0056035  -0.0091467
    2  -0.0004029   0.0058099  -0.0051481   0.0031457   0.0035340   0.0044286
    3   0.0060831  -0.0039299  -0.0043934   0.0067630  -0.0002084  -0.0000520
            7           8           9          10          11          12
    1   0.0041295  -0.0068619  -0.0017081   0.0037109  -0.0079364   0.0084345
    2  -0.0106008   0.0044026   0.0102676  -0.0028232  -0.0037150  -0.0018183
    3   0.0089156  -0.0108737   0.0070772  -0.0114000  -0.0004501  -0.0001513
           13          14          15          16
    1   0.0095908  -0.0079919  -0.0056345   0.0035483
    2  -0.0067716   0.0083502  -0.0024473  -0.0062113
    3   0.0266160  -0.0223781  -0.0032342   0.0016163
 Max gradient component =       2.662E-02
 RMS gradient           =       7.651E-03
 Computing fast CPCM-SWIG gradient
 Updating gradient with PCM contributions...
 -- total gradient after adding PCM contribution --
---------------------------------------------------
  Atom         X              Y              Z     
---------------------------------------------------
   1       0.001884      -0.000188       0.002733
   2       0.002590      -0.000638      -0.000370
   3      -0.000682       0.000378       0.001401
   4      -0.001055       0.001310       0.002943
   5      -0.001172       0.000567      -0.002391
   6      -0.003078       0.001270       0.000253
   7       0.001508      -0.000652       0.000708
   8      -0.001904       0.000453      -0.002605
   9       0.000249       0.004169      -0.001042
  10       0.000875      -0.001978      -0.003005
  11      -0.001317       0.000743      -0.000475
  12       0.003061      -0.000991      -0.000099
  13       0.003180      -0.002032       0.008525
  14      -0.002709       0.001884      -0.006343
  15      -0.003892      -0.001301      -0.001671
  16       0.002463      -0.002994       0.001437
---------------------------------------------------
 Number of fixed atoms: 0
 Gradient time:  CPU 278.81 s  wall 39.05 s
 Geometry Optimization Parameters
   NAtoms,    NIC,     NZ,  NCons,   NDum,   NFix, NCnnct, MaxDiis
       16     127       0       0       0       0       0       0


** GEOMETRY OPTIMIZATION IN DELOCALIZED INTERNAL COORDINATES **
   Searching for a Minimum

   Optimization Cycle:   1

                       Coordinates (Angstroms)
     ATOM                X               Y               Z
      1  H         0.5273481328    1.0602979496    1.6148240282
      2  C        -0.1303467889    1.1355652055    0.7560717843
      3  C        -1.3838129386    1.7264163305    0.8364153650
      4  H        -1.7278103560    2.1448730587    1.7792276545
      5  C        -2.1979016224    1.7861578746   -0.2861270718
      6  H        -3.1863144259    2.2314246376   -0.2560875565
      7  C        -1.6851021183    1.1715818243   -1.5544428340
      8  H        -2.2793006330    1.4184920032   -2.4361716321
      9  C        -0.1800849955    1.4254019250   -1.7264972292
     10  H         0.1629600815    1.0006358305   -2.6755720884
     11  C         0.2821254422    0.5490876100   -0.5624422398
     12  H         1.3368246597    0.2725341943   -0.6107463909
     13  O         0.2386586399    2.7605594299   -1.5646496832
     14  H        -0.0027950787    3.2341924898   -2.3770580432
     15  O        -1.7153710384   -0.2711056637   -1.4652114372
     16  O        -0.4478292604   -0.6719661998   -0.8189627256
   Point Group: c1    Number of degrees of freedom:    42


   Energy is   -458.363943650


 Attempting to generate delocalized internal coordinates
 Initial Hessian constructed with Jon Baker's OPTIMIZE code

 42 Hessian modes will be used to form the next step
  Hessian Eigenvalues:
     0.010430    0.014066    0.014506    0.015276    0.018490    0.019318
     0.023993    0.034381    0.039107    0.044353    0.051994    0.057804
     0.075410    0.075922    0.081155    0.095145    0.098124    0.103710
     0.157492    0.159852    0.159899    0.160000    0.160000    0.192552
     0.212831    0.248603    0.265622    0.303470    0.323313    0.325666
     0.342502    0.346341    0.346486    0.351204    0.352925    0.354569
     0.354810    0.385335    0.433930    0.442227    0.467037    0.531947

 Minimum search - taking simple RFO step
 Searching for Lamda that Minimizes Along All modes
 Value Taken    Lamda =  -0.00066532
 Step Taken.  Stepsize is  0.059159

                             Maximum     Tolerance    Cnvgd?
         Gradient           0.007261      0.000300      NO
         Displacement       0.025457      0.001200      NO
         Energy change     *********      0.000001      NO


 New Cartesian Coordinates Obtained by Inverse Iteration

 Displacement from previous Coordinates is:  0.064820
 ----------------------------------------------------------------
             Standard Nuclear Orientation (Angstroms)
    I     Atom           X                Y                Z
 ----------------------------------------------------------------
    1      H       0.5202885843     1.0609734737     1.6076699667
    2      C      -0.1353853958     1.1345048886     0.7534614159
    3      C      -1.3836301398     1.7225691586     0.8339833574
    4      H      -1.7261543110     2.1385901494     1.7725340703
    5      C      -2.1951119939     1.7809489048    -0.2832820701
    6      H      -3.1784489625     2.2254005120    -0.2534697609
    7      C      -1.6848994252     1.1725611791    -1.5503761436
    8      H      -2.2762949633     1.4210319602    -2.4274196136
    9      C      -0.1837441918     1.4234623671    -1.7234110304
   10      H       0.1575954786     0.9996787318    -2.6670521532
   11      C       0.2792702974     0.5520484629    -0.5609558063
   12      H       1.3300203093     0.2796534660    -0.6087131036
   13      O       0.2359189361     2.7596118589    -1.5753823495
   14      H       0.0113783646     3.2368608576    -2.3823577472
   15      O      -1.7110269803    -0.2673547161    -1.4634971402
   16      O      -0.4485279067    -0.6663927545    -0.8191619917
 ----------------------------------------------------------------
 Nuclear Repulsion Energy =         477.85854823 hartrees
 There are       34 alpha and       33 beta electrons
 Discretize the solute cavity surface with Lebedev spheres
	Using 110 Lebedev grid points for each H atom
	Using 194 Lebedev grid points for other atoms
	Atomic van der Waals radii will be scaled by 1.20
 Remove points where switching function is < 1.0e-08
 Keep 1161 surface tesserae and discard 1355 interior tesserae
 Molecular Surface Area = 135.575 Angst**2
 Applying Cartesian multipole field
    Component          Value
    ---------          -----
     (2,0,0)        1.00000E-11
     (0,2,0)        2.00000E-11
     (0,0,2)       -3.00000E-11
 Nucleus-field energy     =     0.0000000031 hartrees
 Requested basis set is 6-311++G(2df,2p)
 There are 114 shells and 376 basis functions
 A cutoff of  1.0D-12 yielded   6212 shell pairs
 There are     68838 function pairs (     86555 Cartesian)
 Smallest overlap matrix eigenvalue = 3.65E-06
 Guess MOs from SCF MO coefficient file

 -----------------------------------------------------------------------
  General SCF calculation program by
  Eric Jon Sundstrom, Paul Horn, Yuezhi Mao, Dmitri Zuev, Alec White,
  David Stuck, Shaama M.S., Shane Yost, Joonho Lee, David Small,
  Daniel Levine, Susi Lehtola, Hugh Burton, Evgeny Epifanovsky,
  Bang C. Huynh
 -----------------------------------------------------------------------
 Exchange:     0.1500 Hartree-Fock + 1.0000 wB97M-V + LR-HF
 Correlation:  1.0000 wB97M-V
 Using SG-2 standard quadrature grid
 Nonlocal Correlation:  VV10 with C = 0.0100 and b = 6.00 and scale = 1.00000
 Grid used for NLC:  SG-1 standard quadrature
 
 Citation of the SMD model:
 Marenich, A.V.; Cramer, C.J.; Truhlar, D.G.
 J. Phys. Chem. B 2009, 113, 6378-6396.
 iSolventCode=           1
 Solvent: water                                                           
 
 vradii
            1           2           3           4           5           6
    1   1.2000000   1.8500000   1.8500000   1.2000000   1.8500000   1.2000000
            7           8           9          10          11          12
    1   1.8500000   1.2000000   1.8500000   1.2000000   1.8500000   1.2000000
           13          14          15          16
    1   1.5200000   1.2000000   1.5200000   1.5200000
 -------------------------------------------------------
 OpenMP BLAS3 based DFT computing Module                
 Release: version 1.0, May 2013, Q-Chem Inc. Pittsburgh 
 -------------------------------------------------------
 A unrestricted SCF calculation will be
 performed using Roothaan-Hall, DIIS, GDM
 SCF converges when RMS gradient is below 1.0e-07
 ---------------------------------------
  Cycle       Energy         DIIS error
 ---------------------------------------
    1    -458.3375611500      2.23e-04  Roothaan Step
 ---------------------------------------
  Cycle       Energy         DIIS error
 ---------------------------------------
    1    -458.3616460739      2.45e-04  
    2    -458.3663136598      1.90e-04  Done DIIS. Switching to GDM
 ---------------------------------------
  Cycle       Energy        RMS Gradient
 ---------------------------------------
    1    -458.3663136598      6.21e-03   Normal BFGS step
    2    -458.3666932387      7.52e-03   Normal BFGS step
    3    -458.3682080954      5.16e-04   Normal BFGS step
    4    -458.3682234871      5.98e-04   Normal BFGS step
    5    -458.3682301010      1.60e-04   Normal BFGS step
    6    -458.3682302546      6.44e-05   Normal BFGS step
    7    -458.3682303533      4.38e-05   Normal BFGS step
    8    -458.3682303669      3.39e-05   Normal BFGS step
    9    -458.3682303717      1.10e-05   Normal BFGS step
   10    -458.3682303727      4.45e-06   Normal BFGS step
   11    -458.3682303729      2.52e-06   Normal BFGS step
   12    -458.3682303729      1.77e-06   Normal BFGS step
   13    -458.3682303730      6.12e-07   Normal BFGS step
   14    -458.3682303730      2.75e-07   Normal BFGS step
   15    -458.3682303730      1.27e-07   Normal BFGS step
   16    -458.3682303729      4.85e-08  Convergence criterion met
 ---------------------------------------
 SCF time:   CPU 1561.72s  wall 197.00s 
<S^2> =          0.780457317
(3)  G-ENP(liq) elect-nuc-pol free energy of system     -458.368230373 a.u.
(4)  G-CDS(liq) cavity-dispersion-solvent structure 
     free energy                                                2.4803 kcal/mol
(6)  G-S(liq) free energy of system                     -458.364277699 a.u.
 SCF   energy in the final basis set =     -458.3642776985
 Total energy in the final basis set =     -458.3642776985
 
 --------------------------------------------------------------
 
                    Orbital Energies (a.u.)
 --------------------------------------------------------------
 
 Alpha MOs
 -- Occupied --
-19.4006 -19.4005 -19.3482 -10.4056 -10.4053 -10.4033 -10.3539 -10.3536
-10.3487  -1.2660  -1.1707  -1.0647  -0.9728  -0.8796  -0.8433  -0.7528
 -0.7184  -0.6815  -0.6607  -0.6213  -0.5824  -0.5752  -0.5575  -0.5365
 -0.5306  -0.5132  -0.4895  -0.4748  -0.4511  -0.4281  -0.4207  -0.3993
 -0.3616  -0.2844
 -- Virtual --
  0.0243   0.0368   0.0374   0.0462   0.0572   0.0580   0.0758   0.0795
  0.0866   0.0956   0.1122   0.1190   0.1360   0.1377   0.1426   0.1441
  0.1499   0.1541   0.1569   0.1591   0.1606   0.1624   0.1695   0.1821
  0.1888   0.1947   0.1972   0.2107   0.2147   0.2317   0.2339   0.2425
  0.2478   0.2617   0.2772   0.2829   0.2959   0.3032   0.3052   0.3195
  0.3329   0.3384   0.3463   0.3573   0.3590   0.3634   0.3724   0.3800
  0.3851   0.3885   0.3936   0.3998   0.4063   0.4201   0.4280   0.4322
  0.4374   0.4641   0.4836   0.5005   0.5016   0.5418   0.5472   0.5774
  0.5864   0.5973   0.6096   0.6137   0.6329   0.6440   0.6507   0.6725
  0.6818   0.6974   0.7050   0.7148   0.7200   0.7274   0.7328   0.7505
  0.7566   0.7707   0.7754   0.7922   0.7966   0.8121   0.8169   0.8387
  0.8484   0.8562   0.8726   0.8979   0.9382   0.9582   0.9640   0.9911
  1.0229   1.0397   1.0841   1.1012   1.1100   1.1215   1.1285   1.1533
  1.1542   1.1619   1.1731   1.1957   1.2107   1.2149   1.2237   1.2308
  1.2445   1.2544   1.2655   1.2772   1.2836   1.3106   1.3242   1.3298
  1.3446   1.3511   1.3578   1.3873   1.3922   1.3981   1.4204   1.4232
  1.4561   1.4662   1.4693   1.4894   1.5017   1.5269   1.5350   1.5470
  1.5542   1.5784   1.5861   1.6157   1.6261   1.6710   1.6759   1.6799
  1.6983   1.7643   1.7783   1.8078   1.8173   1.8487   1.8595   1.8741
  1.9367   1.9444   1.9902   2.0037   2.0113   2.0804   2.1177   2.1368
  2.1544   2.2472   2.2601   2.2719   2.3083   2.3703   2.4024   2.4241
  2.5083   2.6180   2.6451   2.6785   2.7291   2.7401   2.7451   2.7625
  2.7882   2.8062   2.8313   2.8383   2.8505   2.8559   2.8754   2.8894
  2.9117   2.9333   2.9424   2.9582   2.9663   2.9851   3.0021   3.0159
  3.0396   3.0608   3.0932   3.1210   3.1729   3.1857   3.2008   3.2119
  3.2717   3.2912   3.3184   3.3414   3.3554   3.3737   3.3770   3.3889
  3.4033   3.4232   3.4420   3.4666   3.4867   3.4945   3.5147   3.5356
  3.5561   3.5801   3.6150   3.6368   3.6521   3.6571   3.6841   3.6980
  3.7188   3.7336   3.7471   3.7546   3.7752   3.7820   3.8121   3.8151
  3.8452   3.8734   3.8880   3.8985   3.9099   3.9268   3.9483   3.9898
  4.0114   4.0290   4.0419   4.0660   4.0885   4.0923   4.1004   4.1266
  4.2099   4.2615   4.2650   4.2742   4.2984   4.3102   4.3352   4.3593
  4.3820   4.3914   4.4215   4.4340   4.4658   4.4954   4.5084   4.5404
  4.5563   4.6105   4.6221   4.6247   4.6371   4.6470   4.6641   4.6930
  4.7421   4.7531   4.7847   4.8187   4.8669   4.9534   5.0072   5.1076
  5.1380   5.1672   5.2192   5.2520   5.2658   5.2891   5.2937   5.3185
  5.3440   5.3531   5.4013   5.4329   5.4609   5.4920   5.5094   5.5193
  5.5952   5.6172   5.6268   5.6426   5.6933   5.7138   5.7595   5.7662
  5.8118   5.8911   5.9284   5.9475   6.0253   6.0404   6.0710   6.1580
  6.2531   6.5989   6.6042   6.7165   6.7270   7.0201   7.1188   7.2871
  7.3007   7.3293   7.3795   7.4155   7.4396   7.4669   7.5049   7.6210
  7.7099   7.8292   7.8832   7.9254   8.2282  24.3584  24.7176  24.7324
 24.8106  24.8971  25.2074  50.5864  50.6419  50.6483
 
 Beta MOs
 -- Occupied --
-19.3993 -19.3992 -19.3482 -10.4059 -10.4049 -10.4038 -10.3518 -10.3456
-10.3454  -1.2634  -1.1704  -1.0615  -0.9656  -0.8771  -0.8281  -0.7505
 -0.7104  -0.6798  -0.6566  -0.6179  -0.5774  -0.5698  -0.5516  -0.5335
 -0.5266  -0.5095  -0.4881  -0.4694  -0.4485  -0.4216  -0.3974  -0.3897
 -0.3559
 -- Virtual --
 -0.0186   0.0237   0.0363   0.0370   0.0456   0.0568   0.0576   0.0817
  0.0851   0.0868   0.0997   0.1124   0.1203   0.1352   0.1378   0.1429
  0.1445   0.1501   0.1537   0.1576   0.1597   0.1606   0.1615   0.1703
  0.1833   0.1884   0.1948   0.1995   0.2107   0.2125   0.2316   0.2338
  0.2413   0.2483   0.2643   0.2786   0.2845   0.2980   0.3052   0.3104
  0.3225   0.3339   0.3422   0.3477   0.3574   0.3614   0.3656   0.3754
  0.3828   0.3853   0.3876   0.3942   0.4006   0.4070   0.4206   0.4294
  0.4344   0.4382   0.4656   0.4840   0.5036   0.5048   0.5440   0.5496
  0.5814   0.5904   0.6035   0.6123   0.6194   0.6320   0.6533   0.6607
  0.6744   0.6856   0.6996   0.7087   0.7176   0.7217   0.7302   0.7343
  0.7533   0.7629   0.7777   0.7797   0.7961   0.8000   0.8169   0.8205
  0.8386   0.8563   0.8642   0.8754   0.8992   0.9392   0.9587   0.9658
  0.9933   1.0244   1.0425   1.0861   1.1034   1.1104   1.1239   1.1302
  1.1545   1.1587   1.1649   1.1776   1.1979   1.2134   1.2181   1.2262
  1.2339   1.2461   1.2569   1.2660   1.2792   1.2865   1.3132   1.3269
  1.3309   1.3464   1.3537   1.3605   1.3901   1.3945   1.4003   1.4229
  1.4295   1.4607   1.4711   1.4721   1.4933   1.5056   1.5311   1.5415
  1.5516   1.5575   1.5817   1.5899   1.6184   1.6320   1.6755   1.6806
  1.6856   1.7009   1.7701   1.7797   1.8128   1.8231   1.8512   1.8629
  1.8762   1.9390   1.9501   1.9941   2.0095   2.0166   2.0833   2.1213
  2.1424   2.1571   2.2489   2.2629   2.2742   2.3094   2.3731   2.4043
  2.4268   2.5109   2.6246   2.6562   2.6816   2.7328   2.7499   2.7551
  2.7757   2.8031   2.8153   2.8402   2.8536   2.8553   2.8684   2.8843
  2.9045   2.9243   2.9479   2.9623   2.9680   2.9871   3.0029   3.0274
  3.0343   3.0466   3.0698   3.1148   3.1260   3.1924   3.1984   3.2155
  3.2218   3.2849   3.3054   3.3287   3.3503   3.3666   3.3817   3.3968
  3.3990   3.4131   3.4337   3.4518   3.4781   3.4950   3.5018   3.5293
  3.5560   3.5638   3.5996   3.6212   3.6450   3.6620   3.6728   3.6982
  3.7057   3.7229   3.7411   3.7540   3.7678   3.7869   3.7972   3.8196
  3.8238   3.8557   3.8822   3.8926   3.9037   3.9203   3.9345   3.9582
  3.9953   4.0276   4.0387   4.0485   4.0726   4.0953   4.1002   4.1069
  4.1375   4.2135   4.2701   4.2771   4.2857   4.3053   4.3171   4.3482
  4.3647   4.3890   4.4003   4.4349   4.4467   4.4724   4.5029   4.5160
  4.5463   4.5648   4.6188   4.6330   4.6388   4.6455   4.6598   4.6835
  4.6987   4.7490   4.7558   4.7950   4.8293   4.8779   4.9637   5.0183
  5.1192   5.1529   5.1761   5.2351   5.2606   5.2689   5.2913   5.2967
  5.3205   5.3466   5.3547   5.4037   5.4374   5.4646   5.4996   5.5140
  5.5294   5.6008   5.6200   5.6411   5.6471   5.6977   5.7247   5.7628
  5.7722   5.8148   5.8982   5.9290   5.9516   6.0334   6.0552   6.0790
  6.1686   6.2547   6.6020   6.6071   6.7184   6.7278   7.0231   7.1192
  7.2902   7.3026   7.3295   7.3818   7.4201   7.4406   7.4694   7.5072
  7.6259   7.7100   7.8302   7.8857   7.9284   8.2297  24.3613  24.7179
 24.7366  24.8108  24.9003  25.2105  50.5875  50.6427  50.6485
 --------------------------------------------------------------
 
          Ground-State Mulliken Net Atomic Charges

     Atom                 Charge (a.u.)    Spin (a.u.)
  --------------------------------------------------------
      1 H                     0.311707      -0.013851
      2 C                    -0.296243       0.563988
      3 C                    -0.228067      -0.153340
      4 H                     0.288554       0.006359
      5 C                    -0.345793       0.564736
      6 H                     0.305715      -0.013021
      7 C                    -0.212109      -0.021222
      8 H                     0.284304       0.005004
      9 C                    -0.091313       0.024800
     10 H                     0.278113      -0.002477
     11 C                    -0.194958      -0.021531
     12 H                     0.285034       0.004794
     13 O                    -0.436519      -0.001515
     14 H                     0.342253      -0.000200
     15 O                    -0.142610       0.028721
     16 O                    -0.148067       0.028754
  --------------------------------------------------------
  Sum of atomic charges =     0.000000
  Sum of spin   charges =     1.000000

 -----------------------------------------------------------------
                    Cartesian Multipole Moments
 -----------------------------------------------------------------
    Charge (ESU x 10^10)
                 0.0000
    Dipole Moment (Debye)
         X       0.2916      Y       3.7801      Z      -1.6416
       Tot       4.1315
    Quadrupole Moments (Debye-Ang)
        XX     -49.7695     XY      -9.1619     YY     -52.6688
        XZ       1.4058     YZ      -9.2757     ZZ     -40.6652
    Octopole Moments (Debye-Ang^2)
       XXX     117.0194    XXY     -42.5857    XYY      27.2313
       YYY    -170.7849    XXZ      34.8247    XYZ       9.5907
       YYZ      17.4893    XZZ      35.4371    YZZ     -20.5209
       ZZZ      83.1375
    Hexadecapole Moments (Debye-Ang^3)
      XXXX    -511.1395   XXXY      84.6299   XXYY    -199.5541
      XYYY     104.9885   YYYY    -753.1157   XXXZ     -66.7172
      XXYZ      27.4109   XYYZ     -14.9090   YYYZ      37.1031
      XXZZ    -167.5115   XYZZ      17.1376   YYZZ    -126.9466
      XZZZ     -66.4876   YZZZ      27.2485   ZZZZ    -442.3587
 -----------------------------------------------------------------
 Calculating analytic gradient of the SCF energy
 Gradient of CDS energy
            1           2           3           4           5           6
    1   0.0001182   0.0003264  -0.0001352  -0.0000663  -0.0004497  -0.0001776
    2  -0.0000133  -0.0000702   0.0001626   0.0000805   0.0001727   0.0000803
    3   0.0001540   0.0003456   0.0003771   0.0001816  -0.0000404   0.0000054
            7           8           9          10          11          12
    1  -0.0000503  -0.0001274   0.0007826   0.0000105   0.0001365   0.0001893
    2  -0.0002465  -0.0000053   0.0019938  -0.0001828  -0.0002525  -0.0001048
    3  -0.0002558  -0.0001757   0.0001243  -0.0001455  -0.0001887  -0.0000158
           13          14          15          16
    1  -0.0006617   0.0000804   0.0001151  -0.0000910
    2  -0.0020531   0.0004508  -0.0000386   0.0000265
    3  -0.0000779  -0.0002335   0.0000247  -0.0000794
 Gradient of SCF Energy
            1           2           3           4           5           6
    1   0.0027633  -0.0032616   0.0031803  -0.0014625   0.0069464  -0.0058913
    2  -0.0001304   0.0064677  -0.0057074   0.0018115   0.0029950   0.0030462
    3   0.0033007  -0.0036348  -0.0059401   0.0037135   0.0021043  -0.0001949
            7           8           9          10          11          12
    1   0.0028366  -0.0050017  -0.0020209   0.0028914  -0.0071453   0.0053676
    2  -0.0099945   0.0038088   0.0058379  -0.0007799  -0.0043701  -0.0009233
    3   0.0083848  -0.0081896   0.0083279  -0.0082752  -0.0001284  -0.0000129
           13          14          15          16
    1   0.0064901  -0.0053273  -0.0027923   0.0024273
    2  -0.0050884   0.0071806  -0.0005105  -0.0036432
    3   0.0182197  -0.0164420  -0.0021645   0.0009317
 Max gradient component =       1.822E-02
 RMS gradient           =       5.845E-03
 Computing fast CPCM-SWIG gradient
 Updating gradient with PCM contributions...
 -- total gradient after adding PCM contribution --
---------------------------------------------------
  Atom         X              Y              Z     
---------------------------------------------------
   1      -0.000174       0.000083      -0.000043
   2      -0.000175       0.000052      -0.000121
   3      -0.000026      -0.000199      -0.000165
   4       0.000041      -0.000022      -0.000110
   5       0.000187      -0.000069       0.000079
   6       0.000118      -0.000088       0.000109
   7       0.000234      -0.000052       0.000116
   8      -0.000079      -0.000122       0.000000
   9      -0.000042      -0.000185       0.000262
  10       0.000054      -0.000013       0.000043
  11      -0.000488       0.000050      -0.000118
  12      -0.000017      -0.000096       0.000030
  13       0.000421      -0.000203       0.000189
  14      -0.000363       0.000549      -0.000467
  15      -0.000959       0.000672      -0.000543
  16       0.001268      -0.000358       0.000739
---------------------------------------------------
 Number of fixed atoms: 0
 Gradient time:  CPU 278.69 s  wall 39.08 s
 Geometry Optimization Parameters
   NAtoms,    NIC,     NZ,  NCons,   NDum,   NFix, NCnnct, MaxDiis
       16     127       0       0       0       0       0       0

 Cartesian Hessian Update
 Hessian updated using BFGS update


** GEOMETRY OPTIMIZATION IN DELOCALIZED INTERNAL COORDINATES **
   Searching for a Minimum

   Optimization Cycle:   2

                       Coordinates (Angstroms)
     ATOM                X               Y               Z
      1  H         0.5202885843    1.0609734737    1.6076699667
      2  C        -0.1353853958    1.1345048886    0.7534614159
      3  C        -1.3836301398    1.7225691586    0.8339833574
      4  H        -1.7261543110    2.1385901494    1.7725340703
      5  C        -2.1951119939    1.7809489048   -0.2832820701
      6  H        -3.1784489625    2.2254005120   -0.2534697609
      7  C        -1.6848994252    1.1725611791   -1.5503761436
      8  H        -2.2762949633    1.4210319602   -2.4274196136
      9  C        -0.1837441918    1.4234623671   -1.7234110304
     10  H         0.1575954786    0.9996787318   -2.6670521532
     11  C         0.2792702974    0.5520484629   -0.5609558063
     12  H         1.3300203093    0.2796534660   -0.6087131036
     13  O         0.2359189361    2.7596118589   -1.5753823495
     14  H         0.0113783646    3.2368608576   -2.3823577472
     15  O        -1.7110269803   -0.2673547161   -1.4634971402
     16  O        -0.4485279067   -0.6663927545   -0.8191619917
   Point Group: c1    Number of degrees of freedom:    42


   Energy is   -458.364277699

 Hessian updated using BFGS update

 42 Hessian modes will be used to form the next step
  Hessian Eigenvalues:
     0.010434    0.014050    0.014295    0.015277    0.018489    0.019478
     0.023992    0.034381    0.039103    0.044402    0.052047    0.057795
     0.075411    0.075953    0.081146    0.095034    0.098219    0.103683
     0.156777    0.159514    0.159859    0.159999    0.163115    0.192878
     0.212915    0.248994    0.265633    0.303452    0.307606    0.325839
     0.343005    0.346381    0.346840    0.351888    0.352930    0.354686
     0.358624    0.389393    0.440482    0.453651    0.467052    0.519164

 Minimum search - taking simple RFO step
 Searching for Lamda that Minimizes Along All modes
 Value Taken    Lamda =  -0.00001498
 Step Taken.  Stepsize is  0.020678

                             Maximum     Tolerance    Cnvgd?
         Gradient           0.000742      0.000300      NO
         Displacement       0.008435      0.001200      NO
         Energy change     -0.000334      0.000001      NO


 New Cartesian Coordinates Obtained by Inverse Iteration

 Displacement from previous Coordinates is:  0.016650
 ----------------------------------------------------------------
             Standard Nuclear Orientation (Angstroms)
    I     Atom           X                Y                Z
 ----------------------------------------------------------------
    1      H       0.5215886404     1.0613023217     1.6069247763
    2      C      -0.1351733221     1.1345393889     0.7533922946
    3      C      -1.3834713090     1.7233814238     0.8338824910
    4      H      -1.7257753088     2.1398413615     1.7723905988
    5      C      -2.1959908685     1.7804418452    -0.2831876419
    6      H      -3.1792836269     2.2252892219    -0.2542509920
    7      C      -1.6859738575     1.1714779829    -1.5502197867
    8      H      -2.2768454468     1.4203298332    -2.4273340729
    9      C      -0.1849673147     1.4236689474    -1.7229938690
   10      H       0.1571242834     1.0014830809    -2.6669599555
   11      C       0.2792426931     0.5521261334    -0.5613195445
   12      H       1.3302161107     0.2811906144    -0.6099203742
   13      O       0.2333620452     2.7595283369    -1.5723157744
   14      H       0.0169568716     3.2344376438    -2.3818359925
   15      O      -1.7108342018    -0.2687265119    -1.4629548731
   16      O      -0.4489276884    -0.6661631240    -0.8207273838
 ----------------------------------------------------------------
 Nuclear Repulsion Energy =         477.91636836 hartrees
 There are       34 alpha and       33 beta electrons
 Discretize the solute cavity surface with Lebedev spheres
	Using 110 Lebedev grid points for each H atom
	Using 194 Lebedev grid points for other atoms
	Atomic van der Waals radii will be scaled by 1.20
 Remove points where switching function is < 1.0e-08
 Keep 1161 surface tesserae and discard 1355 interior tesserae
 Molecular Surface Area = 135.559 Angst**2
 Applying Cartesian multipole field
    Component          Value
    ---------          -----
     (2,0,0)        1.00000E-11
     (0,2,0)        2.00000E-11
     (0,0,2)       -3.00000E-11
 Nucleus-field energy     =     0.0000000032 hartrees
 Requested basis set is 6-311++G(2df,2p)
 There are 114 shells and 376 basis functions
 A cutoff of  1.0D-12 yielded   6212 shell pairs
 There are     68838 function pairs (     86555 Cartesian)
 Smallest overlap matrix eigenvalue = 3.65E-06
 Guess MOs from SCF MO coefficient file

 -----------------------------------------------------------------------
  General SCF calculation program by
  Eric Jon Sundstrom, Paul Horn, Yuezhi Mao, Dmitri Zuev, Alec White,
  David Stuck, Shaama M.S., Shane Yost, Joonho Lee, David Small,
  Daniel Levine, Susi Lehtola, Hugh Burton, Evgeny Epifanovsky,
  Bang C. Huynh
 -----------------------------------------------------------------------
 Exchange:     0.1500 Hartree-Fock + 1.0000 wB97M-V + LR-HF
 Correlation:  1.0000 wB97M-V
 Using SG-2 standard quadrature grid
 Nonlocal Correlation:  VV10 with C = 0.0100 and b = 6.00 and scale = 1.00000
 Grid used for NLC:  SG-1 standard quadrature
 
 Citation of the SMD model:
 Marenich, A.V.; Cramer, C.J.; Truhlar, D.G.
 J. Phys. Chem. B 2009, 113, 6378-6396.
 iSolventCode=           1
 Solvent: water                                                           
 
 vradii
            1           2           3           4           5           6
    1   1.2000000   1.8500000   1.8500000   1.2000000   1.8500000   1.2000000
            7           8           9          10          11          12
    1   1.8500000   1.2000000   1.8500000   1.2000000   1.8500000   1.2000000
           13          14          15          16
    1   1.5200000   1.2000000   1.5200000   1.5200000
 -------------------------------------------------------
 OpenMP BLAS3 based DFT computing Module                
 Release: version 1.0, May 2013, Q-Chem Inc. Pittsburgh 
 -------------------------------------------------------
 A unrestricted SCF calculation will be
 performed using Roothaan-Hall, DIIS, GDM
 SCF converges when RMS gradient is below 1.0e-07
 ---------------------------------------
  Cycle       Energy         DIIS error
 ---------------------------------------
    1    -458.3375955363      2.19e-04  Roothaan Step
 ---------------------------------------
  Cycle       Energy         DIIS error
 ---------------------------------------
    1    -458.3616787299      2.45e-04  
    2    -458.3663691243      1.87e-04  Done DIIS. Switching to GDM
 ---------------------------------------
  Cycle       Energy        RMS Gradient
 ---------------------------------------
    1    -458.3663691243      6.08e-03   Normal BFGS step
    2    -458.3667889284      7.29e-03   Normal BFGS step
    3    -458.3682200579      5.79e-04   Normal BFGS step
    4    -458.3682350808      6.31e-04   Normal BFGS step
    5    -458.3682423282      2.08e-04   Normal BFGS step
    6    -458.3682425162      8.75e-05   Normal BFGS step
    7    -458.3682426134      5.16e-05   Normal BFGS step
    8    -458.3682426302      3.49e-05   Normal BFGS step
    9    -458.3682426353      1.31e-05   Normal BFGS step
   10    -458.3682426365      4.59e-06   Normal BFGS step
   11    -458.3682426367      2.56e-06   Normal BFGS step
   12    -458.3682426368      1.81e-06   Normal BFGS step
   13    -458.3682426368      7.03e-07   Normal BFGS step
   14    -458.3682426368      2.85e-07   Normal BFGS step
   15    -458.3682426368      1.27e-07   Normal BFGS step
   16    -458.3682426367      5.25e-08  Convergence criterion met
 ---------------------------------------
 SCF time:   CPU 1564.75s  wall 198.00s 
<S^2> =          0.780517152
(3)  G-ENP(liq) elect-nuc-pol free energy of system     -458.368242637 a.u.
(4)  G-CDS(liq) cavity-dispersion-solvent structure 
     free energy                                                2.4818 kcal/mol
(6)  G-S(liq) free energy of system                     -458.364287680 a.u.
 SCF   energy in the final basis set =     -458.3642876798
 Total energy in the final basis set =     -458.3642876798
 
 --------------------------------------------------------------
 
                    Orbital Energies (a.u.)
 --------------------------------------------------------------
 
 Alpha MOs
 -- Occupied --
-19.4006 -19.4004 -19.3481 -10.4054 -10.4053 -10.4032 -10.3540 -10.3537
-10.3488  -1.2665  -1.1710  -1.0643  -0.9728  -0.8796  -0.8433  -0.7528
 -0.7183  -0.6816  -0.6606  -0.6215  -0.5825  -0.5752  -0.5575  -0.5365
 -0.5307  -0.5131  -0.4895  -0.4747  -0.4514  -0.4280  -0.4206  -0.3994
 -0.3613  -0.2844
 -- Virtual --
  0.0243   0.0368   0.0374   0.0463   0.0572   0.0580   0.0759   0.0799
  0.0866   0.0956   0.1122   0.1193   0.1360   0.1378   0.1426   0.1441
  0.1499   0.1541   0.1569   0.1591   0.1606   0.1624   0.1695   0.1821
  0.1888   0.1947   0.1972   0.2107   0.2148   0.2318   0.2339   0.2425
  0.2478   0.2618   0.2773   0.2828   0.2960   0.3032   0.3053   0.3196
  0.3330   0.3383   0.3462   0.3573   0.3589   0.3635   0.3724   0.3799
  0.3851   0.3886   0.3936   0.3999   0.4063   0.4199   0.4280   0.4323
  0.4375   0.4642   0.4837   0.5006   0.5015   0.5419   0.5473   0.5774
  0.5865   0.5974   0.6096   0.6136   0.6329   0.6440   0.6507   0.6724
  0.6817   0.6974   0.7050   0.7151   0.7199   0.7274   0.7330   0.7501
  0.7565   0.7705   0.7753   0.7922   0.7966   0.8119   0.8166   0.8387
  0.8484   0.8561   0.8726   0.8978   0.9379   0.9578   0.9648   0.9914
  1.0231   1.0399   1.0841   1.1010   1.1102   1.1217   1.1286   1.1534
  1.1544   1.1620   1.1728   1.1956   1.2110   1.2146   1.2235   1.2307
  1.2444   1.2542   1.2656   1.2774   1.2836   1.3106   1.3242   1.3301
  1.3446   1.3511   1.3577   1.3873   1.3923   1.3983   1.4205   1.4230
  1.4557   1.4661   1.4695   1.4894   1.5017   1.5269   1.5349   1.5470
  1.5543   1.5788   1.5862   1.6161   1.6261   1.6709   1.6758   1.6803
  1.6981   1.7642   1.7783   1.8076   1.8169   1.8487   1.8596   1.8747
  1.9370   1.9450   1.9906   2.0035   2.0116   2.0804   2.1184   2.1366
  2.1547   2.2482   2.2602   2.2716   2.3080   2.3702   2.4025   2.4242
  2.5083   2.6180   2.6450   2.6789   2.7288   2.7400   2.7455   2.7624
  2.7877   2.8061   2.8313   2.8379   2.8509   2.8560   2.8755   2.8895
  2.9116   2.9331   2.9422   2.9581   2.9664   2.9851   3.0021   3.0160
  3.0396   3.0612   3.0938   3.1212   3.1728   3.1854   3.2005   3.2115
  3.2718   3.2910   3.3183   3.3415   3.3555   3.3737   3.3770   3.3887
  3.4034   3.4235   3.4421   3.4664   3.4866   3.4945   3.5147   3.5353
  3.5561   3.5805   3.6150   3.6369   3.6519   3.6573   3.6840   3.6979
  3.7190   3.7335   3.7469   3.7547   3.7755   3.7817   3.8119   3.8154
  3.8449   3.8729   3.8880   3.8984   3.9100   3.9265   3.9482   3.9903
  4.0113   4.0294   4.0423   4.0659   4.0891   4.0926   4.1006   4.1261
  4.2103   4.2616   4.2648   4.2744   4.2988   4.3105   4.3350   4.3602
  4.3818   4.3917   4.4214   4.4337   4.4657   4.4952   4.5079   4.5404
  4.5564   4.6106   4.6217   4.6243   4.6370   4.6466   4.6638   4.6924
  4.7420   4.7529   4.7843   4.8183   4.8669   4.9524   5.0067   5.1068
  5.1367   5.1662   5.2194   5.2514   5.2657   5.2896   5.2939   5.3194
  5.3442   5.3541   5.4006   5.4329   5.4607   5.4919   5.5104   5.5196
  5.5951   5.6174   5.6263   5.6419   5.6953   5.7142   5.7611   5.7673
  5.8122   5.8921   5.9280   5.9491   6.0266   6.0405   6.0714   6.1588
  6.2568   6.5978   6.6032   6.7229   6.7288   7.0210   7.1195   7.2880
  7.3026   7.3316   7.3801   7.4158   7.4401   7.4682   7.5072   7.6216
  7.7103   7.8304   7.8853   7.9269   8.2275  24.3587  24.7179  24.7316
 24.8111  24.8963  25.2054  50.5871  50.6414  50.6489
 
 Beta MOs
 -- Occupied --
-19.3992 -19.3991 -19.3481 -10.4059 -10.4048 -10.4037 -10.3520 -10.3457
-10.3455  -1.2639  -1.1707  -1.0611  -0.9656  -0.8771  -0.8280  -0.7505
 -0.7103  -0.6800  -0.6566  -0.6181  -0.5776  -0.5698  -0.5515  -0.5335
 -0.5267  -0.5094  -0.4881  -0.4693  -0.4488  -0.4214  -0.3975  -0.3896
 -0.3557
 -- Virtual --
 -0.0186   0.0237   0.0363   0.0370   0.0456   0.0568   0.0576   0.0819
  0.0853   0.0869   0.0996   0.1124   0.1205   0.1352   0.1378   0.1429
  0.1446   0.1502   0.1537   0.1575   0.1597   0.1606   0.1616   0.1702
  0.1834   0.1884   0.1948   0.1995   0.2107   0.2125   0.2316   0.2338
  0.2414   0.2482   0.2645   0.2787   0.2844   0.2981   0.3053   0.3105
  0.3225   0.3340   0.3422   0.3476   0.3573   0.3614   0.3656   0.3754
  0.3827   0.3853   0.3877   0.3943   0.4007   0.4070   0.4204   0.4294
  0.4345   0.4383   0.4657   0.4842   0.5038   0.5048   0.5441   0.5496
  0.5815   0.5905   0.6035   0.6122   0.6192   0.6320   0.6532   0.6607
  0.6743   0.6854   0.6996   0.7088   0.7179   0.7216   0.7302   0.7344
  0.7530   0.7627   0.7777   0.7795   0.7962   0.8000   0.8167   0.8202
  0.8386   0.8563   0.8642   0.8754   0.8991   0.9389   0.9583   0.9666
  0.9936   1.0246   1.0428   1.0861   1.1032   1.1106   1.1242   1.1303
  1.1547   1.1588   1.1650   1.1773   1.1978   1.2137   1.2179   1.2259
  1.2338   1.2459   1.2567   1.2661   1.2794   1.2864   1.3133   1.3269
  1.3311   1.3463   1.3537   1.3603   1.3902   1.3945   1.4005   1.4230
  1.4294   1.4604   1.4711   1.4723   1.4933   1.5056   1.5311   1.5414
  1.5515   1.5577   1.5821   1.5901   1.6188   1.6319   1.6755   1.6806
  1.6858   1.7007   1.7701   1.7795   1.8126   1.8228   1.8511   1.8629
  1.8768   1.9393   1.9507   1.9944   2.0094   2.0168   2.0835   2.1220
  2.1422   2.1574   2.2498   2.2630   2.2739   2.3092   2.3730   2.4045
  2.4270   2.5109   2.6246   2.6562   2.6819   2.7326   2.7506   2.7543
  2.7758   2.8028   2.8152   2.8402   2.8536   2.8552   2.8683   2.8847
  2.9044   2.9243   2.9478   2.9621   2.9680   2.9873   3.0031   3.0273
  3.0343   3.0467   3.0702   3.1155   3.1262   3.1921   3.1982   3.2152
  3.2215   3.2850   3.3052   3.3287   3.3504   3.3666   3.3818   3.3965
  3.3990   3.4133   3.4340   3.4520   3.4779   3.4950   3.5017   3.5294
  3.5558   3.5637   3.6000   3.6212   3.6451   3.6617   3.6728   3.6982
  3.7057   3.7230   3.7409   3.7538   3.7678   3.7873   3.7971   3.8196
  3.8241   3.8554   3.8818   3.8927   3.9035   3.9203   3.9343   3.9580
  3.9958   4.0275   4.0391   4.0489   4.0726   4.0962   4.1002   4.1070
  4.1370   4.2138   4.2702   4.2773   4.2859   4.3057   4.3172   4.3481
  4.3656   4.3888   4.4005   4.4347   4.4464   4.4722   4.5028   4.5155
  4.5464   4.5649   4.6190   4.6327   4.6381   4.6455   4.6594   4.6830
  4.6981   4.7489   4.7555   4.7946   4.8288   4.8778   4.9626   5.0179
  5.1184   5.1517   5.1751   5.2352   5.2602   5.2688   5.2918   5.2968
  5.3213   5.3467   5.3557   5.4031   5.4373   5.4643   5.4996   5.5150
  5.5299   5.6006   5.6202   5.6402   5.6467   5.6996   5.7253   5.7645
  5.7732   5.8151   5.8992   5.9285   5.9534   6.0354   6.0548   6.0791
  6.1693   6.2585   6.6009   6.6061   6.7245   6.7298   7.0240   7.1198
  7.2912   7.3043   7.3318   7.3823   7.4204   7.4412   7.4707   7.5095
  7.6264   7.7104   7.8314   7.8879   7.9299   8.2290  24.3615  24.7182
 24.7357  24.8114  24.8995  25.2085  50.5882  50.6424  50.6491
 --------------------------------------------------------------
 
          Ground-State Mulliken Net Atomic Charges

     Atom                 Charge (a.u.)    Spin (a.u.)
  --------------------------------------------------------
      1 H                     0.311410      -0.013824
      2 C                    -0.297638       0.564196
      3 C                    -0.225639      -0.153812
      4 H                     0.288848       0.006336
      5 C                    -0.346287       0.564992
      6 H                     0.305551      -0.013010
      7 C                    -0.212419      -0.021285
      8 H                     0.284340       0.005000
      9 C                    -0.091298       0.024749
     10 H                     0.277832      -0.002471
     11 C                    -0.195699      -0.021440
     12 H                     0.284949       0.004796
     13 O                    -0.435536      -0.001495
     14 H                     0.342009      -0.000226
     15 O                    -0.142384       0.028702
     16 O                    -0.148039       0.028793
  --------------------------------------------------------
  Sum of atomic charges =     0.000000
  Sum of spin   charges =     1.000000

 -----------------------------------------------------------------
                    Cartesian Multipole Moments
 -----------------------------------------------------------------
    Charge (ESU x 10^10)
                 0.0000
    Dipole Moment (Debye)
         X       0.3113      Y       3.7810      Z      -1.6511
       Tot       4.1376
    Quadrupole Moments (Debye-Ang)
        XX     -49.7626     XY      -9.0988     YY     -52.6938
        XZ       1.3640     YZ      -9.2902     ZZ     -40.6407
    Octopole Moments (Debye-Ang^2)
       XXX     117.1145    XXY     -42.5528    XYY      27.4632
       YYY    -170.8917    XXZ      34.7858    XYZ       9.4456
       YYZ      17.4970    XZZ      35.5851    YZZ     -20.4618
       ZZZ      83.0139
    Hexadecapole Moments (Debye-Ang^3)
      XXXX    -511.3295   XXXY      84.7304   XXYY    -199.5311
      XYYY     105.7249   YYYY    -753.7081   XXXZ     -66.8235
      XXYZ      27.2747   XYYZ     -15.4385   YYYZ      37.0838
      XXZZ    -167.4645   XYZZ      17.5355   YYZZ    -126.8511
      XZZZ     -66.8876   YZZZ      26.8674   ZZZZ    -441.8039
 -----------------------------------------------------------------
 Calculating analytic gradient of the SCF energy
 Gradient of CDS energy
            1           2           3           4           5           6
    1   0.0001184   0.0003264  -0.0001349  -0.0000662  -0.0004503  -0.0001776
    2  -0.0000132  -0.0000706   0.0001636   0.0000806   0.0001724   0.0000804
    3   0.0001539   0.0003461   0.0003772   0.0001816  -0.0000400   0.0000052
            7           8           9          10          11          12
    1  -0.0000511  -0.0001269   0.0008053   0.0000109   0.0001369   0.0001894
    2  -0.0002463  -0.0000048   0.0020742  -0.0001821  -0.0002538  -0.0001038
    3  -0.0002572  -0.0001755   0.0001388  -0.0001457  -0.0001889  -0.0000160
           13          14          15          16
    1  -0.0006853   0.0000811   0.0001154  -0.0000914
    2  -0.0021345   0.0004501  -0.0000387   0.0000267
    3  -0.0000908  -0.0002342   0.0000250  -0.0000795
 Gradient of SCF Energy
            1           2           3           4           5           6
    1   0.0028884  -0.0030837   0.0031913  -0.0014894   0.0067394  -0.0059423
    2  -0.0001725   0.0064350  -0.0054738   0.0017939   0.0030719   0.0030604
    3   0.0032962  -0.0034933  -0.0058147   0.0037392   0.0020180  -0.0003102
            7           8           9          10          11          12
    1   0.0026872  -0.0048656  -0.0020902   0.0029112  -0.0067469   0.0053813
    2  -0.0100776   0.0038770   0.0061097  -0.0007800  -0.0044419  -0.0007637
    3   0.0082727  -0.0081395   0.0081569  -0.0082699  -0.0000083  -0.0000376
           13          14          15          16
    1   0.0060695  -0.0050083  -0.0022629   0.0016210
    2  -0.0049975   0.0065526  -0.0009933  -0.0032003
    3   0.0179079  -0.0158435  -0.0018567   0.0003830
 Max gradient component =       1.791E-02
 RMS gradient           =       5.712E-03
 Computing fast CPCM-SWIG gradient
 Updating gradient with PCM contributions...
 -- total gradient after adding PCM contribution --
---------------------------------------------------
  Atom         X              Y              Z     
---------------------------------------------------
   1      -0.000053       0.000041      -0.000037
   2       0.000019      -0.000001      -0.000011
   3      -0.000000       0.000040      -0.000022
   4       0.000006      -0.000033      -0.000067
   5      -0.000011      -0.000006      -0.000040
   6       0.000044      -0.000062       0.000004
   7       0.000092      -0.000124       0.000045
   8       0.000031      -0.000046       0.000032
   9      -0.000087       0.000070       0.000009
  10       0.000040      -0.000014       0.000097
  11      -0.000072       0.000003       0.000010
  12      -0.000018       0.000058       0.000017
  13       0.000186      -0.000158      -0.000187
  14      -0.000202      -0.000035       0.000203
  15      -0.000396       0.000166      -0.000224
  16       0.000422       0.000103       0.000172
---------------------------------------------------
 Number of fixed atoms: 0
 Gradient time:  CPU 277.33 s  wall 38.80 s
 Geometry Optimization Parameters
   NAtoms,    NIC,     NZ,  NCons,   NDum,   NFix, NCnnct, MaxDiis
       16     127       0       0       0       0       0       0

 Cartesian Hessian Update
 Hessian updated using BFGS update


** GEOMETRY OPTIMIZATION IN DELOCALIZED INTERNAL COORDINATES **
   Searching for a Minimum

   Optimization Cycle:   3

                       Coordinates (Angstroms)
     ATOM                X               Y               Z
      1  H         0.5215886404    1.0613023217    1.6069247763
      2  C        -0.1351733221    1.1345393889    0.7533922946
      3  C        -1.3834713090    1.7233814238    0.8338824910
      4  H        -1.7257753088    2.1398413615    1.7723905988
      5  C        -2.1959908685    1.7804418452   -0.2831876419
      6  H        -3.1792836269    2.2252892219   -0.2542509920
      7  C        -1.6859738575    1.1714779829   -1.5502197867
      8  H        -2.2768454468    1.4203298332   -2.4273340729
      9  C        -0.1849673147    1.4236689474   -1.7229938690
     10  H         0.1571242834    1.0014830809   -2.6669599555
     11  C         0.2792426931    0.5521261334   -0.5613195445
     12  H         1.3302161107    0.2811906144   -0.6099203742
     13  O         0.2333620452    2.7595283369   -1.5723157744
     14  H         0.0169568716    3.2344376438   -2.3818359925
     15  O        -1.7108342018   -0.2687265119   -1.4629548731
     16  O        -0.4489276884   -0.6661631240   -0.8207273838
   Point Group: c1    Number of degrees of freedom:    42


   Energy is   -458.364287680

 Hessian updated using BFGS update

 42 Hessian modes will be used to form the next step
  Hessian Eigenvalues:
     0.007596    0.010485    0.014083    0.015279    0.018528    0.020085
     0.024038    0.034438    0.039088    0.045579    0.052306    0.057766
     0.075430    0.076323    0.081261    0.095469    0.099885    0.103853
     0.157562    0.159125    0.159860    0.159999    0.167225    0.200824
     0.216216    0.241452    0.265717    0.302271    0.303478    0.323975
     0.342837    0.346436    0.346824    0.351587    0.353692    0.354680
     0.356356    0.380710    0.438168    0.464748    0.467147    0.576899

 Minimum search - taking simple RFO step
 Searching for Lamda that Minimizes Along All modes
 Value Taken    Lamda =  -0.00000981
 Step Taken.  Stepsize is  0.033688

                             Maximum     Tolerance    Cnvgd?
         Gradient           0.000238      0.000300     YES
         Displacement       0.014518      0.001200      NO
         Energy change     -0.000010      0.000001      NO


 New Cartesian Coordinates Obtained by Inverse Iteration

 Displacement from previous Coordinates is:  0.028193
 ----------------------------------------------------------------
             Standard Nuclear Orientation (Angstroms)
    I     Atom           X                Y                Z
 ----------------------------------------------------------------
    1      H       0.5223095640     1.0613459215     1.6067454413
    2      C      -0.1353988720     1.1345139944     0.7537558273
    3      C      -1.3841907321     1.7227446819     0.8348324785
    4      H      -1.7264522921     2.1390038498     1.7736059188
    5      C      -2.1973037607     1.7794380169    -0.2821438451
    6      H      -3.1807881518     2.2242203555    -0.2534893375
    7      C      -1.6872806910     1.1710007642    -1.5496952025
    8      H      -2.2784369599     1.4197113850    -2.4266438913
    9      C      -0.1864009616     1.4248537114    -1.7227433867
   10      H       0.1560859947     1.0038315275    -2.6671314657
   11      C       0.2789718088     0.5528591252    -0.5615393290
   12      H       1.3301238783     0.2828337892    -0.6108500731
   13      O       0.2302186290     2.7613211600    -1.5714925491
   14      H       0.0287848659     3.2319731188    -2.3870137836
   15      O      -1.7099935761    -0.2696243834    -1.4620784700
   16      O      -0.4490010435    -0.6658785177    -0.8215484323
 ----------------------------------------------------------------
 Nuclear Repulsion Energy =         477.89355695 hartrees
 There are       34 alpha and       33 beta electrons
 Discretize the solute cavity surface with Lebedev spheres
	Using 110 Lebedev grid points for each H atom
	Using 194 Lebedev grid points for other atoms
	Atomic van der Waals radii will be scaled by 1.20
 Remove points where switching function is < 1.0e-08
 Keep 1161 surface tesserae and discard 1355 interior tesserae
 Molecular Surface Area = 135.580 Angst**2
 Applying Cartesian multipole field
    Component          Value
    ---------          -----
     (2,0,0)        1.00000E-11
     (0,2,0)        2.00000E-11
     (0,0,2)       -3.00000E-11
 Nucleus-field energy     =     0.0000000032 hartrees
 Requested basis set is 6-311++G(2df,2p)
 There are 114 shells and 376 basis functions
 A cutoff of  1.0D-12 yielded   6212 shell pairs
 There are     68838 function pairs (     86555 Cartesian)
 Smallest overlap matrix eigenvalue = 3.65E-06
 Guess MOs from SCF MO coefficient file

 -----------------------------------------------------------------------
  General SCF calculation program by
  Eric Jon Sundstrom, Paul Horn, Yuezhi Mao, Dmitri Zuev, Alec White,
  David Stuck, Shaama M.S., Shane Yost, Joonho Lee, David Small,
  Daniel Levine, Susi Lehtola, Hugh Burton, Evgeny Epifanovsky,
  Bang C. Huynh
 -----------------------------------------------------------------------
 Exchange:     0.1500 Hartree-Fock + 1.0000 wB97M-V + LR-HF
 Correlation:  1.0000 wB97M-V
 Using SG-2 standard quadrature grid
 Nonlocal Correlation:  VV10 with C = 0.0100 and b = 6.00 and scale = 1.00000
 Grid used for NLC:  SG-1 standard quadrature
 
 Citation of the SMD model:
 Marenich, A.V.; Cramer, C.J.; Truhlar, D.G.
 J. Phys. Chem. B 2009, 113, 6378-6396.
 iSolventCode=           1
 Solvent: water                                                           
 
 vradii
            1           2           3           4           5           6
    1   1.2000000   1.8500000   1.8500000   1.2000000   1.8500000   1.2000000
            7           8           9          10          11          12
    1   1.8500000   1.2000000   1.8500000   1.2000000   1.8500000   1.2000000
           13          14          15          16
    1   1.5200000   1.2000000   1.5200000   1.5200000
 -------------------------------------------------------
 OpenMP BLAS3 based DFT computing Module                
 Release: version 1.0, May 2013, Q-Chem Inc. Pittsburgh 
 -------------------------------------------------------
 A unrestricted SCF calculation will be
 performed using Roothaan-Hall, DIIS, GDM
 SCF converges when RMS gradient is below 1.0e-07
 ---------------------------------------
  Cycle       Energy         DIIS error
 ---------------------------------------
    1    -458.3375780948      2.19e-04  Roothaan Step
 ---------------------------------------
  Cycle       Energy         DIIS error
 ---------------------------------------
    1    -458.3616915699      2.45e-04  
    2    -458.3663813404      1.87e-04  Done DIIS. Switching to GDM
 ---------------------------------------
  Cycle       Energy        RMS Gradient
 ---------------------------------------
    1    -458.3663813404      6.08e-03   Normal BFGS step
    2    -458.3668015743      7.25e-03   Normal BFGS step
    3    -458.3682298248      5.74e-04   Normal BFGS step
    4    -458.3682448198      6.30e-04   Normal BFGS step
    5    -458.3682520624      2.00e-04   Normal BFGS step
    6    -458.3682522521      8.38e-05   Normal BFGS step
    7    -458.3682523374      4.92e-05   Normal BFGS step
    8    -458.3682523539      3.35e-05   Normal BFGS step
    9    -458.3682523587      1.26e-05   Normal BFGS step
   10    -458.3682523599      4.43e-06   Normal BFGS step
   11    -458.3682523601      2.49e-06   Normal BFGS step
   12    -458.3682523601      1.84e-06   Normal BFGS step
   13    -458.3682523602      7.20e-07   Normal BFGS step
   14    -458.3682523602      2.82e-07   Normal BFGS step
   15    -458.3682523602      1.31e-07   Normal BFGS step
   16    -458.3682523601      5.18e-08  Convergence criterion met
 ---------------------------------------
 SCF time:   CPU 1532.63s  wall 194.00s 
<S^2> =          0.780543616
(3)  G-ENP(liq) elect-nuc-pol free energy of system     -458.368252360 a.u.
(4)  G-CDS(liq) cavity-dispersion-solvent structure 
     free energy                                                2.4835 kcal/mol
(6)  G-S(liq) free energy of system                     -458.364294588 a.u.
 SCF   energy in the final basis set =     -458.3642945877
 Total energy in the final basis set =     -458.3642945877
 
 --------------------------------------------------------------
 
                    Orbital Energies (a.u.)
 --------------------------------------------------------------
 
 Alpha MOs
 -- Occupied --
-19.4005 -19.4004 -19.3481 -10.4055 -10.4053 -10.4032 -10.3540 -10.3538
-10.3489  -1.2670  -1.1710  -1.0638  -0.9728  -0.8796  -0.8432  -0.7528
 -0.7182  -0.6818  -0.6606  -0.6216  -0.5826  -0.5752  -0.5574  -0.5365
 -0.5308  -0.5128  -0.4896  -0.4746  -0.4518  -0.4279  -0.4204  -0.3995
 -0.3610  -0.2843
 -- Virtual --
  0.0243   0.0368   0.0374   0.0463   0.0572   0.0581   0.0760   0.0804
  0.0866   0.0956   0.1121   0.1197   0.1360   0.1378   0.1426   0.1441
  0.1499   0.1541   0.1568   0.1591   0.1606   0.1624   0.1695   0.1823
  0.1888   0.1947   0.1972   0.2106   0.2148   0.2319   0.2340   0.2426
  0.2477   0.2617   0.2773   0.2826   0.2960   0.3031   0.3052   0.3197
  0.3330   0.3383   0.3460   0.3572   0.3589   0.3636   0.3723   0.3796
  0.3850   0.3887   0.3938   0.3999   0.4062   0.4195   0.4278   0.4325
  0.4377   0.4641   0.4839   0.5006   0.5015   0.5420   0.5472   0.5773
  0.5864   0.5974   0.6098   0.6134   0.6330   0.6439   0.6505   0.6720
  0.6815   0.6972   0.7051   0.7155   0.7198   0.7275   0.7330   0.7498
  0.7567   0.7704   0.7749   0.7922   0.7966   0.8117   0.8165   0.8388
  0.8486   0.8559   0.8726   0.8977   0.9368   0.9568   0.9659   0.9918
  1.0234   1.0404   1.0839   1.1008   1.1105   1.1219   1.1286   1.1533
  1.1548   1.1620   1.1724   1.1953   1.2112   1.2142   1.2232   1.2303
  1.2441   1.2541   1.2656   1.2776   1.2834   1.3107   1.3243   1.3298
  1.3444   1.3508   1.3574   1.3874   1.3922   1.3985   1.4204   1.4229
  1.4555   1.4658   1.4698   1.4892   1.5014   1.5266   1.5347   1.5469
  1.5544   1.5789   1.5864   1.6162   1.6260   1.6709   1.6758   1.6809
  1.6970   1.7642   1.7781   1.8075   1.8167   1.8488   1.8593   1.8751
  1.9372   1.9459   1.9903   2.0033   2.0116   2.0802   2.1192   2.1362
  2.1551   2.2490   2.2598   2.2713   2.3077   2.3696   2.4024   2.4244
  2.5082   2.6180   2.6449   2.6795   2.7282   2.7395   2.7462   2.7619
[...]
  7.6269   7.7119   7.8330   7.8903   7.9300   8.2284  24.3622  24.7175
 24.7345  24.8095  24.8987  25.2077  50.5884  50.6419  50.6487
 --------------------------------------------------------------
 
          Ground-State Mulliken Net Atomic Charges

     Atom                 Charge (a.u.)    Spin (a.u.)
  --------------------------------------------------------
      1 H                     0.311124      -0.013780
      2 C                    -0.298035       0.563754
      3 C                    -0.229741      -0.153468
      4 H                     0.288775       0.006299
      5 C                    -0.336013       0.564709
      6 H                     0.306156      -0.013122
      7 C                    -0.218014      -0.021616
      8 H                     0.285052       0.004975
      9 C                    -0.091499       0.024447
     10 H                     0.276079      -0.002439
     11 C                    -0.195215      -0.020494
     12 H                     0.283940       0.004786
     13 O                    -0.434834      -0.001148
     14 H                     0.342627      -0.000457
     15 O                    -0.141861       0.028572
     16 O                    -0.148540       0.028982
  --------------------------------------------------------
  Sum of atomic charges =    -0.000000
  Sum of spin   charges =     1.000000

 -----------------------------------------------------------------
                    Cartesian Multipole Moments
 -----------------------------------------------------------------
    Charge (ESU x 10^10)
                 0.0000
    Dipole Moment (Debye)
         X       0.4516      Y       3.7447      Z      -1.7175
       Tot       4.1445
    Quadrupole Moments (Debye-Ang)
        XX     -49.7113     XY      -8.5947     YY     -53.0012
        XZ       0.9970     YZ      -9.4047     ZZ     -40.3236
    Octopole Moments (Debye-Ang^2)
       XXX     117.5159    XXY     -42.4983    XYY      29.3099
       YYY    -172.5337    XXZ      34.6395    XYZ       8.2357
       YYZ      17.3980    XZZ      36.6220    YZZ     -19.7327
       ZZZ      81.6816
    Hexadecapole Moments (Debye-Ang^3)
      XXXX    -512.2556   XXXY      85.3080   XXYY    -199.8479
      XYYY     111.8309   YYYY    -760.9698   XXXZ     -66.9877
      XXYZ      27.1188   XYYZ     -19.3845   YYYZ      37.9883
      XXZZ    -167.3894   XYZZ      20.6270   YYZZ    -125.2211
      XZZZ     -69.2391   YZZZ      23.8299   ZZZZ    -437.6322
 -----------------------------------------------------------------
 Calculating analytic gradient of the SCF energy
 Gradient of CDS energy
            1           2           3           4           5           6
    1   0.0001188   0.0003268  -0.0001349  -0.0000662  -0.0004512  -0.0001779
    2  -0.0000131  -0.0000698   0.0001626   0.0000803   0.0001716   0.0000801
    3   0.0001538   0.0003459   0.0003773   0.0001819  -0.0000375   0.0000056
            7           8           9          10          11          12
    1  -0.0000526  -0.0001272   0.0007608   0.0000118   0.0001382   0.0001896
    2  -0.0002341  -0.0000052   0.0019815  -0.0001780  -0.0002539  -0.0001034
    3  -0.0002653  -0.0001753   0.0001424  -0.0001456  -0.0001893  -0.0000165
           13          14          15          16
    1  -0.0006464   0.0000866   0.0001156  -0.0000918
    2  -0.0020487   0.0004421  -0.0000384   0.0000265
    3  -0.0000816  -0.0002418   0.0000250  -0.0000792
 Gradient of SCF Energy
            1           2           3           4           5           6
    1   0.0029427  -0.0031796   0.0030576  -0.0014606   0.0067210  -0.0057816
    2  -0.0001905   0.0065494  -0.0055354   0.0017656   0.0032345   0.0029735
    3   0.0033076  -0.0033145  -0.0059821   0.0037040   0.0021297  -0.0003089
            7           8           9          10          11          12
    1   0.0023462  -0.0047653  -0.0019840   0.0030798  -0.0066174   0.0054938
    2  -0.0097867   0.0037241   0.0061380  -0.0007487  -0.0044048  -0.0008103
    3   0.0079358  -0.0079544   0.0085156  -0.0086896   0.0000920  -0.0000859
           13          14          15          16
    1   0.0044244  -0.0035924  -0.0017192   0.0010346
    2  -0.0044205   0.0061904  -0.0013578  -0.0033207
    3   0.0187486  -0.0166626  -0.0015302   0.0000950
 Max gradient component =       1.875E-02
 RMS gradient           =       5.733E-03
 Computing fast CPCM-SWIG gradient
 Updating gradient with PCM contributions...
 -- total gradient after adding PCM contribution --
---------------------------------------------------
  Atom         X              Y              Z     
---------------------------------------------------
   1       0.000008       0.000021       0.000007
   2      -0.000018       0.000006      -0.000000
   3      -0.000003      -0.000007      -0.000002
   4      -0.000018       0.000008       0.000003
   5      -0.000008      -0.000028      -0.000002
   6      -0.000016      -0.000009      -0.000016
   7      -0.000015       0.000126      -0.000039
   8      -0.000010      -0.000037       0.000001
   9      -0.000011      -0.000027       0.000002
  10       0.000011      -0.000003      -0.000010
  11       0.000107       0.000105       0.000033
  12       0.000009       0.000008       0.000018
  13      -0.000004      -0.000005       0.000037
  14      -0.000017       0.000011      -0.000042
  15       0.000189      -0.000158       0.000104
  16      -0.000204      -0.000012      -0.000094
---------------------------------------------------
 Number of fixed atoms: 0
 Gradient time:  CPU 249.90 s  wall 35.19 s
 Geometry Optimization Parameters
   NAtoms,    NIC,     NZ,  NCons,   NDum,   NFix, NCnnct, MaxDiis
       16     127       0       0       0       0       0       0

 Cartesian Hessian Update
 Hessian updated using BFGS update


** GEOMETRY OPTIMIZATION IN DELOCALIZED INTERNAL COORDINATES **
   Searching for a Minimum

   Optimization Cycle:   7

                       Coordinates (Angstroms)
     ATOM                X               Y               Z
      1  H         0.5221190841    1.0624935834    1.6063616378
      2  C        -0.1360819585    1.1351395414    0.7537547651
      3  C        -1.3861295936    1.7201189459    0.8366979522
      4  H        -1.7282485958    2.1346591969    1.7762671670
      5  C        -2.2006247765    1.7762768476   -0.2791647448
      6  H        -3.1847827486    2.2193444721   -0.2484039906
      7  C        -1.6908398275    1.1702156389   -1.5478450476
      8  H        -2.2841249255    1.4174339998   -2.4237920985
      9  C        -0.1906802087    1.4284776753   -1.7217830409
     10  H         0.1525161941    1.0113883466   -2.6674343465
     11  C         0.2783260242    0.5557988021   -0.5624488382
     12  H         1.3299430692    0.2877702941   -0.6132569727
     13  O         0.2189234637    2.7672178587   -1.5690098982
     14  H         0.0684484404    3.2229045222   -2.4041464887
     15  O        -1.7103833987   -0.2705418972   -1.4609717854
     16  O        -0.4471325424   -0.6645493277   -0.8222543700
   Point Group: c1    Number of degrees of freedom:    42


   Energy is   -458.364305939

 Hessian updated using BFGS update

 42 Hessian modes will be used to form the next step
  Hessian Eigenvalues:
     0.001947    0.010428    0.013933    0.015269    0.018497    0.020049
     0.024030    0.034442    0.039155    0.045908    0.052274    0.057770
     0.075351    0.076542    0.080657    0.093429    0.099140    0.104802
     0.153586    0.159666    0.159936    0.160028    0.166031    0.198634
     0.215825    0.223919    0.261804    0.270661    0.303508    0.326891
     0.342837    0.346491    0.347035    0.351808    0.354037    0.354684
     0.357489    0.372504    0.447469    0.462060    0.467053    0.566288

 Minimum search - taking simple RFO step
 Searching for Lamda that Minimizes Along All modes
 Value Taken    Lamda =  -0.00000031
 Step Taken.  Stepsize is  0.001904

                             Maximum     Tolerance    Cnvgd?
         Gradient           0.000101      0.000300     YES
         Displacement       0.000693      0.001200     YES
         Energy change     -0.000001      0.000001      NO

 Final energy is   -458.364305939399     


 ******************************
 **  OPTIMIZATION CONVERGED  **
 ******************************

                       Coordinates (Angstroms)
     ATOM                X               Y               Z
      1  H         0.5221190841    1.0624935834    1.6063616378
      2  C        -0.1360819585    1.1351395414    0.7537547651
      3  C        -1.3861295936    1.7201189459    0.8366979522
      4  H        -1.7282485958    2.1346591969    1.7762671670
      5  C        -2.2006247765    1.7762768476   -0.2791647448
      6  H        -3.1847827486    2.2193444721   -0.2484039906
      7  C        -1.6908398275    1.1702156389   -1.5478450476
      8  H        -2.2841249255    1.4174339998   -2.4237920985
      9  C        -0.1906802087    1.4284776753   -1.7217830409
     10  H         0.1525161941    1.0113883466   -2.6674343465
     11  C         0.2783260242    0.5557988021   -0.5624488382
     12  H         1.3299430692    0.2877702941   -0.6132569727
     13  O         0.2189234637    2.7672178587   -1.5690098982
     14  H         0.0684484404    3.2229045222   -2.4041464887
     15  O        -1.7103833987   -0.2705418972   -1.4609717854
     16  O        -0.4471325424   -0.6645493277   -0.8222543700

Z-matrix Print:
$molecule
0 2
O 
C  1 1.443274
H  2 1.086425 1 105.635958
O  1 1.469355 2 106.478760 3 -150.228816 0
C  4 1.443507 1 106.389167 2 -0.381431 0
H  5 1.086456 4 105.559585 1 150.611421 0
C  5 1.495574 4 110.413818 1 -85.825685 0
H  7 1.079732 5 120.075861 4 -105.791957 0
C  7 1.382644 5 117.862805 4 72.862396 0
H  9 1.082441 7 119.919599 5 -179.048589 0
C  9 1.382642 7 120.090176 5 0.937139 0
H  11 1.079558 9 122.162251 7 -179.245266 0
C  2 1.524989 1 101.094422 3 118.794987 0
H  13 1.089038 2 110.123500 1 -65.100076 0
O  13 1.408311 2 111.843023 1 170.322602 0
H  15 0.963196 13 108.073265 2 167.806622 0
$end

 
 --------------------------------------------------------------
 
                    Orbital Energies (a.u.)
 --------------------------------------------------------------
 
 Alpha MOs
 -- Occupied --
-19.4004 -19.4003 -19.3481 -10.4055 -10.4052 -10.4030 -10.3540 -10.3537
-10.3489  -1.2667  -1.1709  -1.0638  -0.9728  -0.8795  -0.8432  -0.7526
 -0.7180  -0.6822  -0.6602  -0.6218  -0.5827  -0.5749  -0.5576  -0.5362
 -0.5309  -0.5121  -0.4894  -0.4744  -0.4532  -0.4274  -0.4201  -0.4002
 -0.3606  -0.2843
 -- Virtual --
  0.0243   0.0368   0.0374   0.0463   0.0571   0.0581   0.0761   0.0802
  0.0866   0.0955   0.1119   0.1199   0.1360   0.1376   0.1424   0.1440
  0.1497   0.1541   0.1568   0.1591   0.1606   0.1623   0.1693   0.1826
  0.1889   0.1947   0.1971   0.2105   0.2150   0.2323   0.2344   0.2427
  0.2475   0.2616   0.2771   0.2824   0.2961   0.3030   0.3053   0.3202
  0.3332   0.3384   0.3455   0.3570   0.3591   0.3641   0.3719   0.3785
  0.3847   0.3889   0.3945   0.4004   0.4063   0.4181   0.4277   0.4329
  0.4391   0.4642   0.4843   0.5005   0.5013   0.5423   0.5471   0.5771
  0.5861   0.5977   0.6103   0.6133   0.6332   0.6435   0.6502   0.6706
  0.6815   0.6965   0.7054   0.7161   0.7203   0.7276   0.7329   0.7486
  0.7579   0.7705   0.7741   0.7923   0.7969   0.8116   0.8166   0.8390
  0.8492   0.8554   0.8730   0.8979   0.9328   0.9545   0.9693   0.9938
  1.0246   1.0422   1.0835   1.1003   1.1116   1.1225   1.1290   1.1524
  1.1564   1.1622   1.1713   1.1944   1.2115   1.2129   1.2228   1.2288
  1.2437   1.2541   1.2655   1.2785   1.2839   1.3114   1.3250   1.3297
  1.3439   1.3498   1.3568   1.3883   1.3922   1.3986   1.4199   1.4232
  1.4555   1.4650   1.4708   1.4888   1.5007   1.5254   1.5346   1.5469
  1.5547   1.5791   1.5866   1.6164   1.6268   1.6714   1.6760   1.6833
  1.6941   1.7643   1.7781   1.8073   1.8163   1.8492   1.8577   1.8759
  1.9377   1.9485   1.9886   2.0027   2.0119   2.0796   2.1197   2.1362
  2.1550   2.2477   2.2583   2.2711   2.3082   2.3681   2.4020   2.4253
  2.5065   2.6176   2.6455   2.6813   2.7254   2.7372   2.7496   2.7596
  2.7858   2.8032   2.8308   2.8360   2.8535   2.8574   2.8776   2.8897
  2.9109   2.9332   2.9427   2.9590   2.9661   2.9858   3.0016   3.0164
  3.0402   3.0612   3.0965   3.1224   3.1722   3.1863   3.2008   3.2103
  3.2725   3.2899   3.3150   3.3426   3.3571   3.3735   3.3757   3.3888
  3.4032   3.4227   3.4437   3.4661   3.4866   3.4945   3.5141   3.5352
  3.5549   3.5814   3.6135   3.6378   3.6515   3.6573   3.6833   3.6991
  3.7188   3.7324   3.7470   3.7553   3.7774   3.7787   3.8097   3.8194
  3.8434   3.8725   3.8875   3.8959   3.9097   3.9275   3.9480   3.9921
  4.0115   4.0283   4.0418   4.0639   4.0899   4.0948   4.1017   4.1250
  4.2100   4.2596   4.2643   4.2732   4.3012   4.3083   4.3336   4.3624
  4.3801   4.3906   4.4211   4.4321   4.4653   4.4951   4.5044   4.5394
  4.5569   4.6126   4.6219   4.6240   4.6371   4.6460   4.6632   4.6920
  4.7417   4.7530   4.7840   4.8176   4.8685   4.9517   5.0067   5.1052
  5.1359   5.1656   5.2189   5.2512   5.2654   5.2900   5.2936   5.3224
  5.3439   5.3563   5.4000   5.4340   5.4601   5.4920   5.5110   5.5189
  5.5907   5.6147   5.6233   5.6304   5.6988   5.7130   5.7660   5.7681
  5.8146   5.8924   5.9282   5.9470   6.0280   6.0424   6.0686   6.1614
  6.2585   6.5962   6.6017   6.7250   6.7299   7.0210   7.1199   7.2875
  7.3024   7.3336   7.3777   7.4155   7.4389   7.4690   7.5094   7.6221
  7.7118   7.8320   7.8878   7.9270   8.2269  24.3593  24.7173  24.7304
 24.8092  24.8954  25.2046  50.5873  50.6409  50.6485
 
 Beta MOs
 -- Occupied --
-19.3991 -19.3990 -19.3482 -10.4058 -10.4048 -10.4036 -10.3520 -10.3457
-10.3455  -1.2641  -1.1706  -1.0606  -0.9657  -0.8770  -0.8279  -0.7503
 -0.7100  -0.6805  -0.6561  -0.6185  -0.5780  -0.5693  -0.5515  -0.5332
 -0.5269  -0.5083  -0.4881  -0.4693  -0.4506  -0.4201  -0.3979  -0.3899
 -0.3550
 -- Virtual --
 -0.0185   0.0236   0.0363   0.0369   0.0457   0.0568   0.0577   0.0823
  0.0854   0.0868   0.0996   0.1120   0.1211   0.1352   0.1376   0.1427
  0.1446   0.1501   0.1538   0.1574   0.1597   0.1605   0.1615   0.1700
  0.1838   0.1884   0.1949   0.1995   0.2104   0.2127   0.2321   0.2342
  0.2415   0.2481   0.2642   0.2787   0.2839   0.2982   0.3052   0.3107
  0.3226   0.3344   0.3419   0.3472   0.3569   0.3620   0.3658   0.3750
  0.3813   0.3850   0.3881   0.3950   0.4015   0.4069   0.4188   0.4292
  0.4350   0.4396   0.4657   0.4847   0.5036   0.5046   0.5445   0.5495
  0.5814   0.5901   0.6042   0.6125   0.6190   0.6322   0.6523   0.6603
  0.6730   0.6848   0.6990   0.7094   0.7191   0.7219   0.7301   0.7342
  0.7527   0.7623   0.7772   0.7793   0.7965   0.8003   0.8163   0.8201
  0.8387   0.8570   0.8641   0.8756   0.8988   0.9340   0.9552   0.9710
  0.9961   1.0260   1.0450   1.0856   1.1025   1.1120   1.1249   1.1309
  1.1548   1.1593   1.1655   1.1758   1.1968   1.2142   1.2164   1.2252
  1.2320   1.2452   1.2564   1.2658   1.2809   1.2864   1.3141   1.3278
  1.3308   1.3456   1.3525   1.3594   1.3909   1.3947   1.4009   1.4224
  1.4295   1.4601   1.4699   1.4733   1.4928   1.5046   1.5295   1.5413
  1.5513   1.5585   1.5824   1.5905   1.6191   1.6325   1.6755   1.6806
  1.6889   1.6972   1.7703   1.7791   1.8123   1.8225   1.8513   1.8612
  1.8780   1.9401   1.9547   1.9917   2.0088   2.0171   2.0827   2.1233
  2.1419   2.1576   2.2492   2.2615   2.2732   2.3093   2.3709   2.4039
  2.4281   2.5090   2.6243   2.6571   2.6837   2.7292   2.7474   2.7569
  2.7745   2.8014   2.8122   2.8403   2.8516   2.8576   2.8684   2.8879
  2.9042   2.9238   2.9478   2.9639   2.9674   2.9871   3.0045   3.0266
  3.0337   3.0479   3.0702   3.1177   3.1282   3.1929   3.1975   3.2154
  3.2202   3.2853   3.3044   3.3255   3.3519   3.3679   3.3814   3.3971
  3.3979   3.4131   3.4328   3.4535   3.4775   3.4951   3.5014   3.5293
  3.5555   3.5627   3.6009   3.6194   3.6459   3.6613   3.6724   3.6980
  3.7075   3.7225   3.7398   3.7541   3.7683   3.7893   3.7944   3.8171
  3.8276   3.8542   3.8812   3.8917   3.9011   3.9201   3.9356   3.9579
  3.9974   4.0276   4.0379   4.0484   4.0712   4.0987   4.1010   4.1075
  4.1357   4.2132   4.2676   4.2774   4.2842   4.3073   4.3156   4.3472
  4.3679   4.3872   4.3994   4.4346   4.4451   4.4716   4.5027   4.5119
  4.5457   4.5653   4.6214   4.6330   4.6379   4.6448   4.6592   4.6824
  4.6975   4.7485   4.7556   4.7945   4.8282   4.8794   4.9620   5.0179
  5.1168   5.1509   5.1745   5.2347   5.2599   5.2687   5.2918   5.2967
  5.3246   5.3462   5.3580   5.4024   5.4385   5.4638   5.5001   5.5159
  5.5291   5.5958   5.6170   5.6286   5.6441   5.7031   5.7249   5.7693
  5.7737   5.8173   5.8995   5.9286   5.9515   6.0377   6.0559   6.0766
  6.1714   6.2602   6.5993   6.6046   6.7260   6.7316   7.0240   7.1202
  7.2907   7.3041   7.3338   7.3800   7.4201   7.4401   7.4716   7.5116
  7.6269   7.7119   7.8330   7.8903   7.9300   8.2284  24.3622  24.7175
 24.7345  24.8095  24.8987  25.2077  50.5884  50.6419  50.6487
 --------------------------------------------------------------
 
          Ground-State Mulliken Net Atomic Charges

     Atom                 Charge (a.u.)    Spin (a.u.)
  --------------------------------------------------------
      1 H                     0.311124      -0.013780
      2 C                    -0.298035       0.563754
      3 C                    -0.229741      -0.153468
      4 H                     0.288775       0.006299
      5 C                    -0.336013       0.564709
      6 H                     0.306156      -0.013122
      7 C                    -0.218014      -0.021616
      8 H                     0.285052       0.004975
      9 C                    -0.091499       0.024447
     10 H                     0.276079      -0.002439
     11 C                    -0.195215      -0.020494
     12 H                     0.283940       0.004786
     13 O                    -0.434834      -0.001148
     14 H                     0.342627      -0.000457
     15 O                    -0.141861       0.028572
     16 O                    -0.148540       0.028982
  --------------------------------------------------------
  Sum of atomic charges =    -0.000000
  Sum of spin   charges =     1.000000

 -----------------------------------------------------------------
                    Cartesian Multipole Moments
 -----------------------------------------------------------------
    Charge (ESU x 10^10)
                 0.0000
    Dipole Moment (Debye)
         X       0.4516      Y       3.7447      Z      -1.7175
       Tot       4.1445
    Quadrupole Moments (Debye-Ang)
        XX     -49.7113     XY      -8.5947     YY     -53.0012
        XZ       0.9970     YZ      -9.4047     ZZ     -40.3236
    Octopole Moments (Debye-Ang^2)
       XXX     117.5159    XXY     -42.4983    XYY      29.3099
       YYY    -172.5337    XXZ      34.6395    XYZ       8.2357
       YYZ      17.3980    XZZ      36.6220    YZZ     -19.7327
       ZZZ      81.6816
    Hexadecapole Moments (Debye-Ang^3)
      XXXX    -512.2556   XXXY      85.3080   XXYY    -199.8479
      XYYY     111.8309   YYYY    -760.9698   XXXZ     -66.9877
      XXYZ      27.1188   XYYZ     -19.3845   YYYZ      37.9883
      XXZZ    -167.3894   XYZZ      20.6270   YYZZ    -125.2211
      XZZZ     -69.2391   YZZZ      23.8299   ZZZZ    -437.6322
 -----------------------------------------------------------------
 Total job time:  1592.49s(wall), 12368.39s(cpu) 
 Tue Feb  6 22:16:29 2024

        *************************************************************
        *                                                           *
        *  Thank you very much for using Q-Chem.  Have a nice day.  *
        *                                                           *
        *************************************************************


