
Running Job 1 of 1 Q_in.in
qchem Q_in.in_2717.0 /scratch/ari.fischer/qChem2208536.hpc-mn1/qchem2717/ 0
/usr/local/qchem-5.4.1/exe/qcprog.exe_s Q_in.in_2717.0 /scratch/ari.fischer/qChem2208536.hpc-mn1/qchem2717/
                  Welcome to Q-Chem
     A Quantum Leap Into The Future Of Chemistry


 Q-Chem 5.4, Q-Chem, Inc., Pleasanton, CA (2021)

 License issued to: Nanyang Technological University (site)

 E. Epifanovsky,  A. T. B. Gilbert,  Xintian Feng,  Joonho Lee,  Yuezhi Mao,  
 N. Mardirossian,  P. Pokhilko,  A. White,  M. Wormit,  M. P. Coons,  
 A. L. Dempwolff,  Zhengting Gan,  D. Hait,  P. R. Horn,  L. D. Jacobson,  
 I. Kaliman,  J. Kussmann,  A. W. Lange,  Ka Un Lao,  D. S. Levine,  Jie Liu,  
 S. C. McKenzie,  A. F. Morrison,  K. Nanda,  F. Plasser,  D. R. Rehn,  
 M. L. Vidal,  Zhi-Qiang You,  Ying Zhu,  B. Alam,  B. Albrecht,  
 A. Aldossary,  E. Alguire,  J. H. Andersen,  D. Barton,  K. Begam,  A. Behn,  
 Y. A. Bernard,  E. J. Berquist,  H. Burton,  A. Carreras,  K. Carter-Fenk,  
 R. Chakraborty,  A. D. Chien,  K. D. Closser,  V. Cofer-Shabica,  
 S. Dasgupta,  Jia Deng,  M. de Wergifosse,  M. Diedenhofen,  Hainam Do,  
 S. Ehlert,  Po-Tung Fang,  S. Fatehi,  Qingguo Feng,  T. Friedhoff,  
 J. Gayvert,  Qinghui Ge,  G. Gidofalvi,  M. Goldey,  J. Gomes,  
 C. Gonzalez-Espinoza,  S. Gulania,  A. Gunina,  M. W. D. Hanson-Heine,  
 P. H. P. Harbach,  A. W. Hauser,  M. F. Herbst,  M. Hernandez Vera,  
 M. Hodecker,  Z. C. Holden,  S. Houck,  Xunkun Huang,  Kerwin Hui,  
 B. C. Huynh,  M. Ivanov,  Hyunjun Ji,  Hanjie Jiang,  B. Kaduk,  S. Kaehler,  
 K. Khistyaev,  Jaehoon Kim,  P. Klunzinger,  Z. Koczor-Benda,  
 Joong Hoon Koh,  D. Kosenkov,  L. Koulias,  T. Kowalczyk,  C. M. Krauter,  
 K. Kue,  A. Kunitsa,  T. Kus,  A. Landau,  K. V. Lawler,  D. Lefrancois,  
 S. Lehtola,  Rain Li,  Yi-Pei Li,  Jiashu Liang,  M. Liebenthal,  
 Hung-Hsuan Lin,  You-Sheng Lin,  Fenglai Liu,  Kuan-Yu Liu,  
 M. Loipersberger,  A. Luenser,  A. Manjanath,  P. Manohar,  E. Mansoor,  
 S. F. Manzer,  Shan-Ping Mao,  A. V. Marenich,  T. Markovich,  S. Mason,  
 S. A. Maurer,  P. F. McLaughlin,  M. F. S. J. Menger,  J.-M. Mewes,  
 S. A. Mewes,  P. Morgante,  J. W. Mullinax,  K. J. Oosterbaan,  G. Paran,  
 Alexander C. Paul,  Suranjan K. Paul,  F. Pavosevic,  Zheng Pei,  S. Prager,  
 E. I. Proynov,  E. Ramos,  B. Rana,  A. E. Rask,  A. Rettig,  R. M. Richard,  
 F. Rob,  E. Rossomme,  T. Scheele,  M. Scheurer,  M. Schneider,  
 N. Sergueev,  S. M. Sharada,  W. Skomorowski,  D. W. Small,  C. J. Stein,  
 Yu-Chuan Su,  E. J. Sundstrom,  Zhen Tao,  J. Thirman,  T. Tsuchimochi,  
 N. M. Tubman,  S. P. Veccham,  O. Vydrov,  J. Wenzel,  J. Witte,  A. Yamada,  
 Kun Yao,  S. Yeganeh,  S. R. Yost,  A. Zech,  Igor Ying Zhang,  Xing Zhang,  
 Yu Zhang,  D. Zuev,  A. Aspuru-Guzik,  A. T. Bell,  N. A. Besley,  
 K. B. Bravaya,  B. R. Brooks,  D. Casanova,  Jeng-Da Chai,  S. Coriani,  
 C. J. Cramer,  A. E. DePrince, III,  R. A. DiStasio Jr.,  A. Dreuw,  
 B. D. Dunietz,  T. R. Furlani,  W. A. Goddard III,  S. Grimme,  
 S. Hammes-Schiffer,  T. Head-Gordon,  W. J. Hehre,  Chao-Ping Hsu,  
 T.-C. Jagau,  Yousung Jung,  A. Klamt,  Jing Kong,  D. S. Lambrecht,  
 WanZhen Liang,  N. J. Mayhall,  C. W. McCurdy,  J. B. Neaton,  
 C. Ochsenfeld,  J. A. Parkhill,  R. Peverati,  V. A. Rassolov,  Yihan Shao,  
 L. V. Slipchenko,  T. Stauch,  R. P. Steele,  J. E. Subotnik,  
 A. J. W. Thom,  A. Tkatchenko,  D. G. Truhlar,  T. Van Voorhis,  
 T. A. Wesolowski,  K. B. Whaley,  H. L. Woodcock III,  P. M. Zimmerman,  
 S. Faraji,  P. M. W. Gill,  M. Head-Gordon,  J. M. Herbert,  A. I. Krylov

 Additional authors for Version 5.4.1: 
 S. Kotaru,  Shaozhi Li,  Xiangyuan Li,  F. Matz,  A. Molle,  Haisheng Ren,  
 Yingli Su,  Hung-Yi Tsai,  C. Utku,  Fang Wang

 Contributors to earlier versions of Q-Chem not listed above: 
 R. D. Adamson,  B. Austin,  R. Baer,  J. Baker,  G. J. O. Beran,  
 K. Brandhorst,  S. T. Brown,  E. F. C. Byrd,  A. K. Chakraborty,  
 G. K. L. Chan,  Chun-Min Chang,  Yunqing Chen,  C.-L. Cheng,  
 Siu Hung Chien,  D. M. Chipman,  D. L. Crittenden,  H. Dachsel,  
 R. J. Doerksen,  A. D. Dutoi,  R. G. Edgar,  J. Fosso-Tande,  
 L. Fusti-Molnar,  D. Ghosh,  A. Ghysels,  A. Golubeva-Zadorozhnaya,  
 J. Gonthier,  M. S. Gordon,  S. R. Gwaltney,  G. Hawkins,  J. E. Herr,  
 A. Heyden,  S. Hirata,  E. G. Hohenstein,  G. Kedziora,  F. J. Keil,  
 C. Kelley,  Jihan Kim,  R. A. King,  R. Z. Khaliullin,  P. P. Korambath,  
 W. Kurlancheek,  A. Laurent,  A. M. Lee,  M. S. Lee,  S. V. Levchenko,  
 Ching Yeh Lin,  D. Liotard,  E. Livshits,  R. C. Lochan,  I. Lotan,  
 L. A. Martinez-Martinez,  P. E. Maslen,  N. Nair,  D. P. O'Neill,  
 D. Neuhauser,  E. Neuscamman,  C. M. Oana,  R. Olivares-Amaya,  R. Olson,  
 T. M. Perrine,  B. Peters,  P. A. Pieniazek,  A. Prociuk,  Y. M. Rhee,  
 J. Ritchie,  M. A. Rohrdanz,  E. Rosta,  N. J. Russ,  H. F. Schaefer III,  
 M. W. Schmidt,  N. E. Schultz,  S. Sharma,  N. Shenvi,  C. D. Sherrill,  
 A. C. Simmonett,  A. Sodt,  T. Stein,  D. Stuck,  K. S. Thanthiriwatte,  
 V. Vanovschi,  L. Vogt,  Tao Wang,  A. Warshel,  M. A. Watson,  
 C. F. Williams,  Q. Wu,  X. Xu,  Jun Yang,  W. Zhang,  Yan Zhao

 Please cite Q-Chem as follows:
 Y. Shao et al., Mol. Phys. 113, 184-215 (2015)
 DOI: 10.1080/00268976.2014.952696

 Q-Chem 5.4.1 for Intel X86 EM64T Linux

 Parts of Q-Chem use Armadillo 9.800.1 (Horizon Scraper).
 http://arma.sourceforge.net/

 Q-Chem begins on Wed Jul  3 16:41:55 2024  

 Host: 
0

     Scratch files written to /scratch/ari.fischer/qChem2208536.hpc-mn1/qchem2717//
 Aug1521 |scratch|qcdevops|jenkins|workspace|build_RNUM 8249   
 Processing $rem in /usr/local/qchem-5.4.1/config/preferences:
 Processing $rem in /home/ari.fischer/.qchemrc:
 Symmetry turned off for PCM/SM12/SMD calculation


!!********************************************.
!!******************Warning*******************.
!!Desired Analytical derivatives not available.
!!Finite difference job might take a long time.
!!********************************************.
!!********************************************.


 2-order derivative to be evaluated numerically with 1-order analytical derivatives

 Checking the input file for inconsistencies... 	...done.

--------------------------------------------------------------
User input:
--------------------------------------------------------------
$molecule
-1 2
C         2.7737278708   -0.9941356229   -1.2296684053
O         1.5661201678   -0.2939087776   -1.0478388830
C         3.5640872768   -0.8841968918    0.0803697895
O         2.8850540072   -1.6620343718    1.0236684204
C         3.7487921949    0.5681571043    0.5087780432
C         4.8547083179    0.7564209515    1.5446380311
O         6.0967680773    0.7663639847    1.0769928278
H         3.3581752614   -0.5600443915   -2.0387457175
H         1.1522939703   -0.1826014687   -1.9111496123
H         2.7957705481    0.9014173587    0.9140141571
H         3.9844859065    1.1850652863   -0.3595260990
H         4.6966682365    0.1362694371    2.4379815947
O         2.5486140394   -2.3357380841   -1.5841842458
H         2.1609503249   -2.7859882457   -0.8218620972
O         4.8183074310   -1.5706234612   -0.0798020453
O         5.6766474055   -0.7991425610   -0.9231003406
H         3.2802807119   -1.5349902013    1.8951667694
H         6.0195928996   -0.1375998318   -0.2453493188
O         4.6038983238    2.1728585936    2.1217907883
O         3.5734082181    2.2205271118    2.9102288299
H         6.3012311819    1.9823136189   -0.1522094520
O         6.4555870718    2.6474231566   -0.8637411313
H         5.8612785564    2.3822455057   -1.5726435031
$end

$rem
BASIS = 6-311++G(2df,2p)
GUI = 2
JOB_TYPE = Frequency
METHOD = wB97M-V
SOLVENT_METHOD = SMD
SCF_ALGORITHM = DIIS_GDM
MAX_SCF_CYCLES = 400
SCF_CONVERGENCE = 7
THRESH = 12
$end
--------------------------------------------------------------
 ----------------------------------------------------------------
             Standard Nuclear Orientation (Angstroms)
    I     Atom           X                Y                Z
 ----------------------------------------------------------------
    1      C       2.7737278708    -0.9941356229    -1.2296684053
    2      O       1.5661201678    -0.2939087776    -1.0478388830
    3      C       3.5640872768    -0.8841968918     0.0803697895
    4      O       2.8850540072    -1.6620343718     1.0236684204
    5      C       3.7487921949     0.5681571043     0.5087780432
    6      C       4.8547083179     0.7564209515     1.5446380311
    7      O       6.0967680773     0.7663639847     1.0769928278
    8      H       3.3581752614    -0.5600443915    -2.0387457175
    9      H       1.1522939703    -0.1826014687    -1.9111496123
   10      H       2.7957705481     0.9014173587     0.9140141571
   11      H       3.9844859065     1.1850652863    -0.3595260990
   12      H       4.6966682365     0.1362694371     2.4379815947
   13      O       2.5486140394    -2.3357380841    -1.5841842458
   14      H       2.1609503249    -2.7859882457    -0.8218620972
   15      O       4.8183074310    -1.5706234612    -0.0798020453
   16      O       5.6766474055    -0.7991425610    -0.9231003406
   17      H       3.2802807119    -1.5349902013     1.8951667694
   18      H       6.0195928996    -0.1375998318    -0.2453493188
   19      O       4.6038983238     2.1728585936     2.1217907883
   20      O       3.5734082181     2.2205271118     2.9102288299
   21      H       6.3012311819     1.9823136189    -0.1522094520
   22      O       6.4555870718     2.6474231566    -0.8637411313
   23      H       5.8612785564     2.3822455057    -1.5726435031
 ----------------------------------------------------------------
 Nuclear Repulsion Energy =         953.80845123 hartrees
 There are       54 alpha and       53 beta electrons
 Requested basis set is 6-311++G(2df,2p)
 There are 164 shells and 542 basis functions

 Total QAlloc Memory Limit 288000 MB
 Mega-Array Size       188 MB
 MEM_STATIC part       192 MB
 
 Citation of the SMD model:
 Marenich, A.V.; Cramer, C.J.; Truhlar, D.G.
 J. Phys. Chem. B 2009, 113, 6378-6396.
 iSolventCode=           1
 Solvent: water                                                           
 
 vradii
            1           2           3           4           5           6
    1   1.8500000   1.5200000   1.8500000   1.5200000   1.8500000   1.8500000
            7           8           9          10          11          12
    1   1.5200000   1.2000000   1.2000000   1.2000000   1.2000000   1.2000000
           13          14          15          16          17          18
    1   1.5200000   1.2000000   1.5200000   1.5200000   1.2000000   1.2000000
           19          20          21          22          23
    1   1.5200000   1.5200000   1.2000000   1.5200000   1.2000000
 Changing PCM_VDW_RADII to SMD_RADIUS
 Discretize the solute cavity surface with Lebedev spheres
	Using 110 Lebedev grid points for each H atom
	Using 194 Lebedev grid points for other atoms
	Atomic van der Waals radii will be scaled by 1.20
 Remove points where switching function is < 1.0e-08
 Keep 1834 surface tesserae and discard 1788 interior tesserae
 Molecular Surface Area = 202.371 Angst**2
 A cutoff of  1.0D-12 yielded  11266 shell pairs
 There are    119415 function pairs (    147520 Cartesian)
 Smallest overlap matrix eigenvalue = 4.40E-06
 Guess from superposition of atomic densities
 Warning:  Energy on first SCF cycle will be non-variational
 SAD guess density has 106.000000 electrons

 -----------------------------------------------------------------------
  General SCF calculation program by
  Eric Jon Sundstrom, Paul Horn, Yuezhi Mao, Dmitri Zuev, Alec White,
  David Stuck, Shaama M.S., Shane Yost, Joonho Lee, David Small,
  Daniel Levine, Susi Lehtola, Hugh Burton, Evgeny Epifanovsky,
  Bang C. Huynh
 -----------------------------------------------------------------------
 Exchange:     0.1500 Hartree-Fock + 1.0000 wB97M-V + LR-HF
 Correlation:  1.0000 wB97M-V
 Using SG-2 standard quadrature grid
 Nonlocal Correlation:  VV10 with C = 0.0100 and b = 6.00 and scale = 1.00000
 Grid used for NLC:  SG-1 standard quadrature
 using 16 threads for integral computing
 -------------------------------------------------------
 OpenMP Integral computing Module                
 Release: version 1.0, May 2013, Q-Chem Inc. Pittsburgh 
 -------------------------------------------------------
 
 Citation of the SMD model:
 Marenich, A.V.; Cramer, C.J.; Truhlar, D.G.
 J. Phys. Chem. B 2009, 113, 6378-6396.
 iSolventCode=           1
 Solvent: water                                                           
 
 vradii
            1           2           3           4           5           6
    1   1.8500000   1.5200000   1.8500000   1.5200000   1.8500000   1.8500000
            7           8           9          10          11          12
    1   1.5200000   1.2000000   1.2000000   1.2000000   1.2000000   1.2000000
           13          14          15          16          17          18
    1   1.5200000   1.2000000   1.5200000   1.5200000   1.2000000   1.2000000
           19          20          21          22          23
    1   1.5200000   1.5200000   1.2000000   1.5200000   1.2000000
 -------------------------------------------------------
 OpenMP BLAS3 based DFT computing Module                
 Release: version 1.0, May 2013, Q-Chem Inc. Pittsburgh 
 -------------------------------------------------------
 A unrestricted SCF calculation will be
 performed using DIIS, GDM
 SCF converges when RMS gradient is below 1.0e-07
 ---------------------------------------
  Cycle       Energy         DIIS error
 ---------------------------------------
    1    -837.3650597855      1.03e-02  
    2    -835.1877303653      1.61e-03  Done DIIS. Switching to GDM
 ---------------------------------------
  Cycle       Energy        RMS Gradient
 ---------------------------------------
    1    -835.1877303653      9.05e-02   Descent step
    2    -835.4208220163      4.19e-02   Descent step
    3    -835.4682915205      1.89e-02   Normal BFGS step
    4    -835.4829187839      1.28e-02   Normal BFGS step
    5    -835.4839540361      6.72e-03   Normal BFGS step
    6    -835.4841577817      2.91e-03   Normal BFGS step
    7    -835.4842271531      2.01e-03   Normal BFGS step
    8    -835.4842491669      9.53e-04   Normal BFGS step
    9    -835.4842561131      6.32e-04   Normal BFGS step
   10    -835.4842576948      4.98e-04   Normal BFGS step
   11    -835.4842584180      3.19e-04   Normal BFGS step
   12    -835.4842588658      2.14e-04   Normal BFGS step
   13    -835.4842593166      2.28e-04   Normal BFGS step
   14    -835.4842595185      1.42e-04   Normal BFGS step
   15    -835.4842596048      5.20e-05   Normal BFGS step
   16    -835.4842596177      8.76e-06   Normal BFGS step
   17    -835.4842596211      4.14e-06   Normal BFGS step
   18    -835.4842596215      1.19e-06   Normal BFGS step
   19    -835.4842596215      6.39e-07   Normal BFGS step
   20    -835.4842596215      2.98e-07   Normal BFGS step
   21    -835.4842596215      2.08e-07   Normal BFGS step
   22    -835.4842596214      5.00e-08  Convergence criterion met
 ---------------------------------------
 SCF time:   CPU 5151.40s  wall 358.00s 
<S^2> =          0.754269053
(3)  G-ENP(liq) elect-nuc-pol free energy of system     -835.484259621 a.u.
(4)  G-CDS(liq) cavity-dispersion-solvent structure 
     free energy                                                3.4007 kcal/mol
(6)  G-S(liq) free energy of system                     -835.478840233 a.u.
 SCF   energy in the final basis set =     -835.4788402335
 Total energy in the final basis set =     -835.4788402335
 
 --------------------------------------------------------------
 
                    Orbital Energies (a.u.)
 --------------------------------------------------------------
 
 Alpha MOs
 -- Occupied --
-19.4384 -19.3997 -19.3936 -19.3714 -19.3568 -19.3457 -19.3446 -19.3130
-19.2762 -10.4604 -10.4448 -10.4342 -10.3369  -1.3216  -1.2649  -1.2072
 -1.1771  -1.1352  -1.1234  -1.1084  -1.0194  -0.9616  -0.8941  -0.8277
 -0.7450  -0.7129  -0.6860  -0.6503  -0.6429  -0.6332  -0.6186  -0.6067
 -0.5893  -0.5867  -0.5718  -0.5667  -0.5540  -0.5337  -0.5155  -0.5107
 -0.4928  -0.4771  -0.4713  -0.4539  -0.4414  -0.4283  -0.4173  -0.4148
 -0.4086  -0.3986  -0.3863  -0.3735  -0.3571  -0.3418
 -- Virtual --
  0.0292   0.0380   0.0450   0.0525   0.0626   0.0659   0.0749   0.0804
  0.0854   0.0934   0.1103   0.1154   0.1209   0.1335   0.1364   0.1431
  0.1514   0.1553   0.1581   0.1661   0.1750   0.1764   0.1790   0.1845
  0.1907   0.1922   0.2072   0.2148   0.2214   0.2251   0.2391   0.2514
  0.2552   0.2592   0.2675   0.2692   0.2762   0.2810   0.2867   0.2892
  0.2916   0.2946   0.3014   0.3069   0.3141   0.3195   0.3255   0.3274
  0.3329   0.3368   0.3399   0.3471   0.3514   0.3522   0.3588   0.3659
  0.3686   0.3799   0.3839   0.3858   0.3924   0.3960   0.4006   0.4079
  0.4133   0.4157   0.4203   0.4244   0.4343   0.4420   0.4477   0.4525
  0.4582   0.4643   0.4668   0.4736   0.4785   0.4866   0.4929   0.5025
  0.5191   0.5406   0.5704   0.5830   0.6086   0.6128   0.6290   0.6384
  0.6452   0.6559   0.6629   0.6656   0.6767   0.6913   0.7026   0.7082
  0.7245   0.7307   0.7446   0.7512   0.7583   0.7689   0.7781   0.7807
  0.7940   0.8044   0.8334   0.8521   0.8634   0.8656   0.8878   0.9152
  0.9224   0.9403   0.9610   0.9800   0.9878   1.0003   1.0200   1.0422
  1.0457   1.0617   1.0671   1.0742   1.0803   1.0818   1.1021   1.1117
  1.1224   1.1313   1.1451   1.1560   1.1596   1.1697   1.1808   1.1861
  1.1881   1.1938   1.2053   1.2127   1.2183   1.2240   1.2328   1.2439
  1.2589   1.2648   1.2701   1.2741   1.2893   1.2994   1.3054   1.3104
  1.3131   1.3258   1.3432   1.3486   1.3606   1.3719   1.3872   1.4005
  1.4094   1.4174   1.4392   1.4455   1.4493   1.4584   1.4752   1.4785
  1.4976   1.5079   1.5246   1.5330   1.5428   1.5560   1.5710   1.5737
  1.5795   1.5887   1.5998   1.6171   1.6376   1.6536   1.6570   1.6771
  1.6805   1.6904   1.6998   1.7110   1.7321   1.7376   1.7554   1.7808
  1.7904   1.7989   1.8269   1.8383   1.8846   1.9006   1.9151   1.9201
  1.9396   1.9525   1.9671   1.9877   2.0091   2.0438   2.0489   2.0534
  2.0844   2.1144   2.1361   2.1494   2.1733   2.1829   2.2205   2.2316
  2.2480   2.2531   2.2724   2.2850   2.3171   2.3332   2.3709   2.3743
  2.3989   2.4170   2.4253   2.4357   2.4586   2.4789   2.5060   2.5174
  2.5458   2.5636   2.5710   2.5938   2.6185   2.6452   2.7040   2.7196
  2.7338   2.7569   2.8036   2.8161   2.8481   2.8721   2.9134   2.9286
  2.9446   2.9575   2.9943   3.0442   3.0529   3.0948   3.1136   3.1358
  3.1680   3.1840   3.2038   3.2347   3.2763   3.3027   3.3287   3.3494
  3.3782   3.3970   3.4260   3.4480   3.4588   3.4777   3.4843   3.5439
  3.5557   3.5853   3.5947   3.6241   3.6494   3.6732   3.6895   3.6939
  3.7264   3.7464   3.7542   3.7561   3.7597   3.7883   3.7993   3.8102
  3.8217   3.8424   3.8490   3.8564   3.8722   3.8861   3.9042   3.9355
  3.9375   3.9589   3.9696   3.9855   4.0088   4.0302   4.0425   4.0510
  4.0662   4.1030   4.1264   4.1468   4.1553   4.1831   4.2055   4.2241
  4.2521   4.2578   4.2691   4.2987   4.3239   4.3552   4.3750   4.3903
  4.4096   4.4284   4.4378   4.4505   4.4713   4.5045   4.5489   4.5706
  4.5869   4.6053   4.6217   4.6421   4.6788   4.7046   4.7155   4.7495
  4.7902   4.8134   4.8417   4.8925   4.9130   4.9411   5.0027   5.0237
  5.0711   5.0962   5.1012   5.1099   5.1257   5.1566   5.1782   5.1921
  5.2161   5.2329   5.2379   5.2474   5.2539   5.2590   5.2673   5.2802
  5.2830   5.2908   5.3095   5.3151   5.3231   5.3332   5.3575   5.3630
  5.3758   5.3935   5.3960   5.4081   5.4178   5.4272   5.4327   5.4657
  5.4749   5.4845   5.5038   5.5149   5.5214   5.5362   5.5584   5.5619
  5.5696   5.5823   5.5864   5.6039   5.6151   5.6230   5.6612   5.6680
  5.6789   5.6945   5.7095   5.7215   5.7250   5.7498   5.7634   5.7883
  5.8198   5.8415   5.8587   5.8912   5.9075   5.9830   6.0400   6.0578
  6.0806   6.0984   6.1417   6.1629   6.2369   6.2666   6.3201   6.5055
  6.5257   6.5889   6.6188   6.7561   6.8260   6.8457   6.8801   6.9051
  6.9599   6.9946   7.0221   7.0296   7.0573   7.0819   7.0927   7.0954
  7.1029   7.1248   7.1570   7.1725   7.1841   7.2027   7.2195   7.2461
  7.2604   7.2684   7.2808   7.3061   7.3203   7.3257   7.3718   7.3982
  7.4191   7.4210   7.4309   7.4399   7.4653   7.4716   7.4955   7.5005
  7.5227   7.5789   7.5925   7.6004   7.6669   7.6850   7.7076   7.7654
  7.7765   7.8079   7.8487   7.8688   7.9127   7.9301   7.9438   8.0431
  8.0628   8.1176   8.2438  24.6455  24.7916  24.8289  24.8646  50.4432
 50.5257  50.5306  50.5537  50.6050  50.6324  50.6600  50.6988  50.7941
 
 Beta MOs
 -- Occupied --
-19.4267 -19.3936 -19.3821 -19.3714 -19.3567 -19.3457 -19.3446 -19.3130
-19.2763 -10.4604 -10.4448 -10.4345 -10.3367  -1.2943  -1.2649  -1.2072
 -1.1771  -1.1352  -1.1228  -1.1072  -1.0193  -0.9286  -0.8913  -0.8256
 -0.7427  -0.7083  -0.6858  -0.6460  -0.6395  -0.6283  -0.6146  -0.5934
 -0.5838  -0.5714  -0.5666  -0.5524  -0.5361  -0.5303  -0.5131  -0.5028
 -0.4805  -0.4766  -0.4681  -0.4536  -0.4413  -0.4279  -0.4168  -0.4083
 -0.4068  -0.3950  -0.3776  -0.3482  -0.3412
 -- Virtual --
 -0.0160   0.0293   0.0381   0.0452   0.0526   0.0629   0.0661   0.0755
  0.0806   0.0856   0.0936   0.1104   0.1160   0.1215   0.1343   0.1370
  0.1436   0.1515   0.1557   0.1585   0.1668   0.1758   0.1777   0.1798
  0.1856   0.1911   0.1942   0.2078   0.2170   0.2222   0.2264   0.2397
  0.2522   0.2557   0.2611   0.2681   0.2701   0.2790   0.2812   0.2893
  0.2899   0.2924   0.2952   0.3033   0.3098   0.3167   0.3211   0.3257
  0.3282   0.3345   0.3382   0.3407   0.3474   0.3525   0.3531   0.3593
  0.3671   0.3692   0.3802   0.3842   0.3864   0.3935   0.3963   0.4013
  0.4084   0.4137   0.4181   0.4211   0.4250   0.4353   0.4423   0.4479
  0.4530   0.4585   0.4645   0.4678   0.4738   0.4792   0.4873   0.4931
  0.5029   0.5196   0.5409   0.5705   0.5832   0.6091   0.6129   0.6292
  0.6388   0.6463   0.6562   0.6632   0.6657   0.6771   0.6915   0.7028
  0.7084   0.7246   0.7310   0.7449   0.7517   0.7584   0.7690   0.7785
  0.7809   0.7944   0.8046   0.8336   0.8523   0.8639   0.8657   0.8879
  0.9165   0.9227   0.9409   0.9617   0.9801   0.9888   1.0008   1.0231
  1.0425   1.0467   1.0629   1.0681   1.0747   1.0832   1.0849   1.1039
  1.1125   1.1228   1.1331   1.1457   1.1576   1.1643   1.1757   1.1826
  1.1887   1.1936   1.1981   1.2091   1.2134   1.2241   1.2284   1.2374
  1.2471   1.2609   1.2679   1.2739   1.2832   1.2900   1.3012   1.3082
  1.3111   1.3169   1.3271   1.3456   1.3497   1.3618   1.3727   1.3887
  1.4008   1.4111   1.4184   1.4401   1.4465   1.4501   1.4595   1.4793
  1.4871   1.4997   1.5100   1.5250   1.5334   1.5459   1.5574   1.5735
  1.5754   1.5824   1.5898   1.6005   1.6275   1.6381   1.6576   1.6615
  1.6799   1.6861   1.6969   1.7082   1.7214   1.7337   1.7406   1.7573
  1.7838   1.7954   1.8004   1.8292   1.8433   1.8876   1.9019   1.9162
  1.9233   1.9423   1.9547   1.9683   1.9904   2.0118   2.0460   2.0503
  2.0560   2.0855   2.1168   2.1380   2.1520   2.1739   2.1847   2.2216
  2.2331   2.2504   2.2627   2.2789   2.2896   2.3235   2.3359   2.3728
  2.3775   2.4019   2.4185   2.4255   2.4390   2.4591   2.4798   2.5073
  2.5180   2.5461   2.5645   2.5717   2.5941   2.6193   2.6456   2.7112
  2.7209   2.7342   2.7570   2.8042   2.8164   2.8492   2.8723   2.9141
  2.9293   2.9454   2.9579   2.9945   3.0448   3.0531   3.0950   3.1141
  3.1366   3.1683   3.1844   3.2040   3.2348   3.2767   3.3032   3.3292
  3.3498   3.3787   3.3973   3.4261   3.4480   3.4588   3.4780   3.4846
  3.5440   3.5560   3.5854   3.5948   3.6245   3.6493   3.6731   3.6895
  3.6942   3.7265   3.7465   3.7543   3.7572   3.7597   3.7885   3.7996
  3.8103   3.8221   3.8424   3.8491   3.8566   3.8724   3.8862   3.9042
  3.9359   3.9377   3.9590   3.9698   3.9858   4.0091   4.0304   4.0428
  4.0514   4.0665   4.1034   4.1265   4.1472   4.1556   4.1834   4.2057
  4.2246   4.2521   4.2578   4.2693   4.2988   4.3240   4.3559   4.3754
  4.3907   4.4103   4.4287   4.4388   4.4509   4.4722   4.5048   4.5494
  4.5723   4.5876   4.6152   4.6409   4.6472   4.6827   4.7084   4.7198
  4.7576   4.7918   4.8170   4.8648   4.8975   4.9200   4.9425   5.0178
  5.0261   5.0716   5.1257   5.1362   5.1491   5.1647   5.1885   5.1894
  5.2121   5.2166   5.2349   5.2452   5.2540   5.2637   5.2769   5.2830
  5.2898   5.2918   5.3029   5.3129   5.3218   5.3354   5.3381   5.3582
  5.3644   5.3811   5.3964   5.4070   5.4101   5.4201   5.4289   5.4419
  5.4680   5.4786   5.4852   5.5055   5.5175   5.5238   5.5412   5.5605
  5.5636   5.5711   5.5825   5.5876   5.6045   5.6183   5.6261   5.6614
  5.6686   5.6804   5.6989   5.7149   5.7226   5.7263   5.7521   5.7745
  5.7928   5.8292   5.8422   5.8595   5.8915   5.9079   5.9833   6.0407
  6.0589   6.0849   6.0985   6.1419   6.1629   6.2371   6.2669   6.3285
  6.5187   6.5599   6.5892   6.6300   6.7563   6.8284   6.8770   6.9237
  6.9719   6.9904   7.0101   7.0299   7.0494   7.0609   7.0828   7.0944
  7.0974   7.1244   7.1415   7.1577   7.1822   7.1875   7.2131   7.2200
  7.2614   7.2638   7.2807   7.3000   7.3065   7.3213   7.3262   7.3748
  7.4124   7.4213   7.4286   7.4357   7.4473   7.4724   7.4933   7.4980
  7.5034   7.5259   7.5808   7.5938   7.6017   7.6670   7.6853   7.7081
  7.7688   7.7784   7.8143   7.8489   7.8689   7.9128   7.9303   7.9462
  8.0437   8.0762   8.1372   8.2439  24.6456  24.7916  24.8287  24.8646
 50.4554  50.5268  50.5309  50.5627  50.6051  50.6324  50.6600  50.6988
 50.7940
 --------------------------------------------------------------
 
          Ground-State Mulliken Net Atomic Charges

     Atom                 Charge (a.u.)    Spin (a.u.)
  --------------------------------------------------------
      1 C                    -0.048661       0.000917
      2 O                    -0.414554       0.000006
      3 C                    -0.005140      -0.003276
      4 O                    -0.396045       0.000659
      5 C                    -0.477495       0.000332
      6 C                    -0.219798       0.007348
      7 O                    -0.715247      -0.002402
      8 H                     0.307326       0.000026
      9 H                     0.338053       0.000047
     10 H                     0.265243      -0.000197
     11 H                     0.346058      -0.002527
     12 H                     0.299346       0.006722
     13 O                    -0.459344       0.000145
     14 H                     0.347328      -0.000021
     15 O                    -0.193034       0.000068
     16 O                    -0.380895      -0.000053
     17 H                     0.344402      -0.000932
     18 H                     0.358490       0.000364
     19 O                     0.003295       0.362203
     20 O                    -0.276963       0.630216
     21 H                     0.411340       0.000344
     22 O                    -0.755143      -0.000083
     23 H                     0.321437       0.000094
  --------------------------------------------------------
  Sum of atomic charges =    -1.000000
  Sum of spin   charges =     1.000000

 -----------------------------------------------------------------
                    Cartesian Multipole Moments
 -----------------------------------------------------------------
    Charge (ESU x 10^10)
                -4.8032
    Dipole Moment (Debye)
         X     -28.3238      Y      -4.3353      Z      -3.8816
       Tot      28.9154
    Quadrupole Moments (Debye-Ang)
        XX    -257.3477     XY     -29.3454     YY    -111.7013
        XZ     -12.0077     YZ     -19.9896     ZZ     -86.8556
    Octopole Moments (Debye-Ang^2)
       XXX   -2136.0424    XXY    -210.7521    XYY    -504.6939
       YYY     -78.2765    XXZ     -70.5627    XYZ     -72.0581
       YYZ     -26.6703    XZZ    -372.2040    YZZ     -29.4573
       ZZZ     -90.8160
    Hexadecapole Moments (Debye-Ang^3)
      XXXX  -16761.5206   XXXY   -1793.1975   XXYY   -2766.3963
      XYYY    -687.0898   YYYY   -1472.7525   XXXZ    -555.2430
      XXYZ    -334.6769   XYYZ    -118.1190   YYYZ    -342.3690
      XXZZ   -1940.1428   XYZZ    -215.3109   YYZZ    -478.8659
      XZZZ    -421.9986   YZZZ    -409.9625   ZZZZ   -1037.2115
 -----------------------------------------------------------------
 Calculating analytic gradient of the SCF energy
 Gradient of CDS energy
            1           2           3           4           5           6
    1  -0.0021467   0.0018308  -0.0015187   0.0016183  -0.0000776   0.0030551
    2  -0.0016927  -0.0011596  -0.0017924   0.0019384   0.0001485  -0.0001646
    3  -0.0008114  -0.0000464   0.0021354  -0.0023685  -0.0000972  -0.0005268
            7           8           9          10          11          12
    1  -0.0025605   0.0002383  -0.0004154  -0.0001404   0.0000805  -0.0002556
    2   0.0000755   0.0000331   0.0002349  -0.0000141  -0.0000626   0.0001046
    3   0.0008987   0.0000119  -0.0002017   0.0000829  -0.0000038   0.0000453
           13          14          15          16          17          18
    1   0.0005565  -0.0002102  -0.0000412  -0.0002131  -0.0001058   0.0002839
    2   0.0028475  -0.0004471   0.0000002  -0.0001336  -0.0002398  -0.0000749
    3   0.0008098   0.0000486  -0.0001267   0.0000070   0.0003998  -0.0000182
           19          20          21          22          23
    1  -0.0001393   0.0000180   0.0002231  -0.0000180  -0.0000619
    2   0.0000345   0.0000434   0.0000580   0.0000814   0.0001811
    3  -0.0000151   0.0000099   0.0001403   0.0000921  -0.0004657
 Gradient of SCF Energy
            1           2           3           4           5           6
    1   0.0035858  -0.0133973   0.0221532  -0.0006888  -0.0488478   0.0255862
    2   0.0205207   0.0057519  -0.0311492  -0.0033622   0.0445034  -0.0172730
    3  -0.0317221   0.0017475   0.0145706   0.0118127  -0.0183068   0.0443527
            7           8           9          10          11          12
    1   0.0075070  -0.0172720   0.0054088   0.0254321  -0.0058628  -0.0017595
    2   0.0059946  -0.0062851  -0.0021738  -0.0065148  -0.0114737   0.0138753
    3  -0.0081070   0.0155061   0.0028347  -0.0112689   0.0180313  -0.0257402
           13          14          15          16          17          18
    1  -0.0006294   0.0037350  -0.0004948   0.0121879  -0.0049657  -0.0076466
    2  -0.0148668   0.0089943  -0.0086754   0.0224090  -0.0019474  -0.0109093
    3   0.0081892  -0.0124938   0.0107663   0.0071491  -0.0139032  -0.0138611
           19          20          21          22          23
    1  -0.0000606   0.0002636  -0.0057786  -0.0041967   0.0057409
    2   0.0013206  -0.0010453   0.0070856  -0.0142459  -0.0005336
    3   0.0011737  -0.0033691  -0.0224980   0.0118681   0.0132680
 Max gradient component =       4.885E-02
 RMS gradient           =       1.581E-02
 Computing fast CPCM-SWIG gradient
 Updating gradient with PCM contributions...
 -- total gradient after adding PCM contribution --
---------------------------------------------------
  Atom         X              Y              Z     
---------------------------------------------------
   1       0.000026      -0.000021      -0.000036
   2       0.000007       0.000011      -0.000003
   3      -0.000227       0.000068       0.000086
   4       0.000027       0.000023      -0.000013
   5       0.000016      -0.000047      -0.000045
   6       0.000002       0.000033       0.000047
   7       0.000010      -0.000026      -0.000021
   8       0.000011      -0.000011      -0.000007
   9       0.000005      -0.000003      -0.000025
  10      -0.000007       0.000005       0.000002
  11       0.000015       0.000007      -0.000002
  12      -0.000024       0.000014      -0.000001
  13       0.000012       0.000023      -0.000015
  14      -0.000006       0.000010       0.000024
  15       0.000128      -0.000060      -0.000040
  16      -0.000008      -0.000027       0.000032
  17      -0.000013       0.000026       0.000026
  18       0.000003      -0.000004       0.000020
  19       0.000005      -0.000006      -0.000046
  20      -0.000025       0.000019      -0.000001
  21      -0.000002      -0.000012       0.000014
  22       0.000033      -0.000004       0.000007
  23       0.000013      -0.000018      -0.000004
---------------------------------------------------
 Number of fixed atoms: 0
 Gradient time:  CPU 670.56 s  wall 55.32 s
 ######################################################
 ######################################################
 # Starting finite difference calculation for IDERIV  #
 Finite diff step size:  1.88973e-03 a.u.
 ----------------------------------------------------------------
             Standard Nuclear Orientation (Angstroms)
    I     Atom           X                Y                Z
 ----------------------------------------------------------------
    1      C       2.7747278708    -0.9941356229    -1.2296684053
    2      O       1.5661201678    -0.2939087776    -1.0478388830
    3      C       3.5640872768    -0.8841968918     0.0803697895
    4      O       2.8850540072    -1.6620343718     1.0236684204
    5      C       3.7487921949     0.5681571043     0.5087780432
    6      C       4.8547083179     0.7564209515     1.5446380311
    7      O       6.0967680773     0.7663639847     1.0769928278
    8      H       3.3581752614    -0.5600443915    -2.0387457175
    9      H       1.1522939703    -0.1826014687    -1.9111496123
   10      H       2.7957705481     0.9014173587     0.9140141571
   11      H       3.9844859065     1.1850652863    -0.3595260990
   12      H       4.6966682365     0.1362694371     2.4379815947
   13      O       2.5486140394    -2.3357380841    -1.5841842458
   14      H       2.1609503249    -2.7859882457    -0.8218620972
   15      O       4.8183074310    -1.5706234612    -0.0798020453
   16      O       5.6766474055    -0.7991425610    -0.9231003406
   17      H       3.2802807119    -1.5349902013     1.8951667694
   18      H       6.0195928996    -0.1375998318    -0.2453493188
   19      O       4.6038983238     2.1728585936     2.1217907883
   20      O       3.5734082181     2.2205271118     2.9102288299
   21      H       6.3012311819     1.9823136189    -0.1522094520
   22      O       6.4555870718     2.6474231566    -0.8637411313
   23      H       5.8612785564     2.3822455057    -1.5726435031
 ----------------------------------------------------------------
 Nuclear Repulsion Energy =         953.81165356 hartrees
 There are       54 alpha and       53 beta electrons
 Discretize the solute cavity surface with Lebedev spheres
	Using 110 Lebedev grid points for each H atom
	Using 194 Lebedev grid points for other atoms
	Atomic van der Waals radii will be scaled by 1.20
 Remove points where switching function is < 1.0e-08
 Keep 1833 surface tesserae and discard 1789 interior tesserae
 Molecular Surface Area = 202.370 Angst**2
 Requested basis set is 6-311++G(2df,2p)
 There are 164 shells and 542 basis functions
 A cutoff of  1.0D-12 yielded  11266 shell pairs
 There are    119415 function pairs (    147520 Cartesian)
 Smallest overlap matrix eigenvalue = 4.40E-06
 Guess MOs from SCF MO coefficient file

 -----------------------------------------------------------------------
  General SCF calculation program by
  Eric Jon Sundstrom, Paul Horn, Yuezhi Mao, Dmitri Zuev, Alec White,
  David Stuck, Shaama M.S., Shane Yost, Joonho Lee, David Small,
  Daniel Levine, Susi Lehtola, Hugh Burton, Evgeny Epifanovsky,
  Bang C. Huynh
 -----------------------------------------------------------------------
 Exchange:     0.1500 Hartree-Fock + 1.0000 wB97M-V + LR-HF
 Correlation:  1.0000 wB97M-V
 Using SG-2 standard quadrature grid
 Nonlocal Correlation:  VV10 with C = 0.0100 and b = 6.00 and scale = 1.00000
 Grid used for NLC:  SG-1 standard quadrature
 
 Citation of the SMD model:
 Marenich, A.V.; Cramer, C.J.; Truhlar, D.G.
 J. Phys. Chem. B 2009, 113, 6378-6396.
 iSolventCode=           1
 Solvent: water                                                           
 
 vradii
            1           2           3           4           5           6
    1   1.8500000   1.5200000   1.8500000   1.5200000   1.8500000   1.8500000
            7           8           9          10          11          12
    1   1.5200000   1.2000000   1.2000000   1.2000000   1.2000000   1.2000000
           13          14          15          16          17          18
    1   1.5200000   1.2000000   1.5200000   1.5200000   1.2000000   1.2000000
           19          20          21          22          23
    1   1.5200000   1.5200000   1.2000000   1.5200000   1.2000000
 -------------------------------------------------------
 OpenMP BLAS3 based DFT computing Module                
 Release: version 1.0, May 2013, Q-Chem Inc. Pittsburgh 
 -------------------------------------------------------
 A unrestricted SCF calculation will be
 performed using Roothaan-Hall, DIIS, GDM
 SCF converges when RMS gradient is below 1.0e-07
 ---------------------------------------
  Cycle       Energy         DIIS error
 ---------------------------------------
    1    -835.3539070905      2.13e-04  Roothaan Step
 ---------------------------------------
  Cycle       Energy         DIIS error
 ---------------------------------------
    1    -835.4722573442      2.27e-04  
    2    -835.4810124103      1.75e-04  Done DIIS. Switching to GDM
 ---------------------------------------
  Cycle       Energy        RMS Gradient
 ---------------------------------------
    1    -835.4810124103      6.52e-03   Normal BFGS step
    2    -835.4809860878      9.53e-03  Line search: overstep
    3    -835.4839406442      1.64e-03   Normal BFGS step
    4    -835.4842005216      1.31e-03   Normal BFGS step
    5    -835.4842349032      1.37e-03   Normal BFGS step
    6    -835.4842531074      2.24e-04   Normal BFGS step
    7    -835.4842538859      1.54e-04   Normal BFGS step
    8    -835.4842545098      4.15e-05   Normal BFGS step
    9    -835.4842545358      2.70e-05   Normal BFGS step
   10    -835.4842545560      1.90e-05   Normal BFGS step
   11    -835.4842545577      1.29e-05   Normal BFGS step
   12    -835.4842545590      8.15e-06   Normal BFGS step
   13    -835.4842545596      8.45e-06   Normal BFGS step
   14    -835.4842545599      6.63e-06   Normal BFGS step
   15    -835.4842545601      2.99e-06   Normal BFGS step
   16    -835.4842545602      2.77e-06   Normal BFGS step
   17    -835.4842545602      1.82e-06   Normal BFGS step
   18    -835.4842545603      9.81e-07   Normal BFGS step
   19    -835.4842545603      2.48e-07   Normal BFGS step
   20    -835.4842545602      6.14e-08  Convergence criterion met
 ---------------------------------------
 SCF time:   CPU 4915.71s  wall 341.00s 
<S^2> =          0.754269035
(3)  G-ENP(liq) elect-nuc-pol free energy of system     -835.484254560 a.u.
(4)  G-CDS(liq) cavity-dispersion-solvent structure 
     free energy                                                3.3983 kcal/mol
(6)  G-S(liq) free energy of system                     -835.478839075 a.u.
 SCF   energy in the final basis set =     -835.4788390755
 Total energy in the final basis set =     -835.4788390755
 
 --------------------------------------------------------------
 
                    Orbital Energies (a.u.)
 --------------------------------------------------------------
 
 Alpha MOs
 -- Occupied --
-19.4384 -19.3997 -19.3936 -19.3714 -19.3568 -19.3456 -19.3446 -19.3130
-19.2762 -10.4604 -10.4448 -10.4342 -10.3369  -1.3216  -1.2649  -1.2070
 -1.1771  -1.1350  -1.1234  -1.1085  -1.0194  -0.9616  -0.8941  -0.8278
 -0.7450  -0.7129  -0.6860  -0.6503  -0.6429  -0.6332  -0.6187  -0.6067
 -0.5893  -0.5867  -0.5718  -0.5667  -0.5539  -0.5337  -0.5155  -0.5107
 -0.4928  -0.4771  -0.4713  -0.4540  -0.4414  -0.4283  -0.4173  -0.4148
 -0.4086  -0.3986  -0.3864  -0.3735  -0.3571  -0.3418
 -- Virtual --
  0.0292   0.0380   0.0450   0.0525   0.0626   0.0659   0.0749   0.0804
  0.0854   0.0934   0.1103   0.1154   0.1209   0.1335   0.1364   0.1431
  0.1514   0.1553   0.1581   0.1661   0.1750   0.1764   0.1790   0.1845
  0.1907   0.1922   0.2072   0.2148   0.2214   0.2250   0.2391   0.2514
  0.2552   0.2592   0.2674   0.2692   0.2762   0.2810   0.2867   0.2892
  0.2916   0.2946   0.3014   0.3069   0.3141   0.3195   0.3255   0.3273
  0.3329   0.3368   0.3399   0.3471   0.3513   0.3522   0.3588   0.3659
  0.3686   0.3799   0.3839   0.3858   0.3924   0.3960   0.4006   0.4079
  0.4133   0.4157   0.4203   0.4244   0.4343   0.4421   0.4477   0.4524
  0.4582   0.4643   0.4668   0.4736   0.4785   0.4866   0.4929   0.5025
  0.5191   0.5406   0.5705   0.5831   0.6085   0.6129   0.6290   0.6384
  0.6452   0.6559   0.6629   0.6656   0.6766   0.6913   0.7026   0.7083
  0.7245   0.7307   0.7446   0.7512   0.7583   0.7689   0.7781   0.7808
  0.7940   0.8043   0.8334   0.8521   0.8634   0.8656   0.8878   0.9152
  0.9224   0.9403   0.9610   0.9800   0.9878   1.0003   1.0200   1.0422
  1.0457   1.0617   1.0672   1.0742   1.0803   1.0818   1.1021   1.1117
  1.1224   1.1313   1.1452   1.1560   1.1596   1.1697   1.1807   1.1862
  1.1881   1.1938   1.2053   1.2127   1.2183   1.2241   1.2328   1.2439
  1.2589   1.2648   1.2700   1.2741   1.2893   1.2995   1.3054   1.3104
  1.3131   1.3258   1.3432   1.3487   1.3606   1.3719   1.3872   1.4006
  1.4094   1.4174   1.4392   1.4455   1.4493   1.4585   1.4752   1.4785
  1.4976   1.5078   1.5246   1.5330   1.5428   1.5561   1.5711   1.5738
  1.5795   1.5888   1.5998   1.6171   1.6377   1.6537   1.6571   1.6772
  1.6805   1.6905   1.6998   1.7110   1.7322   1.7376   1.7554   1.7809
  1.7903   1.7989   1.8269   1.8384   1.8847   1.9006   1.9151   1.9201
  1.9396   1.9525   1.9671   1.9877   2.0089   2.0438   2.0489   2.0534
  2.0844   2.1143   2.1360   2.1494   2.1733   2.1829   2.2205   2.2315
  2.2479   2.2530   2.2723   2.2850   2.3171   2.3332   2.3709   2.3741
  2.3987   2.4169   2.4251   2.4356   2.4586   2.4789   2.5060   2.5174
  2.5458   2.5635   2.5709   2.5938   2.6186   2.6452   2.7040   2.7195
  2.7339   2.7569   2.8035   2.8160   2.8481   2.8720   2.9133   2.9285
  2.9446   2.9575   2.9943   3.0442   3.0530   3.0948   3.1136   3.1358
  3.1681   3.1840   3.2037   3.2350   3.2762   3.3026   3.3286   3.3492
  3.3781   3.3972   3.4259   3.4479   3.4588   3.4776   3.4843   3.5439
  3.5557   3.5851   3.5948   3.6240   3.6495   3.6731   3.6895   3.6938
  3.7264   3.7464   3.7542   3.7562   3.7597   3.7883   3.7993   3.8103
  3.8218   3.8426   3.8491   3.8565   3.8721   3.8861   3.9043   3.9354
  3.9375   3.9588   3.9695   3.9856   4.0088   4.0302   4.0427   4.0511
  4.0664   4.1030   4.1263   4.1468   4.1553   4.1835   4.2054   4.2242
  4.2521   4.2576   4.2692   4.2987   4.3240   4.3554   4.3753   4.3903
  4.4096   4.4287   4.4381   4.4505   4.4714   4.5049   4.5489   4.5710
  4.5871   4.6054   4.6217   4.6423   4.6789   4.7046   4.7155   4.7496
  4.7902   4.8135   4.8417   4.8926   4.9130   4.9412   5.0027   5.0237
  5.0711   5.0962   5.1012   5.1099   5.1257   5.1568   5.1782   5.1921
  5.2161   5.2330   5.2379   5.2474   5.2539   5.2590   5.2673   5.2802
  5.2830   5.2908   5.3095   5.3151   5.3231   5.3332   5.3574   5.3630
  5.3759   5.3936   5.3961   5.4081   5.4178   5.4272   5.4329   5.4657
  5.4750   5.4844   5.5038   5.5149   5.5213   5.5362   5.5584   5.5619
  5.5695   5.5823   5.5864   5.6039   5.6152   5.6230   5.6612   5.6680
  5.6788   5.6945   5.7095   5.7214   5.7250   5.7498   5.7634   5.7881
  5.8196   5.8415   5.8587   5.8912   5.9074   5.9828   6.0398   6.0577
  6.0805   6.0983   6.1410   6.1609   6.2369   6.2666   6.3201   6.5055
  6.5257   6.5884   6.6188   6.7549   6.8259   6.8458   6.8801   6.9051
  6.9599   6.9947   7.0221   7.0296   7.0573   7.0819   7.0927   7.0953
  7.1029   7.1248   7.1571   7.1725   7.1841   7.2027   7.2195   7.2461
  7.2603   7.2683   7.2808   7.3061   7.3202   7.3256   7.3717   7.3982
  7.4191   7.4209   7.4307   7.4399   7.4653   7.4715   7.4955   7.5005
  7.5227   7.5789   7.5925   7.6004   7.6669   7.6848   7.7076   7.7654
  7.7764   7.8079   7.8487   7.8687   7.9126   7.9301   7.9438   8.0431
  8.0628   8.1176   8.2439  24.6454  24.7913  24.8289  24.8649  50.4432
 50.5257  50.5306  50.5537  50.6050  50.6322  50.6600  50.6987  50.7941
 
 Beta MOs
 -- Occupied --
-19.4267 -19.3936 -19.3821 -19.3714 -19.3568 -19.3456 -19.3446 -19.3130
-19.2763 -10.4604 -10.4448 -10.4345 -10.3367  -1.2943  -1.2649  -1.2070
 -1.1771  -1.1350  -1.1228  -1.1072  -1.0193  -0.9286  -0.8914  -0.8257
 -0.7427  -0.7083  -0.6858  -0.6459  -0.6395  -0.6283  -0.6146  -0.5934
 -0.5838  -0.5714  -0.5666  -0.5524  -0.5360  -0.5303  -0.5131  -0.5028
 -0.4805  -0.4766  -0.4681  -0.4537  -0.4413  -0.4279  -0.4168  -0.4083
 -0.4068  -0.3950  -0.3776  -0.3482  -0.3412
 -- Virtual --
 -0.0160   0.0293   0.0381   0.0452   0.0526   0.0629   0.0661   0.0755
  0.0806   0.0856   0.0936   0.1104   0.1160   0.1215   0.1343   0.1370
  0.1436   0.1515   0.1557   0.1586   0.1668   0.1758   0.1777   0.1798
  0.1856   0.1911   0.1942   0.2078   0.2170   0.2221   0.2263   0.2397
  0.2522   0.2557   0.2611   0.2681   0.2700   0.2790   0.2812   0.2893
  0.2899   0.2924   0.2952   0.3033   0.3098   0.3167   0.3211   0.3257
  0.3281   0.3345   0.3382   0.3407   0.3474   0.3525   0.3531   0.3593
  0.3671   0.3692   0.3802   0.3841   0.3864   0.3935   0.3963   0.4013
  0.4084   0.4137   0.4181   0.4211   0.4250   0.4352   0.4423   0.4480
  0.4529   0.4585   0.4645   0.4677   0.4738   0.4793   0.4873   0.4931
  0.5029   0.5196   0.5409   0.5706   0.5832   0.6090   0.6129   0.6292
  0.6388   0.6463   0.6562   0.6631   0.6657   0.6771   0.6915   0.7029
  0.7084   0.7246   0.7310   0.7449   0.7517   0.7584   0.7690   0.7785
  0.7810   0.7944   0.8046   0.8336   0.8523   0.8639   0.8657   0.8879
  0.9165   0.9227   0.9409   0.9617   0.9801   0.9887   1.0008   1.0231
  1.0425   1.0467   1.0629   1.0681   1.0748   1.0832   1.0848   1.1039
  1.1125   1.1228   1.1331   1.1458   1.1576   1.1643   1.1757   1.1826
  1.1887   1.1937   1.1982   1.2091   1.2134   1.2241   1.2284   1.2374
  1.2471   1.2609   1.2679   1.2739   1.2832   1.2900   1.3012   1.3082
  1.3111   1.3169   1.3272   1.3456   1.3497   1.3618   1.3727   1.3887
  1.4008   1.4110   1.4184   1.4401   1.4466   1.4501   1.4595   1.4793
  1.4872   1.4997   1.5100   1.5250   1.5334   1.5459   1.5574   1.5736
  1.5755   1.5824   1.5898   1.6006   1.6274   1.6381   1.6576   1.6616
  1.6799   1.6861   1.6970   1.7082   1.7214   1.7339   1.7406   1.7573
  1.7838   1.7954   1.8004   1.8292   1.8434   1.8877   1.9019   1.9162
  1.9233   1.9423   1.9547   1.9683   1.9903   2.0116   2.0460   2.0503
  2.0560   2.0855   2.1167   2.1379   2.1520   2.1739   2.1847   2.2216
  2.2330   2.2503   2.2627   2.2788   2.2896   2.3235   2.3359   2.3727
  2.3773   2.4018   2.4185   2.4254   2.4389   2.4591   2.4798   2.5074
  2.5180   2.5461   2.5644   2.5716   2.5941   2.6194   2.6455   2.7112
  2.7209   2.7342   2.7570   2.8040   2.8164   2.8492   2.8721   2.9141
  2.9292   2.9454   2.9578   2.9944   3.0448   3.0532   3.0950   3.1141
  3.1366   3.1684   3.1845   3.2039   3.2351   3.2766   3.3032   3.3291
  3.3496   3.3786   3.3974   3.4260   3.4479   3.4588   3.4778   3.4846
  3.5440   3.5560   3.5852   3.5949   3.6244   3.6494   3.6730   3.6895
  3.6941   3.7265   3.7465   3.7543   3.7571   3.7597   3.7885   3.7996
  3.8104   3.8221   3.8426   3.8492   3.8566   3.8723   3.8862   3.9043
  3.9358   3.9377   3.9589   3.9697   3.9858   4.0091   4.0304   4.0429
  4.0515   4.0667   4.1034   4.1264   4.1471   4.1556   4.1837   4.2056
  4.2247   4.2522   4.2577   4.2694   4.2988   4.3241   4.3562   4.3756
  4.3907   4.4104   4.4289   4.4391   4.4509   4.4722   4.5052   4.5495
  4.5727   4.5878   4.6153   4.6412   4.6472   4.6828   4.7085   4.7199
  4.7577   4.7918   4.8171   4.8648   4.8976   4.9200   4.9426   5.0178
  5.0261   5.0717   5.1257   5.1363   5.1491   5.1648   5.1885   5.1894
  5.2121   5.2165   5.2350   5.2452   5.2539   5.2637   5.2769   5.2830
  5.2898   5.2918   5.3029   5.3130   5.3218   5.3354   5.3381   5.3582
  5.3645   5.3812   5.3966   5.4071   5.4102   5.4202   5.4289   5.4420
  5.4680   5.4787   5.4850   5.5054   5.5175   5.5237   5.5412   5.5605
  5.5636   5.5711   5.5825   5.5877   5.6046   5.6184   5.6262   5.6614
  5.6686   5.6803   5.6989   5.7149   5.7225   5.7263   5.7521   5.7745
  5.7925   5.8290   5.8422   5.8596   5.8915   5.9077   5.9831   6.0405
  6.0587   6.0849   6.0984   6.1412   6.1609   6.2371   6.2668   6.3285
  6.5187   6.5599   6.5887   6.6300   6.7550   6.8284   6.8770   6.9238
  6.9719   6.9904   7.0101   7.0299   7.0494   7.0609   7.0828   7.0944
  7.0973   7.1244   7.1415   7.1577   7.1822   7.1875   7.2131   7.2200
  7.2613   7.2637   7.2807   7.3000   7.3065   7.3212   7.3261   7.3748
  7.4124   7.4212   7.4286   7.4356   7.4473   7.4723   7.4933   7.4980
  7.5034   7.5258   7.5808   7.5938   7.6017   7.6670   7.6852   7.7082
  7.7688   7.7783   7.8143   7.8489   7.8688   7.9127   7.9303   7.9462
  8.0437   8.0761   8.1372   8.2439  24.6455  24.7913  24.8287  24.8649
 50.4554  50.5268  50.5309  50.5627  50.6050  50.6322  50.6601  50.6987
 50.7940
 --------------------------------------------------------------
 
          Ground-State Mulliken Net Atomic Charges

     Atom                 Charge (a.u.)    Spin (a.u.)
  --------------------------------------------------------
      1 C                    -0.048754       0.000917
      2 O                    -0.414976       0.000006
      3 C                    -0.005280      -0.003278
      4 O                    -0.396042       0.000659
      5 C                    -0.477401       0.000334
      6 C                    -0.219800       0.007348
      7 O                    -0.715238      -0.002402
      8 H                     0.307771       0.000026
      9 H                     0.338012       0.000047
     10 H                     0.265274      -0.000196
     11 H                     0.346041      -0.002527
     12 H                     0.299356       0.006722
     13 O                    -0.459384       0.000145
     14 H                     0.347370      -0.000021
     15 O                    -0.193028       0.000068
     16 O                    -0.380812      -0.000053
     17 H                     0.344416      -0.000932
     18 H                     0.358490       0.000364
     19 O                     0.003291       0.362197
     20 O                    -0.276946       0.630223
     21 H                     0.411345       0.000344
     22 O                    -0.755142      -0.000083
     23 H                     0.321437       0.000094
  --------------------------------------------------------
  Sum of atomic charges =    -1.000000
  Sum of spin   charges =     1.000000

 -----------------------------------------------------------------
                    Cartesian Multipole Moments
 -----------------------------------------------------------------
    Charge (ESU x 10^10)
                -4.8032
    Dipole Moment (Debye)
         X     -28.3179      Y      -4.3363      Z      -3.8812
       Tot      28.9097
    Quadrupole Moments (Debye-Ang)
        XX    -257.3174     XY     -29.3503     YY    -111.6987
        XZ     -12.0136     YZ     -19.9888     ZZ     -86.8504
    Octopole Moments (Debye-Ang^2)
       XXX   -2135.9249    XXY    -210.7700    XYY    -504.6874
       YYY     -78.2818    XXZ     -70.5936    XYZ     -72.0528
       YYZ     -26.6681    XZZ    -372.1793    YZZ     -29.4613
       ZZZ     -90.8218
    Hexadecapole Moments (Debye-Ang^3)
      XXXX  -16761.1020   XXXY   -1793.2436   XXYY   -2766.3767
      XYYY    -687.0805   YYYY   -1472.7317   XXXZ    -555.3533
      XXYZ    -334.6513   XYYZ    -118.1076   YYYZ    -342.3671
      XXZZ   -1940.0461   XYZZ    -215.3202   YYZZ    -478.8556
      XZZZ    -422.0207   YZZZ    -409.9547   ZZZZ   -1037.1600
 -----------------------------------------------------------------
 Calculating analytic gradient of the SCF energy
 Gradient of CDS energy
            1           2           3           4           5           6
    1  -0.0019841   0.0016750  -0.0015187   0.0016181  -0.0000777   0.0030551
    2  -0.0017471  -0.0010682  -0.0017924   0.0019385   0.0001485  -0.0001646
    3  -0.0008253  -0.0000228   0.0021354  -0.0023686  -0.0000972  -0.0005268
            7           8           9          10          11          12
    1  -0.0025605   0.0002375  -0.0004158  -0.0001407   0.0000805  -0.0002556
    2   0.0000755   0.0000338   0.0002352  -0.0000141  -0.0000626   0.0001046
    3   0.0008987   0.0000122  -0.0002017   0.0000828  -0.0000039   0.0000453
           13          14          15          16          17          18
    1   0.0005515  -0.0002104  -0.0000413  -0.0002131  -0.0001058   0.0002839
    2   0.0028095  -0.0004471   0.0000001  -0.0001335  -0.0002398  -0.0000749
    3   0.0008000   0.0000486  -0.0001267   0.0000070   0.0003998  -0.0000182
           19          20          21          22          23
    1  -0.0001393   0.0000180   0.0002231  -0.0000180  -0.0000619
    2   0.0000345   0.0000434   0.0000580   0.0000814   0.0001811
    3  -0.0000151   0.0000099   0.0001403   0.0000921  -0.0004657
 Gradient of SCF Energy
            1           2           3           4           5           6
    1   0.0046076  -0.0138996   0.0220429  -0.0006808  -0.0488462   0.0255821
    2   0.0205847   0.0059548  -0.0311925  -0.0033563   0.0445107  -0.0172717
    3  -0.0318305   0.0017518   0.0144614   0.0118338  -0.0183073   0.0443444
            7           8           9          10          11          12
    1   0.0075070  -0.0174765   0.0053743   0.0254377  -0.0058606  -0.0017595
    2   0.0059976  -0.0063984  -0.0021487  -0.0065137  -0.0114777   0.0138725
    3  -0.0081036   0.0157123   0.0028566  -0.0112673   0.0180248  -0.0257370
           13          14          15          16          17          18
    1  -0.0007629   0.0037330  -0.0005493   0.0121898  -0.0049629  -0.0076451
    2  -0.0149826   0.0089576  -0.0086635   0.0224101  -0.0019544  -0.0109100
    3   0.0081952  -0.0125065   0.0107349   0.0071499  -0.0138956  -0.0138604
           19          20          21          22          23
    1  -0.0000599   0.0002632  -0.0057788  -0.0041939   0.0057383
    2   0.0013211  -0.0010446   0.0070822  -0.0142414  -0.0005356
    3   0.0011745  -0.0033689  -0.0224963   0.0118689   0.0132651
 Max gradient component =       4.885E-02
 RMS gradient           =       1.583E-02
 Computing fast CPCM-SWIG gradient
 Updating gradient with PCM contributions...
 -- total gradient after adding PCM contribution --
---------------------------------------------------
  Atom         X              Y              Z     
---------------------------------------------------
   1       0.001200       0.000052      -0.000144
   2      -0.000507       0.000202       0.000017
   3      -0.000405       0.000055      -0.000029
   4       0.000044       0.000018       0.000035
   5       0.000019      -0.000059      -0.000051
   6      -0.000002       0.000034       0.000045
   7       0.000012      -0.000025      -0.000021
   8      -0.000217      -0.000115       0.000185
   9      -0.000041       0.000023      -0.000011
  10      -0.000008       0.000005       0.000002
  11       0.000015       0.000006      -0.000004
  12      -0.000024       0.000014      -0.000001
  13      -0.000142      -0.000106      -0.000011
  14      -0.000016      -0.000029       0.000013
  15       0.000069      -0.000043      -0.000078
  16      -0.000005      -0.000027       0.000031
  17      -0.000016       0.000018       0.000031
  18       0.000002      -0.000004       0.000019
  19       0.000006      -0.000005      -0.000044
  20      -0.000025       0.000019      -0.000001
  21      -0.000003      -0.000012       0.000014
  22       0.000033      -0.000003       0.000006
  23       0.000013      -0.000018      -0.000004
---------------------------------------------------
 Number of fixed atoms: 0
 Gradient time:  CPU 663.50 s  wall 58.44 s
 ----------------------------------------------------------------
             Standard Nuclear Orientation (Angstroms)
    I     Atom           X                Y                Z
 ----------------------------------------------------------------
    1      C       2.7727278708    -0.9941356229    -1.2296684053
    2      O       1.5661201678    -0.2939087776    -1.0478388830
    3      C       3.5640872768    -0.8841968918     0.0803697895
    4      O       2.8850540072    -1.6620343718     1.0236684204
    5      C       3.7487921949     0.5681571043     0.5087780432
    6      C       4.8547083179     0.7564209515     1.5446380311
    7      O       6.0967680773     0.7663639847     1.0769928278
    8      H       3.3581752614    -0.5600443915    -2.0387457175
    9      H       1.1522939703    -0.1826014687    -1.9111496123
   10      H       2.7957705481     0.9014173587     0.9140141571
   11      H       3.9844859065     1.1850652863    -0.3595260990
   12      H       4.6966682365     0.1362694371     2.4379815947
   13      O       2.5486140394    -2.3357380841    -1.5841842458
   14      H       2.1609503249    -2.7859882457    -0.8218620972
   15      O       4.8183074310    -1.5706234612    -0.0798020453
   16      O       5.6766474055    -0.7991425610    -0.9231003406
   17      H       3.2802807119    -1.5349902013     1.8951667694
   18      H       6.0195928996    -0.1375998318    -0.2453493188
   19      O       4.6038983238     2.1728585936     2.1217907883
   20      O       3.5734082181     2.2205271118     2.9102288299
   21      H       6.3012311819     1.9823136189    -0.1522094520
   22      O       6.4555870718     2.6474231566    -0.8637411313
   23      H       5.8612785564     2.3822455057    -1.5726435031
 ----------------------------------------------------------------
 Nuclear Repulsion Energy =         953.80525150 hartrees
 There are       54 alpha and       53 beta electrons
 Discretize the solute cavity surface with Lebedev spheres
	Using 110 Lebedev grid points for each H atom
	Using 194 Lebedev grid points for other atoms
	Atomic van der Waals radii will be scaled by 1.20
 Remove points where switching function is < 1.0e-08
 Keep 1834 surface tesserae and discard 1788 interior tesserae
 Molecular Surface Area = 202.371 Angst**2
 Requested basis set is 6-311++G(2df,2p)
 There are 164 shells and 542 basis functions
 A cutoff of  1.0D-12 yielded  11266 shell pairs
 There are    119415 function pairs (    147520 Cartesian)
 Smallest overlap matrix eigenvalue = 4.40E-06
 Guess MOs from SCF MO coefficient file

 -----------------------------------------------------------------------
  General SCF calculation program by
  Eric Jon Sundstrom, Paul Horn, Yuezhi Mao, Dmitri Zuev, Alec White,
  David Stuck, Shaama M.S., Shane Yost, Joonho Lee, David Small,
  Daniel Levine, Susi Lehtola, Hugh Burton, Evgeny Epifanovsky,
  Bang C. Huynh
 -----------------------------------------------------------------------
 Exchange:     0.1500 Hartree-Fock + 1.0000 wB97M-V + LR-HF
 Correlation:  1.0000 wB97M-V
 Using SG-2 standard quadrature grid
 Nonlocal Correlation:  VV10 with C = 0.0100 and b = 6.00 and scale = 1.00000
 Grid used for NLC:  SG-1 standard quadrature
 
 Citation of the SMD model:
 Marenich, A.V.; Cramer, C.J.; Truhlar, D.G.
 J. Phys. Chem. B 2009, 113, 6378-6396.
 iSolventCode=           1
 Solvent: water                                                           
 
 vradii
            1           2           3           4           5           6
    1   1.8500000   1.5200000   1.8500000   1.5200000   1.8500000   1.8500000
            7           8           9          10          11          12
    1   1.5200000   1.2000000   1.2000000   1.2000000   1.2000000   1.2000000
           13          14          15          16          17          18
    1   1.5200000   1.2000000   1.5200000   1.5200000   1.2000000   1.2000000
           19          20          21          22          23
    1   1.5200000   1.5200000   1.2000000   1.5200000   1.2000000
 -------------------------------------------------------
 OpenMP BLAS3 based DFT computing Module                
 Release: version 1.0, May 2013, Q-Chem Inc. Pittsburgh 
 -------------------------------------------------------
 A unrestricted SCF calculation will be
 performed using Roothaan-Hall, DIIS, GDM
 SCF converges when RMS gradient is below 1.0e-07
 ---------------------------------------
  Cycle       Energy         DIIS error
 ---------------------------------------
    1    -835.3539148547      2.13e-04  Roothaan Step
 ---------------------------------------
  Cycle       Energy         DIIS error
 ---------------------------------------
    1    -835.4722782751      2.27e-04  
    2    -835.4810343590      1.75e-04  Done DIIS. Switching to GDM
 ---------------------------------------
  Cycle       Energy        RMS Gradient
 ---------------------------------------
    1    -835.4810343590      6.49e-03   Normal BFGS step
    2    -835.4810094569      9.48e-03  Line search: overstep
    3    -835.4839489883      1.63e-03   Normal BFGS step
    4    -835.4842088261      1.30e-03   Normal BFGS step
    5    -835.4842431562      1.36e-03   Normal BFGS step
    6    -835.4842613193      2.25e-04   Normal BFGS step
    7    -835.4842620983      1.53e-04   Normal BFGS step
    8    -835.4842627212      4.07e-05   Normal BFGS step
    9    -835.4842627470      2.68e-05   Normal BFGS step
   10    -835.4842627672      1.83e-05   Normal BFGS step
   11    -835.4842627689      1.23e-05   Normal BFGS step
   12    -835.4842627701      7.67e-06   Normal BFGS step
   13    -835.4842627706      8.03e-06   Normal BFGS step
   14    -835.4842627708      6.40e-06   Normal BFGS step
   15    -835.4842627710      2.93e-06   Normal BFGS step
   16    -835.4842627711      2.73e-06   Normal BFGS step
   17    -835.4842627712      1.81e-06   Normal BFGS step
   18    -835.4842627712      9.93e-07   Normal BFGS step
   19    -835.4842627713      2.59e-07   Normal BFGS step
   20    -835.4842627711      6.23e-08  Convergence criterion met
 ---------------------------------------
 SCF time:   CPU 4891.62s  wall 339.00s 
<S^2> =          0.754269071
(3)  G-ENP(liq) elect-nuc-pol free energy of system     -835.484262771 a.u.
(4)  G-CDS(liq) cavity-dispersion-solvent structure 
     free energy                                                3.4034 kcal/mol
(6)  G-S(liq) free energy of system                     -835.478839174 a.u.
 SCF   energy in the final basis set =     -835.4788391745
 Total energy in the final basis set =     -835.4788391745
 
 --------------------------------------------------------------
 
                    Orbital Energies (a.u.)
 --------------------------------------------------------------
 
 Alpha MOs
 -- Occupied --
-19.4384 -19.3997 -19.3936 -19.3714 -19.3567 -19.3458 -19.3446 -19.3130
-19.2762 -10.4603 -10.4448 -10.4341 -10.3369  -1.3216  -1.2649  -1.2073
 -1.1771  -1.1353  -1.1233  -1.1084  -1.0194  -0.9616  -0.8940  -0.8276
 -0.7450  -0.7129  -0.6861  -0.6504  -0.6429  -0.6332  -0.6186  -0.6067
 -0.5893  -0.5867  -0.5718  -0.5667  -0.5540  -0.5338  -0.5155  -0.5107
 -0.4928  -0.4771  -0.4713  -0.4539  -0.4414  -0.4283  -0.4173  -0.4148
 -0.4087  -0.3986  -0.3863  -0.3734  -0.3570  -0.3418
 -- Virtual --
  0.0292   0.0380   0.0450   0.0525   0.0626   0.0659   0.0749   0.0804
  0.0854   0.0934   0.1103   0.1154   0.1209   0.1335   0.1364   0.1431
  0.1514   0.1553   0.1581   0.1662   0.1750   0.1764   0.1790   0.1845
  0.1906   0.1922   0.2072   0.2148   0.2215   0.2252   0.2391   0.2514
  0.2552   0.2592   0.2675   0.2692   0.2762   0.2810   0.2867   0.2892
  0.2916   0.2946   0.3014   0.3070   0.3141   0.3195   0.3255   0.3274
  0.3329   0.3367   0.3398   0.3471   0.3514   0.3521   0.3587   0.3659
  0.3686   0.3799   0.3839   0.3858   0.3925   0.3960   0.4005   0.4079
  0.4133   0.4157   0.4204   0.4244   0.4344   0.4420   0.4476   0.4525
  0.4582   0.4643   0.4669   0.4736   0.4785   0.4866   0.4930   0.5026
  0.5191   0.5405   0.5704   0.5830   0.6086   0.6128   0.6290   0.6384
  0.6452   0.6559   0.6629   0.6656   0.6767   0.6913   0.7026   0.7082
  0.7245   0.7308   0.7445   0.7512   0.7583   0.7689   0.7781   0.7807
  0.7940   0.8044   0.8334   0.8521   0.8634   0.8656   0.8878   0.9152
  0.9225   0.9403   0.9611   0.9800   0.9878   1.0004   1.0200   1.0422
  1.0457   1.0618   1.0671   1.0741   1.0803   1.0818   1.1020   1.1117
  1.1224   1.1313   1.1450   1.1560   1.1596   1.1697   1.1808   1.1861
  1.1881   1.1937   1.2052   1.2127   1.2183   1.2240   1.2328   1.2440
  1.2589   1.2648   1.2701   1.2742   1.2893   1.2994   1.3054   1.3104
  1.3131   1.3258   1.3432   1.3486   1.3606   1.3719   1.3872   1.4005
  1.4095   1.4174   1.4392   1.4454   1.4493   1.4584   1.4752   1.4785
  1.4976   1.5079   1.5247   1.5330   1.5428   1.5560   1.5709   1.5737
  1.5795   1.5887   1.5997   1.6171   1.6376   1.6536   1.6570   1.6771
  1.6805   1.6904   1.6998   1.7110   1.7320   1.7377   1.7554   1.7807
  1.7905   1.7989   1.8268   1.8382   1.8845   1.9005   1.9151   1.9201
  1.9395   1.9525   1.9672   1.9877   2.0092   2.0438   2.0490   2.0534
  2.0844   2.1145   2.1361   2.1494   2.1734   2.1830   2.2205   2.2317
  2.2481   2.2531   2.2725   2.2851   2.3171   2.3332   2.3709   2.3744
  2.3990   2.4171   2.4254   2.4358   2.4586   2.4789   2.5059   2.5174
  2.5459   2.5637   2.5711   2.5938   2.6185   2.6452   2.7041   2.7196
  2.7338   2.7570   2.8037   2.8161   2.8481   2.8723   2.9134   2.9287
  2.9445   2.9575   2.9944   3.0442   3.0527   3.0948   3.1136   3.1358
  3.1680   3.1839   3.2039   3.2344   3.2763   3.3027   3.3288   3.3496
  3.3783   3.3969   3.4261   3.4480   3.4588   3.4779   3.4843   3.5440
  3.5557   3.5855   3.5946   3.6241   3.6494   3.6733   3.6895   3.6940
  3.7264   3.7464   3.7541   3.7561   3.7597   3.7883   3.7993   3.8101
  3.8216   3.8422   3.8489   3.8563   3.8722   3.8860   3.9041   3.9357
  3.9374   3.9590   3.9697   3.9855   4.0088   4.0303   4.0424   4.0510
  4.0659   4.1030   4.1265   4.1468   4.1553   4.1828   4.2056   4.2239
  4.2520   4.2579   4.2691   4.2987   4.3239   4.3549   4.3748   4.3902
  4.4095   4.4282   4.4374   4.4505   4.4712   4.5042   4.5488   4.5703
  4.5868   4.6053   4.6216   4.6419   4.6787   4.7046   4.7154   4.7495
  4.7902   4.8134   4.8417   4.8924   4.9130   4.9411   5.0027   5.0237
  5.0711   5.0962   5.1012   5.1099   5.1257   5.1564   5.1782   5.1921
  5.2162   5.2328   5.2379   5.2475   5.2540   5.2590   5.2673   5.2803
  5.2830   5.2908   5.3094   5.3151   5.3231   5.3332   5.3576   5.3629
  5.3758   5.3934   5.3959   5.4081   5.4178   5.4271   5.4326   5.4657
  5.4748   5.4846   5.5039   5.5148   5.5215   5.5362   5.5584   5.5619
  5.5696   5.5823   5.5863   5.6038   5.6150   5.6229   5.6612   5.6680
  5.6789   5.6945   5.7095   5.7217   5.7251   5.7499   5.7634   5.7885
  5.8199   5.8415   5.8586   5.8912   5.9077   5.9832   6.0402   6.0580
  6.0806   6.0984   6.1423   6.1649   6.2369   6.2667   6.3201   6.5055
  6.5258   6.5894   6.6188   6.7574   6.8261   6.8457   6.8801   6.9051
  6.9599   6.9946   7.0221   7.0296   7.0573   7.0819   7.0927   7.0954
  7.1029   7.1248   7.1570   7.1725   7.1841   7.2027   7.2194   7.2461
  7.2604   7.2684   7.2809   7.3061   7.3204   7.3258   7.3718   7.3982
  7.4191   7.4211   7.4310   7.4400   7.4654   7.4716   7.4955   7.5005
  7.5227   7.5790   7.5925   7.6004   7.6669   7.6851   7.7075   7.7654
  7.7765   7.8079   7.8487   7.8689   7.9129   7.9302   7.9438   8.0431
  8.0628   8.1177   8.2438  24.6456  24.7919  24.8289  24.8644  50.4433
 50.5257  50.5306  50.5537  50.6051  50.6326  50.6600  50.6989  50.7941
 
 Beta MOs
 -- Occupied --
-19.4267 -19.3936 -19.3821 -19.3714 -19.3567 -19.3458 -19.3446 -19.3130
-19.2763 -10.4603 -10.4448 -10.4345 -10.3367  -1.2943  -1.2649  -1.2073
 -1.1771  -1.1353  -1.1228  -1.1072  -1.0192  -0.9286  -0.8912  -0.8255
 -0.7427  -0.7083  -0.6859  -0.6461  -0.6395  -0.6283  -0.6146  -0.5934
 -0.5838  -0.5714  -0.5666  -0.5524  -0.5362  -0.5303  -0.5131  -0.5028
 -0.4805  -0.4766  -0.4681  -0.4536  -0.4412  -0.4279  -0.4168  -0.4084
 -0.4068  -0.3950  -0.3775  -0.3481  -0.3412
 -- Virtual --
 -0.0160   0.0293   0.0381   0.0452   0.0526   0.0629   0.0661   0.0755
  0.0807   0.0856   0.0936   0.1104   0.1160   0.1215   0.1343   0.1370
  0.1436   0.1515   0.1557   0.1585   0.1668   0.1758   0.1777   0.1798
  0.1856   0.1911   0.1942   0.2078   0.2170   0.2222   0.2265   0.2397
  0.2523   0.2557   0.2611   0.2681   0.2701   0.2790   0.2812   0.2893
  0.2900   0.2924   0.2952   0.3033   0.3098   0.3167   0.3211   0.3257
  0.3282   0.3346   0.3382   0.3407   0.3474   0.3526   0.3531   0.3593
  0.3671   0.3692   0.3802   0.3842   0.3864   0.3935   0.3963   0.4013
  0.4084   0.4137   0.4181   0.4211   0.4251   0.4353   0.4423   0.4479
  0.4530   0.4585   0.4645   0.4678   0.4738   0.4792   0.4873   0.4931
  0.5029   0.5196   0.5409   0.5705   0.5832   0.6091   0.6129   0.6292
  0.6388   0.6463   0.6562   0.6632   0.6657   0.6772   0.6915   0.7028
  0.7083   0.7246   0.7310   0.7449   0.7517   0.7584   0.7690   0.7785
  0.7809   0.7944   0.8046   0.8336   0.8523   0.8639   0.8657   0.8879
  0.9165   0.9227   0.9409   0.9617   0.9801   0.9888   1.0009   1.0231
  1.0425   1.0467   1.0629   1.0680   1.0747   1.0832   1.0849   1.1038
  1.1125   1.1228   1.1331   1.1456   1.1576   1.1643   1.1757   1.1826
  1.1887   1.1936   1.1981   1.2091   1.2134   1.2241   1.2284   1.2374
  1.2472   1.2609   1.2680   1.2740   1.2832   1.2900   1.3012   1.3081
  1.3112   1.3169   1.3271   1.3456   1.3496   1.3617   1.3727   1.3887
  1.4007   1.4112   1.4183   1.4401   1.4464   1.4501   1.4594   1.4793
  1.4871   1.4997   1.5101   1.5251   1.5333   1.5458   1.5574   1.5734
  1.5754   1.5824   1.5898   1.6005   1.6275   1.6380   1.6576   1.6614
  1.6799   1.6860   1.6969   1.7081   1.7214   1.7336   1.7406   1.7573
  1.7837   1.7955   1.8003   1.8291   1.8432   1.8875   1.9019   1.9162
  1.9233   1.9423   1.9548   1.9684   1.9904   2.0119   2.0460   2.0504
  2.0561   2.0855   2.1169   2.1380   2.1520   2.1740   2.1847   2.2216
  2.2332   2.2506   2.2627   2.2790   2.2896   2.3235   2.3360   2.3728
  2.3777   2.4021   2.4186   2.4257   2.4391   2.4591   2.4798   2.5073
  2.5180   2.5461   2.5646   2.5718   2.5941   2.6193   2.6456   2.7113
  2.7210   2.7342   2.7571   2.8043   2.8164   2.8492   2.8724   2.9142
  2.9293   2.9453   2.9579   2.9946   3.0448   3.0529   3.0950   3.1141
  3.1366   3.1683   3.1844   3.2041   3.2345   3.2767   3.3033   3.3293
  3.3500   3.3788   3.3972   3.4262   3.4481   3.4589   3.4781   3.4845
  3.5441   3.5560   3.5856   3.5947   3.6245   3.6492   3.6732   3.6895
  3.6943   3.7265   3.7465   3.7542   3.7572   3.7597   3.7885   3.7996
  3.8102   3.8220   3.8422   3.8490   3.8565   3.8725   3.8861   3.9041
  3.9361   3.9376   3.9591   3.9699   3.9857   4.0091   4.0304   4.0426
  4.0514   4.0663   4.1034   4.1266   4.1472   4.1555   4.1831   4.2058
  4.2245   4.2521   4.2579   4.2692   4.2988   4.3240   4.3557   4.3751
  4.3907   4.4103   4.4285   4.4384   4.4509   4.4721   4.5045   4.5494
  4.5719   4.5875   4.6152   4.6407   4.6472   4.6826   4.7084   4.7198
  4.7575   4.7918   4.8170   4.8648   4.8974   4.9200   4.9425   5.0178
  5.0261   5.0716   5.1257   5.1361   5.1491   5.1646   5.1885   5.1894
  5.2121   5.2167   5.2348   5.2453   5.2540   5.2637   5.2769   5.2830
  5.2898   5.2918   5.3030   5.3129   5.3218   5.3355   5.3381   5.3583
  5.3643   5.3811   5.3962   5.4070   5.4101   5.4201   5.4289   5.4418
  5.4681   5.4784   5.4853   5.5055   5.5174   5.5238   5.5412   5.5606
  5.5635   5.5711   5.5825   5.5876   5.6045   5.6182   5.6261   5.6614
  5.6685   5.6805   5.6989   5.7150   5.7227   5.7263   5.7522   5.7745
  5.7930   5.8293   5.8422   5.8595   5.8915   5.9081   5.9835   6.0409
  6.0590   6.0849   6.0985   6.1425   6.1649   6.2371   6.2669   6.3285
  6.5187   6.5599   6.5897   6.6300   6.7575   6.8285   6.8770   6.9237
  6.9719   6.9904   7.0101   7.0299   7.0494   7.0608   7.0828   7.0945
  7.0974   7.1244   7.1415   7.1577   7.1822   7.1875   7.2131   7.2200
  7.2614   7.2638   7.2808   7.3000   7.3065   7.3214   7.3263   7.3749
  7.4124   7.4215   7.4286   7.4358   7.4473   7.4725   7.4933   7.4980
  7.5034   7.5259   7.5808   7.5938   7.6017   7.6670   7.6854   7.7081
  7.7688   7.7785   7.8143   7.8489   7.8690   7.9130   7.9304   7.9462
  8.0437   8.0762   8.1372   8.2439  24.6457  24.7919  24.8287  24.8644
 50.4554  50.5268  50.5309  50.5627  50.6051  50.6326  50.6600  50.6989
 50.7940
 --------------------------------------------------------------
 
          Ground-State Mulliken Net Atomic Charges

     Atom                 Charge (a.u.)    Spin (a.u.)
  --------------------------------------------------------
      1 C                    -0.048570       0.000917
      2 O                    -0.414130       0.000006
      3 C                    -0.004998      -0.003274
      4 O                    -0.396047       0.000659
      5 C                    -0.477589       0.000331
      6 C                    -0.219797       0.007348
      7 O                    -0.715256      -0.002402
      8 H                     0.306880       0.000026
      9 H                     0.338093       0.000047
     10 H                     0.265211      -0.000197
     11 H                     0.346074      -0.002526
     12 H                     0.299337       0.006722
     13 O                    -0.459303       0.000145
     14 H                     0.347286      -0.000021
     15 O                    -0.193041       0.000068
     16 O                    -0.380977      -0.000052
     17 H                     0.344388      -0.000932
     18 H                     0.358490       0.000364
     19 O                     0.003300       0.362209
     20 O                    -0.276979       0.630209
     21 H                     0.411335       0.000344
     22 O                    -0.755143      -0.000083
     23 H                     0.321436       0.000093
  --------------------------------------------------------
  Sum of atomic charges =    -1.000000
  Sum of spin   charges =     1.000000

 -----------------------------------------------------------------
                    Cartesian Multipole Moments
 -----------------------------------------------------------------
    Charge (ESU x 10^10)
                -4.8032
    Dipole Moment (Debye)
         X     -28.3298      Y      -4.3342      Z      -3.8820
       Tot      28.9211
    Quadrupole Moments (Debye-Ang)
        XX    -257.3780     XY     -29.3406     YY    -111.7040
        XZ     -12.0018     YZ     -19.9904     ZZ     -86.8608
    Octopole Moments (Debye-Ang^2)
       XXX   -2136.1600    XXY    -210.7342    XYY    -504.7005
       YYY     -78.2712    XXZ     -70.5316    XYZ     -72.0635
       YYZ     -26.6725    XZZ    -372.2288    YZZ     -29.4534
       ZZZ     -90.8101
    Hexadecapole Moments (Debye-Ang^3)
      XXXX  -16761.9395   XXXY   -1793.1515   XXYY   -2766.4159
      XYYY    -687.0991   YYYY   -1472.7733   XXXZ    -555.1326
      XXYZ    -334.7025   XYYZ    -118.1304   YYYZ    -342.3708
      XXZZ   -1940.2398   XYZZ    -215.3015   YYZZ    -478.8763
      XZZZ    -421.9762   YZZZ    -409.9704   ZZZZ   -1037.2632
 -----------------------------------------------------------------
 Calculating analytic gradient of the SCF energy
 Gradient of CDS energy
            1           2           3           4           5           6
    1  -0.0023071   0.0019844  -0.0015187   0.0016185  -0.0000776   0.0030551
    2  -0.0016388  -0.0012500  -0.0017924   0.0019383   0.0001485  -0.0001646
    3  -0.0007977  -0.0000697   0.0021354  -0.0023685  -0.0000971  -0.0005268
            7           8           9          10          11          12
    1  -0.0025605   0.0002391  -0.0004149  -0.0001402   0.0000806  -0.0002556
    2   0.0000755   0.0000324   0.0002346  -0.0000141  -0.0000626   0.0001046
    3   0.0008987   0.0000117  -0.0002017   0.0000830  -0.0000038   0.0000453
           13          14          15          16          17          18
    1   0.0005613  -0.0002101  -0.0000412  -0.0002132  -0.0001058   0.0002839
    2   0.0028852  -0.0004470   0.0000002  -0.0001336  -0.0002398  -0.0000749
    3   0.0008195   0.0000487  -0.0001267   0.0000069   0.0003998  -0.0000182
           19          20          21          22          23
    1  -0.0001393   0.0000180   0.0002231  -0.0000180  -0.0000619
    2   0.0000345   0.0000434   0.0000580   0.0000814   0.0001811
    3  -0.0000151   0.0000099   0.0001403   0.0000921  -0.0004657
 Gradient of SCF Energy
            1           2           3           4           5           6
    1   0.0025642  -0.0128952   0.0222635  -0.0006966  -0.0488493   0.0255903
    2   0.0204580   0.0055489  -0.0311060  -0.0033680   0.0444961  -0.0172742
    3  -0.0316139   0.0017433   0.0146795   0.0117918  -0.0183063   0.0443610
            7           8           9          10          11          12
    1   0.0075070  -0.0170677   0.0054435   0.0254266  -0.0058650  -0.0017594
    2   0.0059916  -0.0061723  -0.0021990  -0.0065159  -0.0114697   0.0138781
    3  -0.0081105   0.0153007   0.0028128  -0.0112704   0.0180378  -0.0257434
           13          14          15          16          17          18
    1  -0.0004960   0.0037370  -0.0004405   0.0121858  -0.0049685  -0.0076481
    2  -0.0147517   0.0090310  -0.0086873   0.0224079  -0.0019404  -0.0109086
    3   0.0081831  -0.0124811   0.0107975   0.0071483  -0.0139107  -0.0138618
           19          20          21          22          23
    1  -0.0000612   0.0002640  -0.0057783  -0.0041995   0.0057435
    2   0.0013202  -0.0010459   0.0070889  -0.0142503  -0.0005317
    3   0.0011730  -0.0033693  -0.0224996   0.0118674   0.0132708
 Max gradient component =       4.885E-02
 RMS gradient           =       1.579E-02
 Computing fast CPCM-SWIG gradient
 Updating gradient with PCM contributions...
 -- total gradient after adding PCM contribution --
---------------------------------------------------
  Atom         X              Y              Z     
---------------------------------------------------
   1      -0.001147      -0.000092       0.000072
   2       0.000521      -0.000179      -0.000023
   3      -0.000048       0.000081       0.000202
   4       0.000010       0.000028      -0.000060
   5       0.000012      -0.000035      -0.000039
   6       0.000006       0.000031       0.000050
   7       0.000008      -0.000026      -0.000021
   8       0.000238       0.000093      -0.000198
   9       0.000052      -0.000030      -0.000039
  10      -0.000006       0.000004       0.000001
  11       0.000015       0.000007      -0.000000
  12      -0.000024       0.000015      -0.000002
  13       0.000165       0.000152      -0.000019
  14       0.000004       0.000049       0.000035
  15       0.000188      -0.000078      -0.000002
  16      -0.000010      -0.000027       0.000033
  17      -0.000010       0.000033       0.000022
  18       0.000004      -0.000003       0.000021
  19       0.000004      -0.000008      -0.000047
  20      -0.000025       0.000018      -0.000001
  21      -0.000002      -0.000011       0.000013
  22       0.000033      -0.000004       0.000007
  23       0.000013      -0.000018      -0.000004
---------------------------------------------------
 Number of fixed atoms: 0
[...]
 H         -0.009  0.014  0.002    0.007 -0.008  0.001    0.007 -0.009 -0.003
 O         -0.001 -0.002  0.001    0.000  0.001 -0.000    0.000  0.001 -0.000
 H          0.003  0.008 -0.006   -0.001 -0.002  0.002   -0.001 -0.004  0.002
 TransDip   0.303  0.255 -0.312    0.136 -0.154 -0.032   -0.168  0.433  0.055

 Mode:                43                     44                     45
 Frequency:      1292.23                1312.78                1339.25
 Force Cnst:      6.8088                 1.4735                 1.9328
 Red. Mass:       6.9205                 1.4511                 1.8290
 IR Active:          YES                    YES                    YES
 IR Intens:       22.860                 70.565                 51.130
 Raman Active:       YES                    YES                    YES
               X      Y      Z        X      Y      Z        X      Y      Z
 C         -0.033  0.116  0.040    0.009  0.105  0.026   -0.073 -0.152  0.037
 O          0.042 -0.028 -0.027    0.017 -0.016 -0.017    0.013  0.004 -0.012
 C          0.036  0.005 -0.011    0.051  0.046  0.007    0.063  0.121 -0.073
 O         -0.027 -0.019 -0.000   -0.015 -0.017  0.010   -0.039 -0.040  0.026
 C          0.014  0.018  0.020   -0.061 -0.047 -0.073    0.014  0.021  0.055
 C          0.008 -0.011  0.028    0.001 -0.030 -0.035    0.010 -0.044 -0.015
 O         -0.036  0.009  0.020    0.012  0.012 -0.005    0.017  0.016 -0.018
 H          0.050  0.173  0.127    0.003  0.089  0.009    0.051 -0.035  0.196
 H         -0.178  0.091  0.099   -0.130  0.068  0.067   -0.089  0.056  0.046
 H         -0.005 -0.003 -0.015    0.153  0.198  0.217   -0.079 -0.091 -0.081
 H         -0.122 -0.163 -0.146    0.152  0.166  0.137   -0.097 -0.274 -0.184
 H          0.112 -0.467 -0.275   -0.081  0.696  0.453   -0.409  0.359  0.196
 O         -0.018 -0.065 -0.005   -0.019 -0.054  0.002    0.025  0.050 -0.036
 H         -0.017 -0.123 -0.040   -0.027 -0.205 -0.097    0.052  0.526  0.277
 O          0.001  0.001  0.003    0.001 -0.010 -0.000    0.009 -0.018  0.003
 O         -0.001 -0.001 -0.001   -0.002  0.001  0.001   -0.006  0.003  0.005
 H          0.205  0.232 -0.140    0.011 -0.008  0.002    0.124  0.143 -0.071
 H         -0.008  0.001  0.005   -0.006  0.020 -0.014   -0.006  0.024 -0.026
 O          0.348  0.016 -0.274    0.018 -0.039  0.002    0.017 -0.020 -0.008
 O         -0.331  0.007  0.251   -0.017  0.005  0.014   -0.018  0.002  0.014
 H          0.006 -0.007 -0.003    0.001  0.003 -0.002    0.007 -0.002 -0.008
 O         -0.000  0.001 -0.000   -0.000 -0.001  0.001   -0.000 -0.001  0.001
 H         -0.000 -0.001  0.001    0.000  0.001 -0.000    0.000 -0.001  0.001
 TransDip  -0.083  0.118  0.052    0.063  0.255 -0.057    0.121  0.111 -0.160

 Mode:                46                     47                     48
 Frequency:      1360.18                1379.78                1424.89
 Force Cnst:      2.2898                 1.7255                 1.6605
 Red. Mass:       2.1007                 1.5383                 1.3881
 IR Active:          YES                    YES                    YES
 IR Intens:      129.450                 62.715                 83.387
 Raman Active:       YES                    YES                    YES
               X      Y      Z        X      Y      Z        X      Y      Z
 C         -0.020 -0.004  0.041    0.001 -0.071  0.031   -0.065  0.055 -0.029
 O          0.004 -0.004 -0.008    0.011  0.002 -0.024    0.000 -0.008  0.027
 C          0.085  0.173 -0.127    0.020 -0.006  0.143    0.004 -0.004 -0.050
 O         -0.029 -0.042  0.055   -0.022 -0.012 -0.039    0.006  0.003  0.012
 C         -0.060 -0.125 -0.061    0.002 -0.003 -0.060    0.056  0.050  0.033
 C         -0.036  0.053  0.049   -0.104 -0.011 -0.004   -0.114 -0.034 -0.024
 O          0.001 -0.015  0.006    0.022 -0.007  0.010    0.022 -0.002  0.011
 H          0.175  0.005  0.182   -0.339  0.009 -0.157    0.358 -0.314  0.066
 H         -0.092  0.051  0.047   -0.150  0.091  0.069    0.194 -0.111 -0.085
 H          0.298  0.414  0.327    0.091 -0.023  0.166    0.005  0.038 -0.074
 H          0.064  0.018  0.074    0.062  0.100  0.038   -0.302 -0.163 -0.218
 H          0.298 -0.494 -0.278    0.579 -0.013  0.096    0.604  0.201  0.240
 O         -0.002 -0.014 -0.016    0.010  0.021 -0.023    0.007 -0.006 -0.004
 H          0.003  0.085  0.050    0.027  0.276  0.144    0.014 -0.000  0.003
 O          0.018 -0.026  0.008   -0.007  0.008 -0.011    0.006  0.001  0.004
 O         -0.010 -0.001 -0.003    0.003 -0.005 -0.005   -0.003 -0.003 -0.004
 H         -0.094 -0.094  0.091    0.321  0.351 -0.238   -0.122 -0.132  0.089
 H         -0.043 -0.019  0.060   -0.010  0.003  0.025   -0.015 -0.013  0.044
 O         -0.021  0.036  0.017    0.002  0.011  0.004    0.007 -0.003  0.001
 O          0.025 -0.004 -0.019    0.004 -0.003 -0.003   -0.002 -0.002  0.001
 H         -0.003  0.000  0.009   -0.004  0.001  0.012   -0.008 -0.006  0.006
 O          0.000  0.001 -0.001    0.000  0.001 -0.001    0.001  0.002 -0.001
 H          0.000  0.002 -0.002    0.000  0.003 -0.002   -0.002 -0.006  0.003
 TransDip   0.000  0.353  0.089   -0.123  0.113  0.191   -0.289 -0.028 -0.034

 Mode:                49                     50                     51
 Frequency:      1437.50                1445.70                1492.26
 Force Cnst:      1.6117                 1.3636                 2.6775
 Red. Mass:       1.3238                 1.1074                 2.0408
 IR Active:          YES                    YES                    YES
 IR Intens:       97.013                 37.223                 44.235
 Raman Active:       YES                    YES                    YES
               X      Y      Z        X      Y      Z        X      Y      Z
 C          0.072 -0.101 -0.041   -0.008 -0.013 -0.033    0.139  0.046  0.181
 O         -0.008  0.017 -0.015   -0.001  0.002  0.008   -0.011 -0.000 -0.046
 C         -0.004  0.022 -0.043   -0.005  0.010 -0.018   -0.084 -0.024 -0.140
 O          0.003 -0.001  0.012    0.001 -0.001  0.005    0.023  0.013  0.025
 C          0.036  0.009  0.030   -0.038  0.068 -0.024    0.021  0.041  0.033
 C         -0.046 -0.014 -0.012   -0.008  0.008  0.001   -0.022  0.000 -0.009
 O          0.009 -0.000  0.004    0.001 -0.003  0.003    0.002 -0.001  0.004
 H         -0.213  0.767  0.221    0.076  0.135  0.101   -0.479 -0.209 -0.376
 H         -0.106  0.049  0.039    0.059 -0.035 -0.027   -0.364  0.209  0.161
 H         -0.003  0.088 -0.128   -0.015 -0.490  0.469   -0.030 -0.123  0.044
 H         -0.237 -0.043 -0.084    0.550 -0.366 -0.160    0.020 -0.186 -0.127
 H          0.218  0.082  0.091    0.108 -0.003  0.010    0.125  0.046  0.040
 O         -0.018  0.016  0.044   -0.003  0.005  0.015   -0.005 -0.032 -0.042
 H         -0.053 -0.274 -0.153   -0.012 -0.097 -0.053    0.010  0.198  0.111
 O          0.001 -0.002  0.001    0.003 -0.000  0.001    0.011 -0.003  0.009
 O         -0.002 -0.001 -0.001   -0.001 -0.001  0.000   -0.001 -0.000 -0.003
 H         -0.088 -0.099  0.066   -0.039 -0.041  0.029   -0.231 -0.255  0.172
 H         -0.011 -0.007  0.022   -0.010  0.002  0.005   -0.028 -0.025  0.046
 O          0.003 -0.001  0.001   -0.000 -0.001 -0.001    0.001 -0.002  0.000
 O         -0.001 -0.001  0.000    0.000  0.000  0.000   -0.001 -0.000  0.000
 H         -0.004 -0.004  0.000    0.005  0.008  0.010   -0.003  0.000  0.002
 O          0.001  0.001 -0.001   -0.001 -0.001 -0.000    0.000  0.000 -0.000
 H         -0.001 -0.004  0.003    0.003  0.010 -0.006   -0.001 -0.001  0.001
 TransDip  -0.073 -0.288 -0.107    0.057 -0.187 -0.006   -0.111  0.093  0.156

 Mode:                52                     53                     54
 Frequency:      1574.27                1628.27                2942.52
 Force Cnst:      1.6081                 1.6740                 5.4906
 Red. Mass:       1.1013                 1.0717                 1.0763
 IR Active:          YES                    YES                    YES
 IR Intens:      103.305                132.764               1611.619
 Raman Active:       YES                    YES                    YES
               X      Y      Z        X      Y      Z        X      Y      Z
 C         -0.004 -0.001 -0.004   -0.000 -0.000 -0.000    0.000  0.000 -0.001
 O          0.001 -0.000  0.001    0.000 -0.000  0.000    0.000 -0.000  0.000
 C         -0.002  0.006  0.010   -0.001 -0.000  0.001   -0.003  0.002  0.001
 O         -0.002 -0.001 -0.001    0.000  0.000 -0.000    0.001  0.000 -0.000
 C         -0.001 -0.003  0.001    0.001 -0.001  0.001   -0.000  0.001 -0.001
 C          0.024 -0.006 -0.016    0.002 -0.003 -0.001    0.007 -0.012  0.014
 O         -0.003  0.010  0.009   -0.004  0.001 -0.002   -0.005  0.003  0.005
 H          0.008  0.002  0.006    0.001  0.000  0.000   -0.004 -0.003  0.005
 H          0.008 -0.004 -0.003    0.001 -0.000 -0.000    0.001 -0.000  0.000
 H         -0.016 -0.021 -0.025   -0.001  0.006 -0.010   -0.002 -0.002 -0.004
 H          0.014  0.010  0.013   -0.016  0.002  0.001   -0.004 -0.010  0.013
 H         -0.032  0.025 -0.007   -0.004  0.004  0.005    0.022  0.134 -0.195
 O          0.000  0.000  0.000    0.000  0.000  0.000    0.000  0.000  0.000
 H         -0.000 -0.002 -0.001   -0.000 -0.000 -0.000   -0.000 -0.000 -0.001
 O          0.028  0.034  0.006    0.004  0.004  0.001    0.002 -0.001 -0.002
 O          0.003 -0.019 -0.053   -0.000 -0.003 -0.008   -0.025 -0.044 -0.040
 H          0.015  0.015 -0.011    0.000  0.000 -0.001   -0.002  0.001 -0.003
 H         -0.585 -0.363  0.704   -0.058 -0.060  0.105    0.399  0.650  0.590
 O         -0.001 -0.001  0.001   -0.000  0.000  0.000   -0.001  0.000  0.001
 O         -0.001  0.001  0.001   -0.000 -0.000  0.000   -0.000  0.001  0.000
 H         -0.082 -0.032 -0.056    0.530  0.359  0.448    0.011  0.052 -0.074
 O          0.006  0.006  0.001   -0.042 -0.049 -0.005   -0.001 -0.004  0.005
 H         -0.028 -0.067  0.050    0.193  0.464 -0.339    0.001 -0.002  0.005
 TransDip  -0.136  0.009  0.296    0.224  0.289  0.050    0.302  0.936  0.828

 Mode:                55                     56                     57
 Frequency:      2984.03                3082.84                3121.14
 Force Cnst:      5.6844                 5.9534                 6.2449
 Red. Mass:       1.0835                 1.0632                 1.0881
 IR Active:          YES                    YES                    YES
 IR Intens:      256.169                 10.035                 27.098
 Raman Active:       YES                    YES                    YES
               X      Y      Z        X      Y      Z        X      Y      Z
 C          0.000 -0.000 -0.000   -0.001 -0.000  0.001    0.044  0.035 -0.065
 O          0.000 -0.000 -0.000   -0.000 -0.000 -0.000    0.000 -0.000  0.001
 C         -0.001  0.001 -0.000   -0.000 -0.001 -0.001    0.001  0.000 -0.000
 O          0.000 -0.000 -0.000   -0.000 -0.000  0.000    0.000 -0.000  0.001
 C         -0.001 -0.001  0.003   -0.021  0.054 -0.041   -0.004  0.001  0.001
 C          0.008  0.045 -0.067    0.001  0.002 -0.002   -0.000 -0.000  0.000
 O          0.002  0.000  0.000    0.000 -0.000  0.000    0.000  0.000 -0.000
 H         -0.001 -0.001  0.002    0.013  0.009 -0.017   -0.523 -0.400  0.746
 H          0.000 -0.000 -0.000    0.000 -0.000 -0.000    0.000 -0.004 -0.005
 H          0.009 -0.007 -0.008    0.433 -0.146 -0.193    0.042 -0.015 -0.017
 H          0.012  0.023 -0.029   -0.194 -0.484  0.689   -0.001 -0.001 -0.000
 H         -0.123 -0.544  0.789   -0.003 -0.017  0.024    0.000  0.001 -0.001
 O         -0.000 -0.000 -0.000    0.000  0.000  0.000   -0.001 -0.000  0.002
 H         -0.000 -0.000 -0.000   -0.000 -0.000 -0.000    0.006  0.001 -0.017
 O          0.000 -0.000 -0.000    0.000  0.000 -0.000   -0.000  0.000 -0.000
 O         -0.006 -0.010 -0.010    0.000  0.000  0.000    0.001  0.000  0.001
 H         -0.001 -0.003  0.003   -0.001 -0.001 -0.000   -0.000 -0.001  0.000
 H          0.093  0.157  0.145   -0.004 -0.004 -0.005   -0.002 -0.005 -0.004
 O          0.000  0.001 -0.000   -0.000 -0.000 -0.000   -0.000 -0.000 -0.000
 O         -0.001 -0.000  0.001    0.000  0.000 -0.000    0.000  0.000 -0.000
 H          0.007  0.038 -0.047   -0.001 -0.002  0.002   -0.000 -0.001  0.001
 O         -0.001 -0.003  0.003    0.000  0.000 -0.000    0.000  0.000 -0.000
 H          0.001 -0.001  0.003   -0.001 -0.001  0.000    0.000  0.000  0.000
 TransDip   0.208  0.455 -0.113   -0.017  0.052 -0.085    0.124  0.058 -0.095

 Mode:                58                     59                     60
 Frequency:      3143.25                3329.96                3783.55
 Force Cnst:      6.4106                 6.9727                 8.9885
 Red. Mass:       1.1013                 1.0673                 1.0657
 IR Active:          YES                    YES                    YES
 IR Intens:       12.398               1459.215                127.714
 Raman Active:       YES                    YES                    YES
               X      Y      Z        X      Y      Z        X      Y      Z
 C         -0.002 -0.001  0.003    0.000 -0.000  0.000    0.001  0.001 -0.002
 O         -0.000 -0.000 -0.000   -0.000 -0.000 -0.000   -0.001 -0.000 -0.001
 C         -0.001 -0.000  0.001   -0.000  0.000  0.000    0.000 -0.000  0.000
 O          0.000  0.000 -0.000    0.000 -0.000  0.000    0.000 -0.000  0.000
 C         -0.071 -0.000  0.058    0.000 -0.000 -0.000   -0.000  0.000 -0.000
 C         -0.001 -0.002  0.003    0.006  0.000 -0.004    0.000 -0.000  0.000
 O          0.000  0.000 -0.000   -0.003 -0.002  0.002   -0.000 -0.000 -0.000
 H          0.021  0.017 -0.032    0.000  0.000 -0.000   -0.008 -0.008  0.011
 H          0.000 -0.001  0.000   -0.000 -0.000 -0.000    0.010 -0.002  0.021
 H          0.759 -0.271 -0.321   -0.007  0.001  0.001    0.000 -0.000 -0.000
 H          0.099  0.277 -0.385    0.001 -0.000  0.000   -0.000 -0.000  0.001
 H          0.002  0.016 -0.027   -0.016 -0.015  0.032   -0.000  0.000 -0.000
 O          0.000  0.000 -0.000   -0.000 -0.000 -0.000    0.025  0.031 -0.048
 H         -0.000  0.000  0.001   -0.000 -0.000  0.000   -0.402 -0.482  0.776
 O          0.000 -0.000 -0.000    0.000 -0.000 -0.000   -0.000  0.000 -0.000
 O         -0.000  0.000 -0.000   -0.002 -0.004 -0.004    0.000 -0.000 -0.000
 H          0.000  0.002 -0.000    0.000  0.001 -0.001   -0.001  0.000 -0.003
 H          0.003 -0.000 -0.000    0.034  0.073  0.065    0.000  0.000  0.000
 O         -0.000 -0.000  0.000   -0.000  0.001  0.000   -0.000 -0.000 -0.000
 O          0.000  0.000  0.000   -0.000  0.000  0.000    0.000  0.000 -0.000
 H         -0.000 -0.005  0.006   -0.137 -0.654  0.729    0.000  0.000 -0.000
 O         -0.000  0.000 -0.000    0.011  0.043 -0.044   -0.000 -0.000  0.000
 H          0.000  0.000 -0.001   -0.035  0.001 -0.067    0.000  0.000  0.000
 TransDip  -0.075 -0.046  0.071   -0.260 -0.669  0.991   -0.119 -0.227  0.256

 Mode:                61                     62                     63
 Frequency:      3806.38                3825.52                3861.53
 Force Cnst:      9.1043                 9.1981                 9.3665
 Red. Mass:       1.0665                 1.0668                 1.0661
 IR Active:          YES                    YES                    YES
 IR Intens:      153.060                134.464                101.864
 Raman Active:       YES                    YES                    YES
               X      Y      Z        X      Y      Z        X      Y      Z
 C         -0.000 -0.000  0.000    0.000  0.000 -0.001    0.000 -0.000  0.000
 O         -0.000  0.000 -0.000   -0.028  0.008 -0.055   -0.000  0.000 -0.000
 C         -0.001 -0.000 -0.001    0.000 -0.000  0.000    0.000  0.000  0.000
 O         -0.024 -0.007 -0.057    0.000  0.000  0.000   -0.000 -0.000 -0.000
 C         -0.000 -0.000  0.000    0.000  0.000  0.000   -0.000 -0.000 -0.000
 C          0.000 -0.000  0.001   -0.000  0.000 -0.000    0.000 -0.000 -0.000
 O          0.000  0.000 -0.000    0.000  0.000  0.000   -0.000 -0.000  0.000
 H          0.000 -0.000  0.001    0.002 -0.003  0.003    0.000  0.000 -0.000
 H          0.002 -0.001  0.005    0.436 -0.123  0.889    0.000 -0.000  0.000
 H          0.000  0.001  0.000   -0.000  0.000  0.000   -0.000  0.000 -0.000
 H         -0.001 -0.002 -0.000   -0.000 -0.000  0.000   -0.000 -0.000  0.000
 H         -0.002 -0.001 -0.004    0.000 -0.000  0.000   -0.001 -0.000  0.001
 O          0.000  0.000 -0.000   -0.000 -0.001  0.001   -0.000 -0.000 -0.000
 H         -0.002 -0.002  0.002    0.009  0.012 -0.018    0.000  0.000 -0.000
 O         -0.000 -0.000  0.000    0.000 -0.000  0.000    0.000 -0.000 -0.000
 O         -0.000 -0.000 -0.000    0.000  0.000  0.000   -0.000 -0.000 -0.000
 H          0.400  0.127  0.905   -0.002 -0.001 -0.005    0.000  0.000  0.000
 H          0.001  0.002  0.002   -0.000 -0.000 -0.000    0.001  0.003  0.002
 O          0.000  0.000 -0.000    0.000  0.000  0.000   -0.000  0.000  0.000
 O         -0.000 -0.000 -0.000   -0.000  0.000 -0.000   -0.000  0.000  0.000
 H         -0.000 -0.000  0.000   -0.000 -0.000  0.000   -0.026 -0.047  0.023
 O          0.000  0.000 -0.000    0.000  0.000 -0.000   -0.037 -0.013 -0.049
 H         -0.000 -0.000 -0.000   -0.000 -0.000 -0.000    0.607  0.255  0.747
 TransDip   0.082  0.007  0.388    0.220 -0.091  0.285    0.137 -0.004  0.293

 STANDARD THERMODYNAMIC QUANTITIES AT   298.15 K  AND     1.00 ATM

   This Molecule has  0 Imaginary Frequencies
   Zero point vibrational energy:      105.159 kcal/mol

   Atom    1 Element C  Has Mass   12.00000
   Atom    2 Element O  Has Mass   15.99491
   Atom    3 Element C  Has Mass   12.00000
   Atom    4 Element O  Has Mass   15.99491
   Atom    5 Element C  Has Mass   12.00000
   Atom    6 Element C  Has Mass   12.00000
   Atom    7 Element O  Has Mass   15.99491
   Atom    8 Element H  Has Mass    1.00783
   Atom    9 Element H  Has Mass    1.00783
   Atom   10 Element H  Has Mass    1.00783
   Atom   11 Element H  Has Mass    1.00783
   Atom   12 Element H  Has Mass    1.00783
   Atom   13 Element O  Has Mass   15.99491
   Atom   14 Element H  Has Mass    1.00783
   Atom   15 Element O  Has Mass   15.99491
   Atom   16 Element O  Has Mass   15.99491
   Atom   17 Element H  Has Mass    1.00783
   Atom   18 Element H  Has Mass    1.00783
   Atom   19 Element O  Has Mass   15.99491
   Atom   20 Element O  Has Mass   15.99491
   Atom   21 Element H  Has Mass    1.00783
   Atom   22 Element O  Has Mass   15.99491
   Atom   23 Element H  Has Mass    1.00783
   Molecular Mass:   202.032490 amu
   Principal axes and moments of inertia in amu*Bohr^2:
                             1           2           3
    Eigenvalues --     1830.45480  3522.63419  4154.40352
          X               0.50956     0.74223    -0.43525
          Y               0.72543    -0.09856     0.68121
          Z               0.46271    -0.66286    -0.58866
   Rotational Symmetry Number is   1
   The Molecule is an Asymmetric Top
   Translational Enthalpy:        0.889 kcal/mol
   Rotational Enthalpy:           0.889 kcal/mol
   Vibrational Enthalpy:        113.380 kcal/mol
   gas constant (RT):             0.592 kcal/mol
   Translational Entropy:        41.814  cal/mol.K
   Rotational Entropy:           31.660  cal/mol.K
   Vibrational Entropy:          53.541  cal/mol.K

   Total Enthalpy:              115.750 kcal/mol
   Total Entropy:               127.015  cal/mol.K
 Total job time:  54956.23s(wall), 772038.15s(cpu) 
 Thu Jul  4 07:57:51 2024

        *************************************************************
        *                                                           *
        *  Thank you very much for using Q-Chem.  Have a nice day.  *
        *                                                           *
        *************************************************************


