
Running Job 1 of 1 Q_in.in
qchem Q_in.in_992042.0 /scratch/ari.fischer/qChem2150298.hpc-mn1/qchem992042/ 0
/usr/local/qchem-5.4.1/exe/qcprog.exe_s Q_in.in_992042.0 /scratch/ari.fischer/qChem2150298.hpc-mn1/qchem992042/
                  Welcome to Q-Chem
     A Quantum Leap Into The Future Of Chemistry


 Q-Chem 5.4, Q-Chem, Inc., Pleasanton, CA (2021)

 License issued to: Nanyang Technological University (site)

 E. Epifanovsky,  A. T. B. Gilbert,  Xintian Feng,  Joonho Lee,  Yuezhi Mao,  
 N. Mardirossian,  P. Pokhilko,  A. White,  M. Wormit,  M. P. Coons,  
 A. L. Dempwolff,  Zhengting Gan,  D. Hait,  P. R. Horn,  L. D. Jacobson,  
 I. Kaliman,  J. Kussmann,  A. W. Lange,  Ka Un Lao,  D. S. Levine,  Jie Liu,  
 S. C. McKenzie,  A. F. Morrison,  K. Nanda,  F. Plasser,  D. R. Rehn,  
 M. L. Vidal,  Zhi-Qiang You,  Ying Zhu,  B. Alam,  B. Albrecht,  
 A. Aldossary,  E. Alguire,  J. H. Andersen,  D. Barton,  K. Begam,  A. Behn,  
 Y. A. Bernard,  E. J. Berquist,  H. Burton,  A. Carreras,  K. Carter-Fenk,  
 Romit Chakraborty,  A. D. Chien,  K. D. Closser,  V. Cofer-Shabica,  
 S. Dasgupta,  Jia Deng,  M. de Wergifosse,  M. Diedenhofen,  Hainam Do,  
 S. Ehlert,  Po-Tung Fang,  S. Fatehi,  Qingguo Feng,  T. Friedhoff,  
 J. Gayvert,  Qinghui Ge,  G. Gidofalvi,  M. Goldey,  J. Gomes,  
 C. Gonzalez-Espinoza,  S. Gulania,  A. Gunina,  M. W. D. Hanson-Heine,  
 P. H. P. Harbach,  A. W. Hauser,  M. F. Herbst,  M. Hernandez Vera,  
 M. Hodecker,  Z. C. Holden,  S. Houck,  Xunkun Huang,  Kerwin Hui,  
 B. C. Huynh,  M. Ivanov,  Hyunjun Ji,  Hanjie Jiang,  B. Kaduk,  S. Kaehler,  
 K. Khistyaev,  Jaehoon Kim,  P. Klunzinger,  Z. Koczor-Benda,  
 Joong Hoon Koh,  D. Kosenkov,  L. Koulias,  T. Kowalczyk,  C. M. Krauter,  
 K. Kue,  A. Kunitsa,  T. Kus,  A. Landau,  K. V. Lawler,  D. Lefrancois,  
 S. Lehtola,  Rain Li,  Yi-Pei Li,  Jiashu Liang,  M. Liebenthal,  
 Hung-Hsuan Lin,  You-Sheng Lin,  Fenglai Liu,  Kuan-Yu Liu,  
 M. Loipersberger,  A. Luenser,  A. Manjanath,  P. Manohar,  E. Mansoor,  
 S. F. Manzer,  Shan-Ping Mao,  A. V. Marenich,  T. Markovich,  S. Mason,  
 S. A. Maurer,  P. F. McLaughlin,  M. F. S. J. Menger,  J.-M. Mewes,  
 S. A. Mewes,  P. Morgante,  J. W. Mullinax,  K. J. Oosterbaan,  G. Paran,  
 Alexander C. Paul,  Suranjan K. Paul,  F. Pavosevic,  Zheng Pei,  S. Prager,  
 E. I. Proynov,  E. Ramos,  B. Rana,  A. E. Rask,  A. Rettig,  R. M. Richard,  
 F. Rob,  E. Rossomme,  T. Scheele,  M. Scheurer,  M. Schneider,  
 N. Sergueev,  S. M. Sharada,  W. Skomorowski,  D. W. Small,  C. J. Stein,  
 Yu-Chuan Su,  E. J. Sundstrom,  Zhen Tao,  J. Thirman,  T. Tsuchimochi,  
 N. M. Tubman,  S. P. Veccham,  O. Vydrov,  J. Wenzel,  J. Witte,  A. Yamada,  
 Kun Yao,  S. Yeganeh,  S. R. Yost,  A. Zech,  Igor Ying Zhang,  Xing Zhang,  
 Yu Zhang,  D. Zuev,  A. Aspuru-Guzik,  A. T. Bell,  N. A. Besley,  
 K. B. Bravaya,  B. R. Brooks,  D. Casanova,  Jeng-Da Chai,  S. Coriani,  
 C. J. Cramer,  A. E. DePrince, III,  R. A. DiStasio Jr.,  A. Dreuw,  
 B. D. Dunietz,  T. R. Furlani,  W. A. Goddard III,  S. Grimme,  
 S. Hammes-Schiffer,  T. Head-Gordon,  W. J. Hehre,  Chao-Ping Hsu,  
 T.-C. Jagau,  Yousung Jung,  A. Klamt,  Jing Kong,  D. S. Lambrecht,  
 WanZhen Liang,  N. J. Mayhall,  C. W. McCurdy,  J. B. Neaton,  T. Neudecker,  
 C. Ochsenfeld,  J. A. Parkhill,  R. Peverati,  V. A. Rassolov,  Yihan Shao,  
 L. V. Slipchenko,  R. P. Steele,  J. E. Subotnik,  A. J. W. Thom,  
 A. Tkatchenko,  D. G. Truhlar,  T. Van Voorhis,  T. A. Wesolowski,  
 K. B. Whaley,  H. L. Woodcock III,  P. M. Zimmerman,  S. Faraji,  
 P. M. W. Gill,  M. Head-Gordon,  J. M. Herbert,  A. I. Krylov

 Additional authors since Version 5.4.0: 
 Chandrima Chakravarty,  L. Cunha,  R. Kang,  Yongbin Kim,  S. Kotaru,  
 Shaozhi Li,  Xiangyuan Li,  F. Matz,  A. Molle,  V. Parravicini,  
 Haisheng Ren,  Hengyuan Shen,  Yingli Su,  Hung-Yi Tsai,  C. Utku,  
 Fang Wang,  Jeff Yang,  F. Zeller

 Contributors to earlier versions of Q-Chem not listed above: 
 R. D. Adamson,  B. Austin,  R. Baer,  J. Baker,  G. J. O. Beran,  
 K. Brandhorst,  S. T. Brown,  E. F. C. Byrd,  Arup K. Chakraborty,  
 G. K. L. Chan,  Chun-Min Chang,  Yunqing Chen,  C.-L. Cheng,  
 Siu Hung Chien,  D. M. Chipman,  D. L. Crittenden,  H. Dachsel,  
 R. J. Doerksen,  A. D. Dutoi,  R. G. Edgar,  J. Fosso-Tande,  
 L. Fusti-Molnar,  D. Ghosh,  A. Ghysels,  A. Golubeva-Zadorozhnaya,  
 J. Gonthier,  M. S. Gordon,  S. R. Gwaltney,  G. Hawkins,  J. E. Herr,  
 A. Heyden,  S. Hirata,  E. G. Hohenstein,  G. Kedziora,  F. J. Keil,  
 C. Kelley,  Jihan Kim,  R. A. King,  R. Z. Khaliullin,  P. P. Korambath,  
 W. Kurlancheek,  A. Laurent,  A. M. Lee,  M. S. Lee,  S. V. Levchenko,  
 Ching Yeh Lin,  D. Liotard,  E. Livshits,  R. C. Lochan,  I. Lotan,  
 L. A. Martinez-Martinez,  P. E. Maslen,  N. Nair,  D. P. O'Neill,  
 D. Neuhauser,  E. Neuscamman,  C. M. Oana,  R. Olivares-Amaya,  R. Olson,  
 T. M. Perrine,  B. Peters,  P. A. Pieniazek,  A. Prociuk,  Y. M. Rhee,  
 J. Ritchie,  M. A. Rohrdanz,  E. Rosta,  N. J. Russ,  H. F. Schaefer III,  
 M. W. Schmidt,  N. E. Schultz,  S. Sharma,  N. Shenvi,  C. D. Sherrill,  
 A. C. Simmonett,  A. Sodt,  T. Stein,  D. Stuck,  K. S. Thanthiriwatte,  
 V. Vanovschi,  L. Vogt,  Tao Wang,  A. Warshel,  M. A. Watson,  
 C. F. Williams,  Q. Wu,  X. Xu,  Jun Yang,  W. Zhang,  Yan Zhao

   Please cite Q-Chem as follows:
  "Software for the frontiers of quantum chemistry:
   An overview of developments in the Q-Chem 5 package"
   J. Chem. Phys. 155, 084801 (2021)
   https://doi.org/10.1063/5.0055522 (open access)

 Q-Chem 5.4.2 for Intel X86 EM64T Linux

 Parts of Q-Chem use Armadillo 9.900.5 (Nocturnal Misbehaviour).
 http://arma.sourceforge.net/

 Q-Chem begins on Sat Jun  1 08:26:46 2024  

 Host: 
0

     Scratch files written to /scratch/ari.fischer/qChem2150298.hpc-mn1/qchem992042//
 Dec1321 |scratch|qcdevops|jenkins|workspace|build_RNUM 8249   
 Processing $rem in /usr/local/qchem-5.4.1/config/preferences:
 Processing $rem in /home/ari.fischer/.qchemrc:
 Symmetry turned off for PCM/SM12/SMD calculation


!!********************************************.
!!******************Warning*******************.
!!Desired Analytical derivatives not available.
!!Finite difference job might take a long time.
!!********************************************.
!!********************************************.


 2-order derivative to be evaluated numerically with 1-order analytical derivatives

 Checking the input file for inconsistencies... 	...done.

--------------------------------------------------------------
User input:
--------------------------------------------------------------
$molecule
0 2
C         1.0660571488    0.3237733651   -0.2325855600
O         0.4542957641   -0.6813138616   -1.0173527261
C         2.5781629610    0.2872608125   -0.2171538741
O         3.1870226054    1.1259783861    0.4206522509
C         3.2687435449   -0.7840759424   -1.0114261882
C         4.7689790185   -0.7600980837   -0.8625642275
O         5.0515239238   -1.2052739763    0.4953712963
O         6.0874048818   -0.6108432645    1.0149347645
C         5.4697369349   -1.7163757806   -1.8248153092
O         5.2558747581   -1.1829348814   -3.1084419619
O         6.8375815243   -1.8501716714   -1.5327799864
H         0.7257445879    0.2952847279    0.8048789827
H         0.7766419401    1.2890307803   -0.6485619100
H         0.4890151494   -1.5141220954   -0.5352659243
H         2.9955334463   -0.6532232205   -2.0597162782
H         2.8690032901   -1.7587673354   -0.7201859531
H         5.1881490347    0.2399585763   -0.9642126926
H         5.0514859113   -2.7197167659   -1.7416041604
H         5.4622929584   -1.8656357292   -3.7570392154
H         7.2409706161   -0.9720060399   -1.5237881869
$end

$rem
BASIS = 6-311++G(2df,2p)
GUI = 2
JOB_TYPE = Frequency
METHOD = wB97M-V
SOLVENT_METHOD = SMD
SCF_ALGORITHM = DIIS_GDM
MAX_SCF_CYCLES = 400
SCF_CONVERGENCE = 7
THRESH = 12
$end
--------------------------------------------------------------
 ----------------------------------------------------------------
             Standard Nuclear Orientation (Angstroms)
    I     Atom           X                Y                Z
 ----------------------------------------------------------------
    1      C       1.0660571488     0.3237733651    -0.2325855600
    2      O       0.4542957641    -0.6813138616    -1.0173527261
    3      C       2.5781629610     0.2872608125    -0.2171538741
    4      O       3.1870226054     1.1259783861     0.4206522509
    5      C       3.2687435449    -0.7840759424    -1.0114261882
    6      C       4.7689790185    -0.7600980837    -0.8625642275
    7      O       5.0515239238    -1.2052739763     0.4953712963
    8      O       6.0874048818    -0.6108432645     1.0149347645
    9      C       5.4697369349    -1.7163757806    -1.8248153092
   10      O       5.2558747581    -1.1829348814    -3.1084419619
   11      O       6.8375815243    -1.8501716714    -1.5327799864
   12      H       0.7257445879     0.2952847279     0.8048789827
   13      H       0.7766419401     1.2890307803    -0.6485619100
   14      H       0.4890151494    -1.5141220954    -0.5352659243
   15      H       2.9955334463    -0.6532232205    -2.0597162782
   16      H       2.8690032901    -1.7587673354    -0.7201859531
   17      H       5.1881490347     0.2399585763    -0.9642126926
   18      H       5.0514859113    -2.7197167659    -1.7416041604
   19      H       5.4622929584    -1.8656357292    -3.7570392154
   20      H       7.2409706161    -0.9720060399    -1.5237881869
 ----------------------------------------------------------------
 Nuclear Repulsion Energy =         666.33509034 hartrees
 There are       44 alpha and       43 beta electrons
 Requested basis set is 6-311++G(2df,2p)
 There are 142 shells and 464 basis functions

 Total QAlloc Memory Limit 288000 MB
 Mega-Array Size       188 MB
 MEM_STATIC part       192 MB
 
 Citation of the SMD model:
 Marenich, A.V.; Cramer, C.J.; Truhlar, D.G.
 J. Phys. Chem. B 2009, 113, 6378-6396.
 iSolventCode=           1
 Solvent: water                                                           
 
 vradii
            1           2           3           4           5           6
    1   1.8500000   1.5200000   1.8500000   1.5200000   1.8500000   1.8500000
            7           8           9          10          11          12
    1   1.5200000   1.5200000   1.8500000   1.5200000   1.5200000   1.2000000
           13          14          15          16          17          18
    1   1.2000000   1.2000000   1.2000000   1.2000000   1.2000000   1.2000000
           19          20
    1   1.2000000   1.2000000
 Changing PCM_VDW_RADII to SMD_RADIUS
 Discretize the solute cavity surface with Lebedev spheres
	Using 110 Lebedev grid points for each H atom
	Using 194 Lebedev grid points for other atoms
	Atomic van der Waals radii will be scaled by 1.20
 Remove points where switching function is < 1.0e-08
 Keep 1609 surface tesserae and discard 1515 interior tesserae
 Molecular Surface Area = 179.631 Angst**2
 A cutoff of  1.0D-12 yielded   8557 shell pairs
 There are     89865 function pairs (    111275 Cartesian)
 Smallest overlap matrix eigenvalue = 4.24E-06
 Guess from superposition of atomic densities
 Warning:  Energy on first SCF cycle will be non-variational
 SAD guess density has 87.000000 electrons

 -----------------------------------------------------------------------
  General SCF calculation program by
  Eric Jon Sundstrom, Paul Horn, Yuezhi Mao, Dmitri Zuev, Alec White,
  David Stuck, Shaama M.S., Shane Yost, Joonho Lee, David Small,
  Daniel Levine, Susi Lehtola, Hugh Burton, Evgeny Epifanovsky,
  Bang C. Huynh
 -----------------------------------------------------------------------
 Exchange:     0.1500 Hartree-Fock + 1.0000 wB97M-V + LR-HF
 Correlation:  1.0000 wB97M-V
 Using SG-2 standard quadrature grid
 Nonlocal Correlation:  VV10 with C = 0.0100 and b = 6.00 and scale = 1.00000
 Grid used for NLC:  SG-1 standard quadrature
 using 16 threads for integral computing
 -------------------------------------------------------
 OpenMP Integral computing Module                
 Release: version 1.0, May 2013, Q-Chem Inc. Pittsburgh 
 -------------------------------------------------------
 
 Citation of the SMD model:
 Marenich, A.V.; Cramer, C.J.; Truhlar, D.G.
 J. Phys. Chem. B 2009, 113, 6378-6396.
 iSolventCode=           1
 Solvent: water                                                           
 
 vradii
            1           2           3           4           5           6
    1   1.8500000   1.5200000   1.8500000   1.5200000   1.8500000   1.8500000
            7           8           9          10          11          12
    1   1.5200000   1.5200000   1.8500000   1.5200000   1.5200000   1.2000000
           13          14          15          16          17          18
    1   1.2000000   1.2000000   1.2000000   1.2000000   1.2000000   1.2000000
           19          20
    1   1.2000000   1.2000000
 -------------------------------------------------------
 OpenMP BLAS3 based DFT computing Module                
 Release: version 1.0, May 2013, Q-Chem Inc. Pittsburgh 
 -------------------------------------------------------
 A unrestricted SCF calculation will be
 performed using DIIS, GDM
 SCF converges when RMS gradient is below 1.0e-07
 ---------------------------------------
  Cycle       Energy         DIIS error
 ---------------------------------------
    1    -649.4876724673      1.16e-02  
    2    -646.9828656481      1.60e-03  Done DIIS. Switching to GDM
 ---------------------------------------
  Cycle       Energy        RMS Gradient
 ---------------------------------------
    1    -646.9828656481      1.47e-01   Descent step
    2    -647.1687498176      3.36e-02   Normal BFGS step
    3    -647.1996877523      3.05e-02   Normal BFGS step
    4    -647.2023287141      1.46e-02   Normal BFGS step
    5    -647.2042265457      6.92e-03   Normal BFGS step
    6    -647.2044031168      3.63e-03   Normal BFGS step
    7    -647.2045115140      3.21e-03   Normal BFGS step
    8    -647.2045360435      8.03e-04   Normal BFGS step
    9    -647.2045426131      5.21e-04   Normal BFGS step
   10    -647.2045440032      4.27e-04   Normal BFGS step
   11    -647.2045444460      3.77e-04   Normal BFGS step
   12    -647.2045447715      2.81e-04   Normal BFGS step
   13    -647.2045450768      1.43e-04   Normal BFGS step
   14    -647.2045452309      5.75e-05   Normal BFGS step
   15    -647.2045452553      1.11e-05   Normal BFGS step
   16    -647.2045452613      4.96e-06   Normal BFGS step
   17    -647.2045452616      1.69e-06   Normal BFGS step
   18    -647.2045452617      5.55e-07   Normal BFGS step
   19    -647.2045452617      2.90e-07   Normal BFGS step
   20    -647.2045452617      1.70e-07   Normal BFGS step
   21    -647.2045452618      5.13e-08  Convergence criterion met
 ---------------------------------------
 SCF time:   CPU 2469.06s  wall 170.00s 
<S^2> =          0.753904684
(3)  G-ENP(liq) elect-nuc-pol free energy of system     -647.204545262 a.u.
(4)  G-CDS(liq) cavity-dispersion-solvent structure 
     free energy                                                4.0908 kcal/mol
(6)  G-S(liq) free energy of system                     -647.198026123 a.u.
 SCF   energy in the final basis set =     -647.1980261228
 Total energy in the final basis set =     -647.1980261228
 
 --------------------------------------------------------------
 
                    Orbital Energies (a.u.)
 --------------------------------------------------------------
 
 Alpha MOs
 -- Occupied --
-19.4657 -19.4181 -19.3507 -19.3487 -19.3452 -19.3393 -10.4546 -10.4480
-10.4148 -10.3946 -10.3565  -1.3465  -1.2076  -1.1935  -1.1643  -1.1398
 -1.0312  -0.9090  -0.8564  -0.8195  -0.7503  -0.6880  -0.6766  -0.6579
 -0.6423  -0.6269  -0.6052  -0.5935  -0.5847  -0.5727  -0.5582  -0.5420
 -0.5343  -0.5223  -0.4928  -0.4758  -0.4514  -0.4470  -0.4416  -0.4257
 -0.4145  -0.4058  -0.3888  -0.3618
 -- Virtual --
  0.0258   0.0348   0.0376   0.0455   0.0580   0.0592   0.0612   0.0683
  0.0814   0.0917   0.0978   0.1040   0.1053   0.1230   0.1300   0.1416
  0.1445   0.1485   0.1547   0.1590   0.1628   0.1650   0.1687   0.1762
  0.1821   0.1935   0.1992   0.2013   0.2075   0.2169   0.2369   0.2439
  0.2474   0.2535   0.2615   0.2632   0.2732   0.2757   0.2791   0.2848
  0.2996   0.3056   0.3085   0.3111   0.3219   0.3250   0.3285   0.3343
  0.3455   0.3484   0.3537   0.3593   0.3620   0.3659   0.3703   0.3774
  0.3803   0.3847   0.3920   0.3978   0.4023   0.4044   0.4159   0.4178
  0.4288   0.4385   0.4479   0.4546   0.4693   0.4758   0.4938   0.5182
  0.5417   0.5471   0.5769   0.5818   0.5916   0.6060   0.6068   0.6184
  0.6317   0.6437   0.6553   0.6654   0.6698   0.6749   0.6884   0.6952
  0.7059   0.7102   0.7158   0.7263   0.7333   0.7512   0.7591   0.7721
  0.7828   0.7928   0.8317   0.8394   0.8568   0.8671   0.8804   0.8996
  0.9346   0.9384   0.9517   0.9712   1.0061   1.0191   1.0221   1.0418
  1.0505   1.0520   1.0563   1.0752   1.0908   1.1079   1.1093   1.1347
  1.1536   1.1557   1.1642   1.1712   1.1771   1.1946   1.1983   1.2067
  1.2126   1.2147   1.2231   1.2387   1.2455   1.2635   1.2679   1.2731
  1.2904   1.2977   1.3081   1.3149   1.3289   1.3410   1.3526   1.3625
  1.3678   1.3781   1.4023   1.4072   1.4115   1.4222   1.4246   1.4477
  1.4735   1.4933   1.4988   1.5051   1.5115   1.5258   1.5398   1.5622
  1.5673   1.5729   1.5903   1.6060   1.6160   1.6187   1.6333   1.6498
  1.6554   1.6853   1.6925   1.7039   1.7081   1.7355   1.7566   1.7687
  1.8141   1.8383   1.8682   1.8932   1.9039   1.9344   1.9367   1.9646
  1.9857   2.0128   2.0263   2.0676   2.0874   2.1230   2.1751   2.2047
  2.2250   2.2318   2.2648   2.3027   2.3247   2.3558   2.3643   2.3832
  2.4009   2.4107   2.4306   2.4587   2.4791   2.5247   2.6000   2.6059
  2.6558   2.6651   2.7470   2.7640   2.7746   2.8226   2.8310   2.8670
  2.8842   2.8956   2.9045   2.9242   2.9387   2.9618   2.9854   3.0217
  3.0376   3.0537   3.0867   3.1052   3.1183   3.1537   3.1600   3.1803
  3.2195   3.2374   3.2424   3.2666   3.2839   3.3076   3.3311   3.3533
  3.3811   3.4025   3.4147   3.4256   3.4501   3.4715   3.4985   3.5089
  3.5391   3.5622   3.5770   3.5908   3.6046   3.6274   3.6389   3.6492
  3.6639   3.6811   3.7054   3.7212   3.7437   3.7558   3.7740   3.7950
  3.8058   3.8108   3.8443   3.8516   3.8717   3.8919   3.8999   3.9247
  3.9404   3.9607   3.9725   3.9932   4.0188   4.0462   4.0614   4.0959
  4.1106   4.1203   4.1377   4.1548   4.1809   4.2298   4.2420   4.2557
  4.2704   4.2911   4.3081   4.3296   4.3596   4.3628   4.3845   4.3870
  4.3999   4.4260   4.4627   4.4887   4.5090   4.5322   4.5502   4.5610
  4.5895   4.6064   4.6375   4.6709   4.7113   4.7472   4.7604   4.8032
  4.8954   4.9078   4.9484   5.0227   5.0449   5.0903   5.0961   5.1068
  5.1626   5.1732   5.1910   5.1993   5.2196   5.2438   5.2552   5.2635
  5.2737   5.2805   5.2932   5.3075   5.3193   5.3224   5.3285   5.3554
  5.3875   5.3973   5.4054   5.4555   5.4885   5.4973   5.5111   5.5249
  5.5497   5.5750   5.5888   5.6038   5.6226   5.6255   5.6476   5.6574
  5.6697   5.6943   5.7103   5.7268   5.7539   5.7748   5.8170   5.8393
  5.8715   5.9971   6.0313   6.0495   6.1128   6.1538   6.3780   6.4781
  6.4853   6.5450   6.5912   6.6218   6.7492   6.7858   6.8472   6.8879
  6.9666   6.9925   7.0610   7.0754   7.1058   7.1079   7.1235   7.1832
  7.2292   7.2558   7.2659   7.3059   7.3153   7.3162   7.3236   7.3537
  7.3858   7.3893   7.4201   7.4353   7.4717   7.5531   7.6309   7.6399
  7.6572   7.6939   7.7766   7.7960   7.7988   7.8516   7.8926   8.0491
  8.1279  24.5981  24.7639  24.7698  24.8316  25.0295  50.4394  50.5597
 50.5988  50.6208  50.6293  50.7624
 
 Beta MOs
 -- Occupied --
-19.4553 -19.3994 -19.3506 -19.3486 -19.3452 -19.3393 -10.4543 -10.4480
-10.4151 -10.3946 -10.3564  -1.3204  -1.2072  -1.1935  -1.1643  -1.1396
 -1.0055  -0.8987  -0.8524  -0.8183  -0.7465  -0.6819  -0.6757  -0.6492
 -0.6208  -0.6188  -0.6029  -0.5835  -0.5793  -0.5614  -0.5478  -0.5414
 -0.5227  -0.5057  -0.4912  -0.4747  -0.4496  -0.4416  -0.4326  -0.4256
 -0.4114  -0.3868  -0.3617
 -- Virtual --
 -0.0314   0.0259   0.0349   0.0377   0.0458   0.0580   0.0593   0.0619
  0.0683   0.0819   0.0917   0.0985   0.1044   0.1056   0.1235   0.1314
  0.1417   0.1447   0.1503   0.1553   0.1613   0.1629   0.1656   0.1690
  0.1764   0.1824   0.1939   0.2001   0.2020   0.2096   0.2173   0.2389
  0.2450   0.2493   0.2542   0.2621   0.2718   0.2739   0.2770   0.2804
  0.2853   0.3001   0.3065   0.3090   0.3126   0.3226   0.3268   0.3293
  0.3351   0.3461   0.3495   0.3546   0.3597   0.3625   0.3665   0.3710
  0.3788   0.3810   0.3856   0.3925   0.3989   0.4026   0.4060   0.4162
  0.4191   0.4302   0.4395   0.4490   0.4557   0.4705   0.4762   0.4949
  0.5188   0.5420   0.5472   0.5777   0.5821   0.5919   0.6063   0.6074
  0.6186   0.6321   0.6441   0.6556   0.6658   0.6700   0.6755   0.6886
  0.6958   0.7065   0.7106   0.7160   0.7264   0.7335   0.7512   0.7596
  0.7731   0.7833   0.7936   0.8323   0.8406   0.8569   0.8675   0.8809
  0.9005   0.9350   0.9387   0.9529   0.9720   1.0071   1.0205   1.0233
  1.0455   1.0509   1.0528   1.0568   1.0763   1.0921   1.1087   1.1126
  1.1385   1.1565   1.1574   1.1660   1.1750   1.1890   1.1958   1.2035
  1.2086   1.2137   1.2175   1.2309   1.2421   1.2484   1.2689   1.2732
  1.2748   1.2945   1.2989   1.3096   1.3180   1.3299   1.3427   1.3548
  1.3635   1.3718   1.3789   1.4039   1.4083   1.4125   1.4234   1.4253
  1.4533   1.4746   1.4956   1.4996   1.5082   1.5130   1.5268   1.5414
  1.5649   1.5694   1.5764   1.5928   1.6075   1.6199   1.6228   1.6361
  1.6569   1.6610   1.6918   1.7056   1.7075   1.7212   1.7425   1.7589
  1.7703   1.8170   1.8397   1.8720   1.8952   1.9052   1.9389   1.9396
  1.9674   1.9878   2.0156   2.0301   2.0742   2.0911   2.1237   2.1769
  2.2074   2.2268   2.2354   2.2740   2.3064   2.3325   2.3592   2.3744
  2.3846   2.4042   2.4134   2.4335   2.4606   2.4794   2.5254   2.6004
  2.6063   2.6591   2.6698   2.7486   2.7648   2.7759   2.8228   2.8315
  2.8676   2.8846   2.8957   2.9047   2.9245   2.9388   2.9622   2.9857
  3.0220   3.0379   3.0550   3.0871   3.1060   3.1190   3.1540   3.1602
  3.1809   3.2197   3.2382   3.2427   3.2668   3.2840   3.3080   3.3313
  3.3537   3.3812   3.4028   3.4148   3.4259   3.4505   3.4719   3.4987
  3.5093   3.5393   3.5624   3.5778   3.5912   3.6047   3.6275   3.6392
  3.6499   3.6644   3.6814   3.7059   3.7212   3.7443   3.7560   3.7742
  3.7953   3.8064   3.8113   3.8447   3.8520   3.8718   3.8922   3.9004
  3.9250   3.9410   3.9610   3.9731   3.9936   4.0188   4.0466   4.0616
  4.0961   4.1108   4.1206   4.1380   4.1557   4.1812   4.2303   4.2424
  4.2560   4.2707   4.2918   4.3088   4.3300   4.3602   4.3631   4.3849
  4.3874   4.4008   4.4264   4.4641   4.4888   4.5094   4.5359   4.5542
  4.5618   4.5965   4.6080   4.6407   4.6864   4.7122   4.7560   4.7734
  4.8084   4.9067   4.9228   4.9552   5.0280   5.0579   5.1390   5.1442
  5.1678   5.1809   5.1958   5.2004   5.2102   5.2223   5.2529   5.2600
  5.2780   5.2829   5.2960   5.3034   5.3100   5.3250   5.3277   5.3402
  5.3604   5.3914   5.4085   5.4195   5.4560   5.4946   5.5051   5.5130
  5.5309   5.5511   5.5768   5.6027   5.6046   5.6245   5.6267   5.6507
  5.6585   5.6719   5.6998   5.7119   5.7285   5.7622   5.7798   5.8202
  5.8430   5.8818   5.9972   6.0328   6.0495   6.1149   6.1549   6.3781
  6.4941   6.5211   6.5567   6.5920   6.6329   6.7520   6.7863   6.9283
  6.9656   6.9948   7.0213   7.0675   7.0777   7.1064   7.1123   7.1537
  7.1914   7.2529   7.2630   7.2722   7.3154   7.3157   7.3231   7.3260
  7.3675   7.3919   7.3970   7.4354   7.4392   7.5052   7.5647   7.6316
  7.6401   7.6581   7.6945   7.7766   7.7970   7.8054   7.8566   7.8931
  8.0630   8.1472  24.5980  24.7639  24.7698  24.8317  25.0295  50.4524
 50.5675  50.5990  50.6221  50.6296  50.7624
 --------------------------------------------------------------
 
          Ground-State Mulliken Net Atomic Charges

     Atom                 Charge (a.u.)    Spin (a.u.)
  --------------------------------------------------------
      1 C                    -0.232758       0.002278
      2 O                    -0.429360       0.000175
      3 C                     0.380200      -0.005767
      4 O                    -0.458525      -0.000205
      5 C                    -0.444629       0.007019
      6 C                    -0.088283       0.004473
      7 O                     0.113813       0.310861
      8 O                    -0.229502       0.669025
      9 C                    -0.324924       0.010440
     10 O                    -0.407525       0.001575
     11 O                    -0.462398      -0.000684
     12 H                     0.212828       0.000167
     13 H                     0.202832      -0.000100
     14 H                     0.340115       0.000026
     15 H                     0.236465       0.000648
     16 H                     0.264530      -0.000351
     17 H                     0.332290       0.000531
     18 H                     0.302676      -0.000623
     19 H                     0.337452       0.000529
     20 H                     0.354701      -0.000017
  --------------------------------------------------------
  Sum of atomic charges =    -0.000000
  Sum of spin   charges =     1.000000

 -----------------------------------------------------------------
                    Cartesian Multipole Moments
 -----------------------------------------------------------------
    Charge (ESU x 10^10)
                -0.0000
    Dipole Moment (Debye)
         X      -3.5313      Y      -3.3338      Z      -3.7277
       Tot       6.1221
    Quadrupole Moments (Debye-Ang)
        XX     -95.8721     XY      -4.9305     YY     -61.0393
        XZ     -25.5167     YZ       5.0713     ZZ     -62.9174
    Octopole Moments (Debye-Ang^2)
       XXX    -973.6009    XXY      72.6804    XYY    -265.6136
       YYY     107.0986    XXZ     -79.5576    XYZ      31.7055
       YYZ      25.6278    XZZ    -234.9059    YZZ      18.1459
       ZZZ     119.6958
    Hexadecapole Moments (Debye-Ang^3)
      XXXX   -9018.6167   XXXY    1177.8885   XXYY   -1518.9319
      XYYY     681.0698   YYYY    -514.6283   XXXZ      -9.3015
      XXYZ      74.2722   XYYZ     128.8912   YYYZ    -161.5886
      XXZZ   -1308.2897   XYZZ     102.3896   YYZZ    -156.4612
      XZZZ     488.4673   YZZZ     -89.8989   ZZZZ    -670.6333
 -----------------------------------------------------------------
 Calculating analytic gradient of the SCF energy
 Gradient of CDS energy
            1           2           3           4           5           6
    1  -0.0013747   0.0006271   0.0011155  -0.0007167   0.0000757  -0.0000280
    2  -0.0001867   0.0005199   0.0013599  -0.0008829  -0.0001141  -0.0000857
    3  -0.0003101   0.0003424   0.0010248  -0.0007080  -0.0001110   0.0000156
            7           8           9          10          11          12
    1   0.0000678  -0.0000113   0.0024349   0.0004051  -0.0029318   0.0001358
    2   0.0000451  -0.0000821   0.0002727  -0.0007528   0.0003514  -0.0000679
    3  -0.0000189   0.0000572  -0.0016363   0.0023604  -0.0004639   0.0001450
           13          14          15          16          17          18
    1   0.0000845  -0.0003316  -0.0000248   0.0000428   0.0000719  -0.0000913
    2   0.0000825  -0.0004159   0.0000071  -0.0001024   0.0000740  -0.0001085
    3  -0.0001552  -0.0000299  -0.0001541   0.0000620   0.0000240   0.0001623
           19          20
    1  -0.0000232   0.0004723
    2  -0.0000682   0.0001548
    3  -0.0005114  -0.0000950
 Gradient of SCF Energy
            1           2           3           4           5           6
    1   0.0065230  -0.0042917  -0.0009711   0.0039231   0.0075176  -0.0034323
    2  -0.0100426   0.0189425  -0.0081623   0.0052847   0.0277197  -0.0148654
    3  -0.0079987  -0.0131517  -0.0056293   0.0056820   0.0064992   0.0045538
            7           8           9          10          11          12
    1   0.0022740  -0.0024148   0.0059320  -0.0023783   0.0002779  -0.0041006
    2   0.0010033  -0.0003310   0.0155797   0.0134658  -0.0109958  -0.0012612
    3   0.0003639   0.0002201  -0.0000052   0.0090417   0.0038413   0.0087327
           13          14          15          16          17          18
    1  -0.0021530   0.0036818  -0.0035119  -0.0062107   0.0024472  -0.0071505
    2   0.0066038  -0.0169262  -0.0008731  -0.0144849   0.0032180  -0.0106367
    3  -0.0015322   0.0114331  -0.0077542   0.0031716  -0.0040614  -0.0008984
           19          20
    1   0.0016557   0.0023828
    2  -0.0127895   0.0095514
    3  -0.0104351  -0.0020731
 Max gradient component =       2.772E-02
 RMS gradient           =       8.396E-03
 Computing fast CPCM-SWIG gradient
 Updating gradient with PCM contributions...
 -- total gradient after adding PCM contribution --
---------------------------------------------------
  Atom         X              Y              Z     
---------------------------------------------------
   1       0.000026      -0.000010      -0.000001
   2      -0.000033       0.000012       0.000027
   3      -0.000013       0.000032       0.000007
   4      -0.000004      -0.000024      -0.000006
   5       0.000000       0.000000      -0.000010
   6       0.000022       0.000015      -0.000064
   7      -0.000053      -0.000062       0.000013
   8       0.000041       0.000031       0.000003
   9      -0.000042       0.000011       0.000022
  10       0.000039      -0.000025      -0.000022
  11       0.000009       0.000024      -0.000025
  12      -0.000009       0.000009      -0.000005
  13       0.000008      -0.000013      -0.000003
  14       0.000021       0.000006      -0.000018
  15       0.000009      -0.000003       0.000021
  16       0.000003       0.000003       0.000004
  17      -0.000001      -0.000004       0.000014
  18       0.000010       0.000005       0.000011
  19      -0.000026       0.000011       0.000008
  20      -0.000008      -0.000018       0.000023
---------------------------------------------------
 Number of fixed atoms: 0
 Gradient time:  CPU 327.83 s  wall 27.88 s
 ######################################################
 ######################################################
 # Starting finite difference calculation for IDERIV  #
 Finite diff step size:  1.88973e-03 a.u.
 ----------------------------------------------------------------
             Standard Nuclear Orientation (Angstroms)
    I     Atom           X                Y                Z
 ----------------------------------------------------------------
    1      C       1.0670571488     0.3237733651    -0.2325855600
    2      O       0.4542957641    -0.6813138616    -1.0173527261
    3      C       2.5781629610     0.2872608125    -0.2171538741
    4      O       3.1870226054     1.1259783861     0.4206522509
    5      C       3.2687435449    -0.7840759424    -1.0114261882
    6      C       4.7689790185    -0.7600980837    -0.8625642275
    7      O       5.0515239238    -1.2052739763     0.4953712963
    8      O       6.0874048818    -0.6108432645     1.0149347645
    9      C       5.4697369349    -1.7163757806    -1.8248153092
   10      O       5.2558747581    -1.1829348814    -3.1084419619
   11      O       6.8375815243    -1.8501716714    -1.5327799864
   12      H       0.7257445879     0.2952847279     0.8048789827
   13      H       0.7766419401     1.2890307803    -0.6485619100
   14      H       0.4890151494    -1.5141220954    -0.5352659243
   15      H       2.9955334463    -0.6532232205    -2.0597162782
   16      H       2.8690032901    -1.7587673354    -0.7201859531
   17      H       5.1881490347     0.2399585763    -0.9642126926
   18      H       5.0514859113    -2.7197167659    -1.7416041604
   19      H       5.4622929584    -1.8656357292    -3.7570392154
   20      H       7.2409706161    -0.9720060399    -1.5237881869
 ----------------------------------------------------------------
 Nuclear Repulsion Energy =         666.34883585 hartrees
 There are       44 alpha and       43 beta electrons
 Discretize the solute cavity surface with Lebedev spheres
	Using 110 Lebedev grid points for each H atom
	Using 194 Lebedev grid points for other atoms
	Atomic van der Waals radii will be scaled by 1.20
 Remove points where switching function is < 1.0e-08
 Keep 1608 surface tesserae and discard 1516 interior tesserae
 Molecular Surface Area = 179.628 Angst**2
 Requested basis set is 6-311++G(2df,2p)
 There are 142 shells and 464 basis functions
 A cutoff of  1.0D-12 yielded   8557 shell pairs
 There are     89865 function pairs (    111275 Cartesian)
 Smallest overlap matrix eigenvalue = 4.24E-06
 Guess MOs from SCF MO coefficient file

 -----------------------------------------------------------------------
  General SCF calculation program by
  Eric Jon Sundstrom, Paul Horn, Yuezhi Mao, Dmitri Zuev, Alec White,
  David Stuck, Shaama M.S., Shane Yost, Joonho Lee, David Small,
  Daniel Levine, Susi Lehtola, Hugh Burton, Evgeny Epifanovsky,
  Bang C. Huynh
 -----------------------------------------------------------------------
 Exchange:     0.1500 Hartree-Fock + 1.0000 wB97M-V + LR-HF
 Correlation:  1.0000 wB97M-V
 Using SG-2 standard quadrature grid
 Nonlocal Correlation:  VV10 with C = 0.0100 and b = 6.00 and scale = 1.00000
 Grid used for NLC:  SG-1 standard quadrature
 
 Citation of the SMD model:
 Marenich, A.V.; Cramer, C.J.; Truhlar, D.G.
 J. Phys. Chem. B 2009, 113, 6378-6396.
 iSolventCode=           1
 Solvent: water                                                           
 
 vradii
            1           2           3           4           5           6
    1   1.8500000   1.5200000   1.8500000   1.5200000   1.8500000   1.8500000
            7           8           9          10          11          12
    1   1.5200000   1.5200000   1.8500000   1.5200000   1.5200000   1.2000000
           13          14          15          16          17          18
    1   1.2000000   1.2000000   1.2000000   1.2000000   1.2000000   1.2000000
           19          20
    1   1.2000000   1.2000000
 -------------------------------------------------------
 OpenMP BLAS3 based DFT computing Module                
 Release: version 1.0, May 2013, Q-Chem Inc. Pittsburgh 
 -------------------------------------------------------
 A unrestricted SCF calculation will be
 performed using Roothaan-Hall, DIIS, GDM
 SCF converges when RMS gradient is below 1.0e-07
 ---------------------------------------
  Cycle       Energy         DIIS error
 ---------------------------------------
    1    -647.1497098368      2.23e-04  Roothaan Step
 ---------------------------------------
  Cycle       Energy         DIIS error
 ---------------------------------------
    1    -647.1929148001      2.80e-04  
    2    -647.1972814274      3.16e-04  Done DIIS. Switching to GDM
 ---------------------------------------
  Cycle       Energy        RMS Gradient
 ---------------------------------------
    1    -647.1972814274      1.95e-02   Normal BFGS step
    2    -647.1931344442      3.30e-02  Line search: overstep
    3    -647.2042335022      3.69e-03   Normal BFGS step
    4    -647.2044745985      8.17e-04   Normal BFGS step
    5    -647.2045243259      2.02e-03   Normal BFGS step
    6    -647.2045387414      2.88e-04   Normal BFGS step
    7    -647.2045403945      5.84e-04   Normal BFGS step
    8    -647.2045414484      2.69e-04   Normal BFGS step
    9    -647.2045416892      1.04e-04   Normal BFGS step
   10    -647.2045417709      3.87e-05   Normal BFGS step
   11    -647.2045417817      3.38e-05   Normal BFGS step
   12    -647.2045417845      3.00e-05   Normal BFGS step
   13    -647.2045417864      2.44e-05   Normal BFGS step
   14    -647.2045417887      1.13e-05   Normal BFGS step
   15    -647.2045417896      2.67e-06   Normal BFGS step
   16    -647.2045417899      8.25e-07   Normal BFGS step
   17    -647.2045417899      2.29e-07   Normal BFGS step
   18    -647.2045417899      1.18e-07   Normal BFGS step
   19    -647.2045417899      5.88e-08  Convergence criterion met
 ---------------------------------------
 SCF time:   CPU 2366.38s  wall 163.00s 
<S^2> =          0.753904679
(3)  G-ENP(liq) elect-nuc-pol free energy of system     -647.204541790 a.u.
(4)  G-CDS(liq) cavity-dispersion-solvent structure 
     free energy                                                4.0892 kcal/mol
(6)  G-S(liq) free energy of system                     -647.198025213 a.u.
 SCF   energy in the final basis set =     -647.1980252127
 Total energy in the final basis set =     -647.1980252127
 
 --------------------------------------------------------------
 
                    Orbital Energies (a.u.)
 --------------------------------------------------------------
 
 Alpha MOs
 -- Occupied --
-19.4657 -19.4181 -19.3507 -19.3487 -19.3452 -19.3393 -10.4546 -10.4480
-10.4148 -10.3946 -10.3565  -1.3465  -1.2076  -1.1935  -1.1642  -1.1398
 -1.0312  -0.9090  -0.8565  -0.8195  -0.7503  -0.6880  -0.6767  -0.6579
 -0.6422  -0.6269  -0.6052  -0.5935  -0.5847  -0.5727  -0.5582  -0.5420
 -0.5343  -0.5223  -0.4928  -0.4758  -0.4513  -0.4470  -0.4416  -0.4256
 -0.4145  -0.4058  -0.3888  -0.3619
 -- Virtual --
  0.0258   0.0347   0.0376   0.0455   0.0580   0.0592   0.0612   0.0683
  0.0814   0.0917   0.0978   0.1040   0.1053   0.1230   0.1300   0.1416
  0.1445   0.1485   0.1547   0.1590   0.1628   0.1650   0.1687   0.1762
  0.1821   0.1935   0.1992   0.2013   0.2075   0.2169   0.2369   0.2439
  0.2474   0.2535   0.2615   0.2632   0.2732   0.2757   0.2791   0.2848
  0.2996   0.3056   0.3084   0.3111   0.3218   0.3250   0.3285   0.3343
  0.3455   0.3484   0.3538   0.3593   0.3621   0.3659   0.3703   0.3774
  0.3803   0.3847   0.3919   0.3978   0.4023   0.4044   0.4159   0.4178
  0.4288   0.4385   0.4480   0.4546   0.4693   0.4758   0.4938   0.5181
  0.5417   0.5471   0.5769   0.5818   0.5917   0.6059   0.6068   0.6184
  0.6317   0.6437   0.6553   0.6654   0.6698   0.6749   0.6885   0.6952
  0.7059   0.7103   0.7158   0.7263   0.7333   0.7512   0.7591   0.7721
  0.7828   0.7928   0.8317   0.8394   0.8568   0.8672   0.8805   0.8996
  0.9346   0.9383   0.9517   0.9712   1.0061   1.0191   1.0221   1.0418
  1.0505   1.0520   1.0563   1.0752   1.0908   1.1079   1.1093   1.1347
  1.1536   1.1557   1.1642   1.1712   1.1771   1.1946   1.1983   1.2067
  1.2126   1.2147   1.2231   1.2388   1.2456   1.2635   1.2679   1.2731
  1.2904   1.2977   1.3080   1.3149   1.3289   1.3410   1.3527   1.3624
  1.3678   1.3782   1.4022   1.4073   1.4116   1.4223   1.4246   1.4477
  1.4735   1.4933   1.4988   1.5051   1.5115   1.5260   1.5397   1.5622
  1.5673   1.5730   1.5903   1.6061   1.6160   1.6186   1.6333   1.6498
  1.6554   1.6854   1.6925   1.7040   1.7081   1.7355   1.7567   1.7689
  1.8141   1.8383   1.8682   1.8932   1.9042   1.9344   1.9367   1.9647
  1.9857   2.0127   2.0263   2.0676   2.0874   2.1230   2.1750   2.2047
  2.2251   2.2319   2.2649   2.3027   2.3246   2.3555   2.3643   2.3833
  2.4010   2.4107   2.4307   2.4588   2.4793   2.5247   2.6001   2.6061
  2.6558   2.6652   2.7471   2.7640   2.7746   2.8226   2.8310   2.8669
  2.8843   2.8955   2.9045   2.9242   2.9387   2.9620   2.9853   3.0217
  3.0377   3.0537   3.0868   3.1052   3.1182   3.1535   3.1599   3.1803
  3.2196   3.2373   3.2424   3.2665   3.2838   3.3077   3.3311   3.3533
  3.3810   3.4026   3.4147   3.4256   3.4501   3.4716   3.4985   3.5088
  3.5390   3.5622   3.5770   3.5908   3.6047   3.6273   3.6388   3.6491
  3.6639   3.6811   3.7054   3.7212   3.7437   3.7557   3.7738   3.7950
  3.8058   3.8108   3.8443   3.8516   3.8717   3.8918   3.8999   3.9245
  3.9404   3.9606   3.9726   3.9931   4.0191   4.0463   4.0614   4.0960
  4.1106   4.1205   4.1378   4.1549   4.1809   4.2298   4.2421   4.2558
  4.2705   4.2911   4.3082   4.3297   4.3596   4.3629   4.3843   4.3870
  4.4000   4.4262   4.4628   4.4891   4.5090   4.5322   4.5503   4.5610
  4.5895   4.6065   4.6376   4.6709   4.7116   4.7473   4.7605   4.8032
  4.8954   4.9078   4.9485   5.0227   5.0449   5.0903   5.0961   5.1068
  5.1625   5.1731   5.1911   5.1994   5.2196   5.2438   5.2552   5.2635
  5.2737   5.2805   5.2933   5.3075   5.3193   5.3224   5.3285   5.3554
  5.3875   5.3973   5.4054   5.4556   5.4885   5.4973   5.5111   5.5248
  5.5495   5.5749   5.5888   5.6039   5.6224   5.6254   5.6478   5.6575
  5.6697   5.6944   5.7105   5.7263   5.7539   5.7747   5.8170   5.8393
  5.8715   5.9970   6.0313   6.0489   6.1128   6.1538   6.3781   6.4781
  6.4853   6.5450   6.5904   6.6218   6.7492   6.7862   6.8472   6.8879
  6.9666   6.9926   7.0611   7.0754   7.1058   7.1079   7.1235   7.1832
  7.2292   7.2558   7.2659   7.3059   7.3152   7.3162   7.3235   7.3537
  7.3858   7.3893   7.4201   7.4352   7.4717   7.5531   7.6310   7.6397
  7.6571   7.6939   7.7765   7.7960   7.7988   7.8516   7.8926   8.0491
  8.1279  24.5979  24.7635  24.7698  24.8316  25.0303  50.4394  50.5597
 50.5986  50.6208  50.6293  50.7625
 
 Beta MOs
 -- Occupied --
-19.4553 -19.3994 -19.3506 -19.3486 -19.3452 -19.3393 -10.4543 -10.4480
-10.4151 -10.3946 -10.3564  -1.3204  -1.2072  -1.1935  -1.1642  -1.1396
 -1.0055  -0.8988  -0.8525  -0.8183  -0.7465  -0.6819  -0.6757  -0.6492
 -0.6208  -0.6187  -0.6029  -0.5835  -0.5793  -0.5614  -0.5478  -0.5414
 -0.5227  -0.5057  -0.4912  -0.4747  -0.4496  -0.4416  -0.4326  -0.4255
 -0.4114  -0.3868  -0.3619
 -- Virtual --
 -0.0314   0.0259   0.0349   0.0376   0.0458   0.0580   0.0593   0.0619
  0.0684   0.0819   0.0917   0.0985   0.1044   0.1056   0.1235   0.1314
  0.1417   0.1447   0.1503   0.1553   0.1613   0.1629   0.1656   0.1690
  0.1764   0.1824   0.1939   0.2001   0.2020   0.2096   0.2173   0.2389
  0.2450   0.2493   0.2542   0.2620   0.2718   0.2739   0.2770   0.2804
  0.2853   0.3001   0.3065   0.3090   0.3126   0.3226   0.3268   0.3293
  0.3351   0.3461   0.3495   0.3546   0.3597   0.3625   0.3665   0.3710
  0.3788   0.3810   0.3856   0.3925   0.3989   0.4026   0.4060   0.4163
  0.4191   0.4302   0.4395   0.4490   0.4557   0.4706   0.4762   0.4949
  0.5188   0.5420   0.5472   0.5777   0.5821   0.5919   0.6062   0.6074
  0.6186   0.6321   0.6441   0.6556   0.6658   0.6700   0.6755   0.6886
  0.6959   0.7065   0.7106   0.7160   0.7264   0.7335   0.7512   0.7596
  0.7731   0.7833   0.7935   0.8323   0.8406   0.8569   0.8676   0.8809
  0.9005   0.9350   0.9387   0.9529   0.9720   1.0070   1.0205   1.0233
  1.0454   1.0509   1.0528   1.0568   1.0763   1.0921   1.1086   1.1126
  1.1385   1.1565   1.1574   1.1660   1.1750   1.1890   1.1958   1.2035
  1.2086   1.2137   1.2175   1.2309   1.2421   1.2485   1.2690   1.2732
  1.2748   1.2945   1.2989   1.3095   1.3180   1.3299   1.3427   1.3548
  1.3634   1.3718   1.3789   1.4038   1.4084   1.4125   1.4235   1.4254
  1.4533   1.4746   1.4956   1.4996   1.5082   1.5129   1.5269   1.5413
  1.5649   1.5694   1.5765   1.5928   1.6075   1.6197   1.6228   1.6361
  1.6569   1.6610   1.6918   1.7057   1.7075   1.7212   1.7425   1.7590
  1.7704   1.8170   1.8397   1.8720   1.8952   1.9054   1.9389   1.9396
  1.9674   1.9878   2.0155   2.0301   2.0742   2.0911   2.1237   2.1768
  2.2074   2.2269   2.2355   2.2741   2.3065   2.3323   2.3591   2.3744
  2.3847   2.4042   2.4134   2.4336   2.4607   2.4796   2.5254   2.6004
  2.6065   2.6592   2.6699   2.7488   2.7647   2.7759   2.8228   2.8315
  2.8676   2.8847   2.8957   2.9047   2.9244   2.9388   2.9624   2.9856
  3.0220   3.0380   3.0550   3.0872   3.1060   3.1189   3.1538   3.1601
  3.1809   3.2198   3.2381   3.2427   3.2667   3.2840   3.3081   3.3313
  3.3538   3.3812   3.4029   3.4148   3.4258   3.4505   3.4719   3.4987
  3.5093   3.5392   3.5624   3.5778   3.5912   3.6048   3.6275   3.6391
  3.6499   3.6644   3.6814   3.7060   3.7212   3.7443   3.7559   3.7740
  3.7953   3.8063   3.8113   3.8447   3.8519   3.8718   3.8921   3.9004
  3.9249   3.9410   3.9610   3.9731   3.9936   4.0191   4.0466   4.0616
  4.0962   4.1109   4.1207   4.1381   4.1558   4.1812   4.2303   4.2425
  4.2561   4.2708   4.2918   4.3088   4.3301   4.3602   4.3632   4.3846
  4.3874   4.4009   4.4265   4.4642   4.4893   4.5094   4.5360   4.5543
  4.5618   4.5965   4.6081   4.6408   4.6865   4.7125   4.7563   4.7734
  4.8085   4.9068   4.9228   4.9553   5.0280   5.0579   5.1390   5.1442
  5.1676   5.1809   5.1958   5.2005   5.2102   5.2222   5.2529   5.2600
  5.2780   5.2829   5.2960   5.3034   5.3101   5.3251   5.3277   5.3402
  5.3604   5.3915   5.4085   5.4195   5.4561   5.4946   5.5050   5.5131
  5.5308   5.5509   5.5767   5.6028   5.6046   5.6243   5.6266   5.6509
  5.6586   5.6719   5.6999   5.7120   5.7280   5.7622   5.7796   5.8202
  5.8430   5.8818   5.9971   6.0328   6.0489   6.1149   6.1549   6.3782
  6.4941   6.5211   6.5567   6.5911   6.6329   6.7520   6.7867   6.9284
  6.9657   6.9949   7.0213   7.0676   7.0777   7.1064   7.1123   7.1537
  7.1914   7.2529   7.2630   7.2722   7.3153   7.3157   7.3230   7.3259
  7.3676   7.3919   7.3970   7.4354   7.4392   7.5052   7.5648   7.6317
  7.6399   7.6581   7.6945   7.7766   7.7970   7.8054   7.8566   7.8931
  8.0630   8.1472  24.5979  24.7635  24.7698  24.8318  25.0303  50.4524
 50.5675  50.5989  50.6221  50.6296  50.7625
 --------------------------------------------------------------
 
          Ground-State Mulliken Net Atomic Charges

     Atom                 Charge (a.u.)    Spin (a.u.)
  --------------------------------------------------------
      1 C                    -0.232657       0.002282
      2 O                    -0.429645       0.000175
      3 C                     0.380224      -0.005772
      4 O                    -0.458565      -0.000205
      5 C                    -0.444581       0.007019
      6 C                    -0.088233       0.004475
      7 O                     0.113823       0.310860
      8 O                    -0.229504       0.669026
      9 C                    -0.324938       0.010439
     10 O                    -0.407522       0.001575
     11 O                    -0.462397      -0.000684
     12 H                     0.212858       0.000167
     13 H                     0.202893      -0.000100
     14 H                     0.340102       0.000026
     15 H                     0.236469       0.000648
     16 H                     0.264548      -0.000351
     17 H                     0.332293       0.000530
     18 H                     0.302679      -0.000623
     19 H                     0.337453       0.000529
     20 H                     0.354702      -0.000018
  --------------------------------------------------------
  Sum of atomic charges =    -0.000000
  Sum of spin   charges =     1.000000

 -----------------------------------------------------------------
                    Cartesian Multipole Moments
 -----------------------------------------------------------------
    Charge (ESU x 10^10)
                -0.0000
    Dipole Moment (Debye)
         X      -3.5307      Y      -3.3325      Z      -3.7270
       Tot       6.1206
    Quadrupole Moments (Debye-Ang)
        XX     -95.8704     XY      -4.9306     YY     -61.0397
        XZ     -25.5172     YZ       5.0705     ZZ     -62.9182
    Octopole Moments (Debye-Ang^2)
       XXX    -973.6091    XXY      72.6777    XYY    -265.6194
       YYY     107.1016    XXZ     -79.5604    XYZ      31.7048
       YYZ      25.6284    XZZ    -234.9107    YZZ      18.1471
       ZZZ     119.6980
    Hexadecapole Moments (Debye-Ang^3)
      XXXX   -9018.6423   XXXY    1177.8705   XXYY   -1518.9402
      XYYY     681.0636   YYYY    -514.6316   XXXZ      -9.3094
      XXYZ      74.2730   XYYZ     128.8924   YYYZ    -161.5911
      XXZZ   -1308.2949   XYZZ     102.3879   YYZZ    -156.4631
      XZZZ     488.4692   YZZZ     -89.9007   ZZZZ    -670.6387
 -----------------------------------------------------------------
 Calculating analytic gradient of the SCF energy
 Gradient of CDS energy
            1           2           3           4           5           6
    1  -0.0013368   0.0005926   0.0011143  -0.0007167   0.0000757  -0.0000280
    2  -0.0001306   0.0004637   0.0013597  -0.0008829  -0.0001141  -0.0000857
    3  -0.0002654   0.0002976   0.0010247  -0.0007080  -0.0001110   0.0000156
            7           8           9          10          11          12
    1   0.0000678  -0.0000113   0.0024349   0.0004051  -0.0029318   0.0001351
    2   0.0000451  -0.0000821   0.0002727  -0.0007528   0.0003514  -0.0000681
    3  -0.0000189   0.0000572  -0.0016363   0.0023604  -0.0004639   0.0001457
           13          14          15          16          17          18
    1   0.0000833  -0.0003318  -0.0000248   0.0000428   0.0000719  -0.0000913
    2   0.0000828  -0.0004158   0.0000071  -0.0001024   0.0000740  -0.0001085
    3  -0.0001559  -0.0000296  -0.0001541   0.0000620   0.0000240   0.0001623
           19          20
    1  -0.0000232   0.0004723
    2  -0.0000682   0.0001548
    3  -0.0005114  -0.0000950
 Gradient of SCF Energy
            1           2           3           4           5           6
    1   0.0074758  -0.0045085  -0.0013338   0.0038788   0.0074938  -0.0034322
    2  -0.0100105   0.0187636  -0.0081059   0.0052535   0.0277227  -0.0148663
    3  -0.0079729  -0.0132799  -0.0055918   0.0056577   0.0065013   0.0045536
            7           8           9          10          11          12
    1   0.0022739  -0.0024148   0.0059330  -0.0023782   0.0002782  -0.0042639
    2   0.0010035  -0.0003309   0.0155796   0.0134655  -0.0109963  -0.0012750
    3   0.0003633   0.0002203  -0.0000052   0.0090415   0.0038410   0.0088854
           13          14          15          16          17          18
    1  -0.0022950   0.0036784  -0.0035109  -0.0062102   0.0024474  -0.0071506
    2   0.0067247  -0.0169154  -0.0008727  -0.0144842   0.0032187  -0.0106367
    3  -0.0015940   0.0114307  -0.0077549   0.0031720  -0.0040618  -0.0008983
           19          20
    1   0.0016558   0.0023829
    2  -0.0127894   0.0095518
    3  -0.0104350  -0.0020730
 Max gradient component =       2.772E-02
 RMS gradient           =       8.411E-03
 Computing fast CPCM-SWIG gradient
 Updating gradient with PCM contributions...
 -- total gradient after adding PCM contribution --
---------------------------------------------------
  Atom         X              Y              Z     
---------------------------------------------------
   1       0.000937       0.000026       0.000024
   2      -0.000238      -0.000156      -0.000100
   3      -0.000373       0.000088       0.000045
   4      -0.000048      -0.000059      -0.000034
   5      -0.000020       0.000005      -0.000009
   6       0.000022       0.000014      -0.000064
   7      -0.000053      -0.000061       0.000013
   8       0.000041       0.000031       0.000003
   9      -0.000042       0.000011       0.000022
  10       0.000039      -0.000025      -0.000023
  11       0.000010       0.000023      -0.000025
  12      -0.000156      -0.000006       0.000150
  13      -0.000122       0.000107      -0.000066
  14       0.000016       0.000008      -0.000020
  15       0.000009      -0.000003       0.000020
  16       0.000002       0.000003       0.000004
  17      -0.000001      -0.000004       0.000014
  18       0.000010       0.000005       0.000011
  19      -0.000026       0.000011       0.000008
  20      -0.000008      -0.000018       0.000023
---------------------------------------------------
 Number of fixed atoms: 0
 Gradient time:  CPU 337.04 s  wall 27.75 s
 ----------------------------------------------------------------
             Standard Nuclear Orientation (Angstroms)
    I     Atom           X                Y                Z
 ----------------------------------------------------------------
    1      C       1.0650571488     0.3237733651    -0.2325855600
    2      O       0.4542957641    -0.6813138616    -1.0173527261
    3      C       2.5781629610     0.2872608125    -0.2171538741
    4      O       3.1870226054     1.1259783861     0.4206522509
    5      C       3.2687435449    -0.7840759424    -1.0114261882
    6      C       4.7689790185    -0.7600980837    -0.8625642275
    7      O       5.0515239238    -1.2052739763     0.4953712963
    8      O       6.0874048818    -0.6108432645     1.0149347645
    9      C       5.4697369349    -1.7163757806    -1.8248153092
   10      O       5.2558747581    -1.1829348814    -3.1084419619
   11      O       6.8375815243    -1.8501716714    -1.5327799864
   12      H       0.7257445879     0.2952847279     0.8048789827
   13      H       0.7766419401     1.2890307803    -0.6485619100
   14      H       0.4890151494    -1.5141220954    -0.5352659243
   15      H       2.9955334463    -0.6532232205    -2.0597162782
   16      H       2.8690032901    -1.7587673354    -0.7201859531
   17      H       5.1881490347     0.2399585763    -0.9642126926
   18      H       5.0514859113    -2.7197167659    -1.7416041604
   19      H       5.4622929584    -1.8656357292    -3.7570392154
   20      H       7.2409706161    -0.9720060399    -1.5237881869
 ----------------------------------------------------------------
 Nuclear Repulsion Energy =         666.32135399 hartrees
 There are       44 alpha and       43 beta electrons
 Discretize the solute cavity surface with Lebedev spheres
	Using 110 Lebedev grid points for each H atom
	Using 194 Lebedev grid points for other atoms
	Atomic van der Waals radii will be scaled by 1.20
 Remove points where switching function is < 1.0e-08
 Keep 1609 surface tesserae and discard 1515 interior tesserae
 Molecular Surface Area = 179.634 Angst**2
 Requested basis set is 6-311++G(2df,2p)
 There are 142 shells and 464 basis functions
 A cutoff of  1.0D-12 yielded   8557 shell pairs
 There are     89865 function pairs (    111275 Cartesian)
 Smallest overlap matrix eigenvalue = 4.24E-06
 Guess MOs from SCF MO coefficient file

 -----------------------------------------------------------------------
  General SCF calculation program by
  Eric Jon Sundstrom, Paul Horn, Yuezhi Mao, Dmitri Zuev, Alec White,
  David Stuck, Shaama M.S., Shane Yost, Joonho Lee, David Small,
  Daniel Levine, Susi Lehtola, Hugh Burton, Evgeny Epifanovsky,
  Bang C. Huynh
 -----------------------------------------------------------------------
 Exchange:     0.1500 Hartree-Fock + 1.0000 wB97M-V + LR-HF
 Correlation:  1.0000 wB97M-V
 Using SG-2 standard quadrature grid
 Nonlocal Correlation:  VV10 with C = 0.0100 and b = 6.00 and scale = 1.00000
 Grid used for NLC:  SG-1 standard quadrature
 
 Citation of the SMD model:
 Marenich, A.V.; Cramer, C.J.; Truhlar, D.G.
 J. Phys. Chem. B 2009, 113, 6378-6396.
 iSolventCode=           1
 Solvent: water                                                           
 
 vradii
            1           2           3           4           5           6
    1   1.8500000   1.5200000   1.8500000   1.5200000   1.8500000   1.8500000
            7           8           9          10          11          12
    1   1.5200000   1.5200000   1.8500000   1.5200000   1.5200000   1.2000000
           13          14          15          16          17          18
    1   1.2000000   1.2000000   1.2000000   1.2000000   1.2000000   1.2000000
           19          20
    1   1.2000000   1.2000000
 -------------------------------------------------------
 OpenMP BLAS3 based DFT computing Module                
 Release: version 1.0, May 2013, Q-Chem Inc. Pittsburgh 
 -------------------------------------------------------
 A unrestricted SCF calculation will be
 performed using Roothaan-Hall, DIIS, GDM
 SCF converges when RMS gradient is below 1.0e-07
 ---------------------------------------
  Cycle       Energy         DIIS error
 ---------------------------------------
    1    -647.1497242864      2.23e-04  Roothaan Step
 ---------------------------------------
  Cycle       Energy         DIIS error
 ---------------------------------------
    1    -647.1929466938      2.80e-04  
    2    -647.1973259096      3.15e-04  Done DIIS. Switching to GDM
 ---------------------------------------
  Cycle       Energy        RMS Gradient
 ---------------------------------------
    1    -647.1973259096      1.95e-02   Normal BFGS step
    2    -647.1932066978      3.30e-02  Line search: overstep
    3    -647.2042391206      3.70e-03   Normal BFGS step
    4    -647.2044799920      8.17e-04   Normal BFGS step
    5    -647.2045296381      2.01e-03   Normal BFGS step
    6    -647.2045440432      2.88e-04   Normal BFGS step
    7    -647.2045456925      5.84e-04   Normal BFGS step
    8    -647.2045467462      2.69e-04   Normal BFGS step
    9    -647.2045469869      1.04e-04   Normal BFGS step
   10    -647.2045470685      3.86e-05   Normal BFGS step
   11    -647.2045470792      3.38e-05   Normal BFGS step
   12    -647.2045470820      3.00e-05   Normal BFGS step
   13    -647.2045470840      2.44e-05   Normal BFGS step
   14    -647.2045470862      1.13e-05   Normal BFGS step
   15    -647.2045470871      2.66e-06   Normal BFGS step
   16    -647.2045470874      8.24e-07   Normal BFGS step
   17    -647.2045470875      2.30e-07   Normal BFGS step
   18    -647.2045470875      1.18e-07   Normal BFGS step
   19    -647.2045470875      5.84e-08  Convergence criterion met
 ---------------------------------------
 SCF time:   CPU 2379.30s  wall 163.00s 
<S^2> =          0.753904688
(3)  G-ENP(liq) elect-nuc-pol free energy of system     -647.204547087 a.u.
(4)  G-CDS(liq) cavity-dispersion-solvent structure 
     free energy                                                4.0925 kcal/mol
(6)  G-S(liq) free energy of system                     -647.198025313 a.u.
 SCF   energy in the final basis set =     -647.1980253134
 Total energy in the final basis set =     -647.1980253134
 
 --------------------------------------------------------------
 
                    Orbital Energies (a.u.)
 --------------------------------------------------------------
 
 Alpha MOs
 -- Occupied --
-19.4657 -19.4181 -19.3507 -19.3487 -19.3453 -19.3393 -10.4546 -10.4480
-10.4148 -10.3946 -10.3565  -1.3465  -1.2076  -1.1935  -1.1644  -1.1398
 -1.0312  -0.9089  -0.8563  -0.8195  -0.7503  -0.6880  -0.6766  -0.6579
 -0.6423  -0.6270  -0.6051  -0.5935  -0.5847  -0.5727  -0.5582  -0.5420
 -0.5343  -0.5224  -0.4928  -0.4758  -0.4514  -0.4470  -0.4416  -0.4258
 -0.4145  -0.4057  -0.3888  -0.3616
 -- Virtual --
  0.0258   0.0348   0.0376   0.0455   0.0580   0.0592   0.0612   0.0683
  0.0814   0.0917   0.0978   0.1040   0.1053   0.1230   0.1300   0.1416
  0.1445   0.1485   0.1547   0.1590   0.1628   0.1649   0.1687   0.1762
  0.1821   0.1935   0.1992   0.2012   0.2075   0.2169   0.2369   0.2439
  0.2474   0.2536   0.2615   0.2632   0.2732   0.2756   0.2791   0.2848
  0.2996   0.3056   0.3085   0.3111   0.3219   0.3250   0.3285   0.3343
  0.3455   0.3484   0.3537   0.3592   0.3620   0.3659   0.3703   0.3774
  0.3803   0.3847   0.3920   0.3978   0.4023   0.4044   0.4158   0.4178
  0.4288   0.4385   0.4479   0.4546   0.4693   0.4758   0.4938   0.5182
  0.5417   0.5471   0.5769   0.5819   0.5916   0.6060   0.6068   0.6184
  0.6317   0.6437   0.6553   0.6654   0.6698   0.6748   0.6884   0.6952
  0.7059   0.7102   0.7158   0.7263   0.7333   0.7512   0.7591   0.7721
  0.7829   0.7929   0.8317   0.8394   0.8569   0.8671   0.8804   0.8996
  0.9346   0.9384   0.9517   0.9712   1.0061   1.0191   1.0221   1.0419
  1.0505   1.0520   1.0563   1.0752   1.0907   1.1079   1.1093   1.1347
  1.1536   1.1557   1.1642   1.1712   1.1771   1.1946   1.1983   1.2067
  1.2125   1.2147   1.2231   1.2387   1.2454   1.2635   1.2678   1.2731
  1.2904   1.2977   1.3081   1.3148   1.3290   1.3410   1.3526   1.3625
  1.3679   1.3780   1.4023   1.4071   1.4115   1.4221   1.4246   1.4477
  1.4735   1.4933   1.4988   1.5051   1.5115   1.5257   1.5398   1.5622
  1.5673   1.5729   1.5903   1.6059   1.6160   1.6189   1.6333   1.6498
  1.6554   1.6853   1.6925   1.7039   1.7081   1.7355   1.7565   1.7685
  1.8141   1.8383   1.8682   1.8931   1.9037   1.9344   1.9367   1.9646
  1.9857   2.0128   2.0263   2.0676   2.0874   2.1231   2.1751   2.2047
  2.2250   2.2318   2.2648   2.3026   2.3247   2.3560   2.3643   2.3831
  2.4009   2.4107   2.4306   2.4586   2.4790   2.5247   2.6000   2.6057
  2.6558   2.6649   2.7468   2.7640   2.7746   2.8226   2.8309   2.8671
  2.8841   2.8957   2.9045   2.9242   2.9387   2.9616   2.9855   3.0217
  3.0375   3.0537   3.0866   3.1053   3.1184   3.1539   3.1601   3.1803
  3.2194   3.2375   3.2425   3.2666   3.2839   3.3076   3.3311   3.3533
  3.3812   3.4025   3.4148   3.4256   3.4502   3.4715   3.4984   3.5089
  3.5392   3.5622   3.5770   3.5908   3.6044   3.6274   3.6391   3.6492
  3.6639   3.6811   3.7053   3.7212   3.7438   3.7559   3.7742   3.7950
  3.8059   3.8107   3.8443   3.8516   3.8717   3.8920   3.8998   3.9248
  3.9404   3.9607   3.9725   3.9932   4.0185   4.0462   4.0614   4.0958
  4.1105   4.1202   4.1377   4.1547   4.1808   4.2297   4.2418   4.2556
  4.2703   4.2910   4.3081   4.3296   4.3595   4.3627   4.3848   4.3870
  4.3998   4.4259   4.4626   4.4883   4.5090   4.5321   4.5500   4.5610
  4.5895   4.6063   4.6375   4.6708   4.7109   4.7470   4.7603   4.8031
  4.8954   4.9077   4.9484   5.0228   5.0450   5.0903   5.0961   5.1068
  5.1627   5.1732   5.1910   5.1993   5.2197   5.2438   5.2552   5.2635
  5.2737   5.2805   5.2932   5.3074   5.3193   5.3224   5.3286   5.3554
  5.3875   5.3973   5.4054   5.4553   5.4885   5.4973   5.5110   5.5250
  5.5498   5.5752   5.5888   5.6038   5.6228   5.6256   5.6474   5.6573
  5.6696   5.6942   5.7102   5.7273   5.7540   5.7750   5.8171   5.8393
  5.8715   5.9972   6.0313   6.0501   6.1128   6.1538   6.3779   6.4781
  6.4853   6.5450   6.5920   6.6219   6.7492   6.7854   6.8472   6.8879
  6.9666   6.9925   7.0609   7.0754   7.1058   7.1079   7.1235   7.1831
  7.2292   7.2558   7.2659   7.3059   7.3154   7.3163   7.3238   7.3537
  7.3857   7.3893   7.4201   7.4353   7.4717   7.5531   7.6308   7.6402
  7.6572   7.6939   7.7767   7.7960   7.7988   7.8516   7.8926   8.0491
  8.1279  24.5982  24.7643  24.7698  24.8315  25.0287  50.4394  50.5597
 50.5989  50.6208  50.6293  50.7623
 
 Beta MOs
 -- Occupied --
-19.4553 -19.3994 -19.3506 -19.3486 -19.3453 -19.3393 -10.4543 -10.4480
-10.4151 -10.3946 -10.3564  -1.3204  -1.2072  -1.1934  -1.1644  -1.1396
 -1.0055  -0.8987  -0.8523  -0.8182  -0.7465  -0.6819  -0.6757  -0.6492
 -0.6208  -0.6188  -0.6029  -0.5835  -0.5793  -0.5614  -0.5478  -0.5414
 -0.5228  -0.5057  -0.4912  -0.4747  -0.4496  -0.4416  -0.4326  -0.4257
 -0.4114  -0.3867  -0.3616
 -- Virtual --
 -0.0314   0.0259   0.0350   0.0377   0.0458   0.0580   0.0593   0.0619
  0.0683   0.0819   0.0917   0.0985   0.1044   0.1056   0.1235   0.1314
  0.1417   0.1447   0.1503   0.1553   0.1613   0.1629   0.1656   0.1690
  0.1764   0.1824   0.1939   0.2001   0.2020   0.2096   0.2173   0.2389
  0.2450   0.2493   0.2542   0.2621   0.2718   0.2739   0.2770   0.2804
  0.2853   0.3001   0.3065   0.3090   0.3126   0.3227   0.3268   0.3293
  0.3351   0.3461   0.3495   0.3545   0.3596   0.3624   0.3665   0.3710
  0.3788   0.3810   0.3856   0.3925   0.3989   0.4026   0.4060   0.4162
  0.4191   0.4302   0.4395   0.4490   0.4557   0.4705   0.4763   0.4949
  0.5189   0.5420   0.5472   0.5777   0.5821   0.5918   0.6063   0.6074
  0.6186   0.6321   0.6441   0.6555   0.6658   0.6700   0.6755   0.6885
  0.6958   0.7065   0.7105   0.7160   0.7264   0.7336   0.7512   0.7596
  0.7731   0.7834   0.7936   0.8323   0.8405   0.8569   0.8675   0.8809
  0.9005   0.9350   0.9387   0.9529   0.9720   1.0071   1.0205   1.0233
  1.0455   1.0509   1.0528   1.0568   1.0763   1.0920   1.1087   1.1126
  1.1385   1.1565   1.1574   1.1660   1.1750   1.1890   1.1958   1.2034
  1.2086   1.2137   1.2175   1.2309   1.2421   1.2483   1.2689   1.2732
  1.2748   1.2945   1.2989   1.3096   1.3180   1.3300   1.3427   1.3547
  1.3635   1.3718   1.3788   1.4040   1.4083   1.4124   1.4234   1.4253
  1.4533   1.4746   1.4955   1.4996   1.5082   1.5130   1.5267   1.5414
  1.5648   1.5694   1.5764   1.5928   1.6074   1.6200   1.6229   1.6361
  1.6569   1.6610   1.6918   1.7056   1.7074   1.7212   1.7425   1.7588
  1.7701   1.8170   1.8397   1.8720   1.8952   1.9050   1.9388   1.9396
  1.9674   1.9878   2.0156   2.0301   2.0742   2.0911   2.1238   2.1770
  2.2073   2.2268   2.2354   2.2740   2.3064   2.3327   2.3594   2.3744
  2.3845   2.4041   2.4134   2.4335   2.4605   2.4792   2.5254   2.6004
  2.6061   2.6591   2.6697   2.7484   2.7648   2.7759   2.8227   2.8315
  2.8677   2.8845   2.8958   2.9047   2.9245   2.9388   2.9620   2.9858
  3.0220   3.0378   3.0551   3.0870   3.1060   3.1190   3.1542   3.1603
  3.1809   3.2196   3.2383   3.2428   3.2668   3.2841   3.3080   3.3313
  3.3537   3.3813   3.4027   3.4148   3.4259   3.4505   3.4718   3.4986
  3.5094   3.5394   3.5624   3.5778   3.5911   3.6046   3.6275   3.6393
  3.6500   3.6644   3.6814   3.7059   3.7212   3.7443   3.7561   3.7744
  3.7952   3.8064   3.8112   3.8447   3.8520   3.8718   3.8923   3.9003
  3.9251   3.9409   3.9611   3.9730   3.9936   4.0186   4.0465   4.0616
  4.0960   4.1108   4.1204   4.1379   4.1556   4.1811   4.2302   4.2422
  4.2559   4.2706   4.2918   4.3088   4.3300   4.3602   4.3630   4.3852
  4.3874   4.4007   4.4262   4.4640   4.4884   4.5093   4.5359   4.5540
  4.5618   4.5964   4.6080   4.6407   4.6864   4.7119   4.7558   4.7733
  4.8084   4.9066   4.9228   4.9551   5.0281   5.0580   5.1390   5.1442
  5.1679   5.1809   5.1958   5.2004   5.2101   5.2223   5.2529   5.2600
  5.2780   5.2829   5.2960   5.3033   5.3100   5.3250   5.3278   5.3402
  5.3604   5.3914   5.4085   5.4194   5.4559   5.4946   5.5051   5.5130
  5.5309   5.5513   5.5769   5.6027   5.6046   5.6246   5.6268   5.6505
  5.6583   5.6719   5.6997   5.7118   5.7290   5.7623   5.7799   5.8203
  5.8430   5.8818   5.9973   6.0328   6.0501   6.1149   6.1549   6.3780
  6.4941   6.5211   6.5568   6.5928   6.6330   6.7520   6.7859   6.9283
  6.9656   6.9948   7.0213   7.0674   7.0777   7.1064   7.1123   7.1537
  7.1913   7.2529   7.2630   7.2722   7.3154   7.3158   7.3232   7.3260
  7.3675   7.3918   7.3970   7.4355   7.4392   7.5052   7.5647   7.6315
  7.6403   7.6582   7.6945   7.7767   7.7970   7.8054   7.8566   7.8931
  8.0630   8.1472  24.5981  24.7643  24.7698  24.8317  25.0287  50.4524
 50.5675  50.5991  50.6221  50.6296  50.7623
 --------------------------------------------------------------
 
          Ground-State Mulliken Net Atomic Charges

     Atom                 Charge (a.u.)    Spin (a.u.)
  --------------------------------------------------------
      1 C                    -0.232860       0.002274
      2 O                    -0.429074       0.000175
      3 C                     0.380175      -0.005763
      4 O                    -0.458485      -0.000204
      5 C                    -0.444676       0.007019
      6 C                    -0.088332       0.004471
      7 O                     0.113803       0.310862
      8 O                    -0.229500       0.669025
      9 C                    -0.324909       0.010440
     10 O                    -0.407528       0.001575
     11 O                    -0.462398      -0.000684
     12 H                     0.212800       0.000167
     13 H                     0.202772      -0.000100
     14 H                     0.340128       0.000026
     15 H                     0.236461       0.000648
     16 H                     0.264512      -0.000351
     17 H                     0.332287       0.000531
     18 H                     0.302675      -0.000623
     19 H                     0.337452       0.000529
     20 H                     0.354700      -0.000017
  --------------------------------------------------------
  Sum of atomic charges =    -0.000000
  Sum of spin   charges =     1.000000

 -----------------------------------------------------------------
                    Cartesian Multipole Moments
 -----------------------------------------------------------------
    Charge (ESU x 10^10)
                -0.0000
    Dipole Moment (Debye)
         X      -3.5320      Y      -3.3351      Z      -3.7283
       Tot       6.1236
    Quadrupole Moments (Debye-Ang)
        XX     -95.8738     XY      -4.9303     YY     -61.0389
        XZ     -25.5161     YZ       5.0720     ZZ     -62.9166
    Octopole Moments (Debye-Ang^2)
       XXX    -973.5928    XXY      72.6831    XYY    -265.6078
       YYY     107.0955    XXZ     -79.5549    XYZ      31.7062
       YYZ      25.6272    XZZ    -234.9010    YZZ      18.1447
       ZZZ     119.6936
    Hexadecapole Moments (Debye-Ang^3)
      XXXX   -9018.5919   XXXY    1177.9064   XXYY   -1518.9237
      XYYY     681.0760   YYYY    -514.6249   XXXZ      -9.2936
      XXYZ      74.2714   XYYZ     128.8900   YYYZ    -161.5860
      XXZZ   -1308.2845   XYZZ     102.3913   YYZZ    -156.4592
      XZZZ     488.4653   YZZZ     -89.8970   ZZZZ    -670.6279
 -----------------------------------------------------------------
 Calculating analytic gradient of the SCF energy
 Gradient of CDS energy
            1           2           3           4           5           6
    1  -0.0014144   0.0006634   0.0011167  -0.0007167   0.0000757  -0.0000280
    2  -0.0002458   0.0005791   0.0013600  -0.0008829  -0.0001142  -0.0000857
    3  -0.0003571   0.0003896   0.0010249  -0.0007079  -0.0001111   0.0000156
            7           8           9          10          11          12
    1   0.0000678  -0.0000113   0.0024349   0.0004051  -0.0029318   0.0001366
    2   0.0000451  -0.0000821   0.0002727  -0.0007528   0.0003514  -0.0000677
    3  -0.0000189   0.0000572  -0.0016363   0.0023604  -0.0004639   0.0001444
           13          14          15          16          17          18
    1   0.0000857  -0.0003314  -0.0000248   0.0000428   0.0000719  -0.0000913
    2   0.0000822  -0.0004160   0.0000071  -0.0001024   0.0000740  -0.0001085
    3  -0.0001544  -0.0000302  -0.0001541   0.0000620   0.0000240   0.0001623
           19          20
    1  -0.0000232   0.0004723
    2  -0.0000682   0.0001548
    3  -0.0005114  -0.0000950
 Gradient of SCF Energy
            1           2           3           4           5           6
    1   0.0055716  -0.0040732  -0.0006109   0.0039671   0.0075414  -0.0034324
    2  -0.0100781   0.0191247  -0.0082187   0.0053158   0.0277166  -0.0148645
    3  -0.0080268  -0.0130209  -0.0056668   0.0057063   0.0064972   0.0045540
            7           8           9          10          11          12
    1   0.0022740  -0.0024148   0.0059310  -0.0023784   0.0002775  -0.0039375
    2   0.0010032  -0.0003310   0.0155797   0.0134661  -0.0109953  -0.0012474
    3   0.0003645   0.0002199  -0.0000053   0.0090419   0.0038415   0.0085799
           13          14          15          16          17          18
    1  -0.0020113   0.0036852  -0.0035129  -0.0062111   0.0024469  -0.0071505
    2   0.0064830  -0.0169369  -0.0008735  -0.0144856   0.0032172  -0.0106367
    3  -0.0014705   0.0114356  -0.0077536   0.0031713  -0.0040610  -0.0008986
           19          20
    1   0.0016556   0.0023827
    2  -0.0127896   0.0095510
    3  -0.0104351  -0.0020732
 Max gradient component =       2.772E-02
 RMS gradient           =       8.384E-03
 Computing fast CPCM-SWIG gradient
 Updating gradient with PCM contributions...
 -- total gradient after adding PCM contribution --
---------------------------------------------------
  Atom         X              Y              Z     
---------------------------------------------------
   1      -0.000883      -0.000049      -0.000029
   2       0.000173       0.000183       0.000156
   3       0.000344      -0.000024      -0.000031
   4       0.000040       0.000010       0.000021
   5       0.000021      -0.000004      -0.000011
   6       0.000021       0.000015      -0.000063
   7      -0.000053      -0.000062       0.000013
   8       0.000041       0.000031       0.000003
   9      -0.000042       0.000011       0.000021
  10       0.000039      -0.000025      -0.000022
  11       0.000009       0.000024      -0.000025
  12       0.000138       0.000024      -0.000160
  13       0.000138      -0.000132       0.000060
  14       0.000025       0.000003      -0.000015
  15       0.000009      -0.000002       0.000021
  16       0.000004       0.000003       0.000004
  17      -0.000000      -0.000004       0.000014
  18       0.000010       0.000005       0.000011
  19      -0.000026       0.000011       0.000008
  20      -0.000008      -0.000018       0.000023
---------------------------------------------------
 Number of fixed atoms: 0
 Gradient time:  CPU 339.58 s  wall 29.29 s
 ----------------------------------------------------------------
             Standard Nuclear Orientation (Angstroms)
    I     Atom           X                Y                Z
 ----------------------------------------------------------------
    1      C       1.0660571488     0.3247733651    -0.2325855600
    2      O       0.4542957641    -0.6813138616    -1.0173527261
    3      C       2.5781629610     0.2872608125    -0.2171538741
    4      O       3.1870226054     1.1259783861     0.4206522509
    5      C       3.2687435449    -0.7840759424    -1.0114261882
    6      C       4.7689790185    -0.7600980837    -0.8625642275
    7      O       5.0515239238    -1.2052739763     0.4953712963
    8      O       6.0874048818    -0.6108432645     1.0149347645
    9      C       5.4697369349    -1.7163757806    -1.8248153092
   10      O       5.2558747581    -1.1829348814    -3.1084419619
   11      O       6.8375815243    -1.8501716714    -1.5327799864
   12      H       0.7257445879     0.2952847279     0.8048789827
   13      H       0.7766419401     1.2890307803    -0.6485619100
   14      H       0.4890151494    -1.5141220954    -0.5352659243
   15      H       2.9955334463    -0.6532232205    -2.0597162782
   16      H       2.8690032901    -1.7587673354    -0.7201859531
   17      H       5.1881490347     0.2399585763    -0.9642126926
   18      H       5.0514859113    -2.7197167659    -1.7416041604
   19      H       5.4622929584    -1.8656357292    -3.7570392154
   20      H       7.2409706161    -0.9720060399    -1.5237881869
 ----------------------------------------------------------------
 Nuclear Repulsion Energy =         666.32539006 hartrees
 There are       44 alpha and       43 beta electrons
 Discretize the solute cavity surface with Lebedev spheres
	Using 110 Lebedev grid points for each H atom
	Using 194 Lebedev grid points for other atoms
	Atomic van der Waals radii will be scaled by 1.20
 Remove points where switching function is < 1.0e-08
 Keep 1608 surface tesserae and discard 1516 interior tesserae
 Molecular Surface Area = 179.633 Angst**2
 Requested basis set is 6-311++G(2df,2p)
 There are 142 shells and 464 basis functions
 A cutoff of  1.0D-12 yielded   8557 shell pairs
 There are     89865 function pairs (    111275 Cartesian)
 Smallest overlap matrix eigenvalue = 4.24E-06
 Guess MOs from SCF MO coefficient file

 -----------------------------------------------------------------------
  General SCF calculation program by
  Eric Jon Sundstrom, Paul Horn, Yuezhi Mao, Dmitri Zuev, Alec White,
  David Stuck, Shaama M.S., Shane Yost, Joonho Lee, David Small,
  Daniel Levine, Susi Lehtola, Hugh Burton, Evgeny Epifanovsky,
  Bang C. Huynh
 -----------------------------------------------------------------------
 Exchange:     0.1500 Hartree-Fock + 1.0000 wB97M-V + LR-HF
 Correlation:  1.0000 wB97M-V
 Using SG-2 standard quadrature grid
 Nonlocal Correlation:  VV10 with C = 0.0100 and b = 6.00 and scale = 1.00000
 Grid used for NLC:  SG-1 standard quadrature
 
 Citation of the SMD model:
 Marenich, A.V.; Cramer, C.J.; Truhlar, D.G.
 J. Phys. Chem. B 2009, 113, 6378-6396.
 iSolventCode=           1
 Solvent: water                                                           
 
 vradii
            1           2           3           4           5           6
    1   1.8500000   1.5200000   1.8500000   1.5200000   1.8500000   1.8500000
            7           8           9          10          11          12
    1   1.5200000   1.5200000   1.8500000   1.5200000   1.5200000   1.2000000
           13          14          15          16          17          18
    1   1.2000000   1.2000000   1.2000000   1.2000000   1.2000000   1.2000000
           19          20
    1   1.2000000   1.2000000
 -------------------------------------------------------
 OpenMP BLAS3 based DFT computing Module                
 Release: version 1.0, May 2013, Q-Chem Inc. Pittsburgh 
 -------------------------------------------------------
 A unrestricted SCF calculation will be
 performed using Roothaan-Hall, DIIS, GDM
 SCF converges when RMS gradient is below 1.0e-07
 ---------------------------------------
  Cycle       Energy         DIIS error
 ---------------------------------------
    1    -647.1497127381      2.23e-04  Roothaan Step
 ---------------------------------------
  Cycle       Energy         DIIS error
 ---------------------------------------
    1    -647.1929120793      2.80e-04  
    2    -647.1972747778      3.16e-04  Done DIIS. Switching to GDM
 ---------------------------------------
  Cycle       Energy        RMS Gradient
 ---------------------------------------
    1    -647.1972747778      1.95e-02   Normal BFGS step
    2    -647.1931213889      3.30e-02  Line search: overstep
    3    -647.2042356728      3.69e-03   Normal BFGS step
    4    -647.2044767361      8.16e-04   Normal BFGS step
    5    -647.2045264696      2.01e-03   Normal BFGS step
    6    -647.2045408821      2.88e-04   Normal BFGS step
    7    -647.2045425346      5.84e-04   Normal BFGS step
    8    -647.2045435885      2.69e-04   Normal BFGS step
    9    -647.2045438292      1.04e-04   Normal BFGS step
   10    -647.2045439109      3.86e-05   Normal BFGS step
   11    -647.2045439217      3.38e-05   Normal BFGS step
   12    -647.2045439245      3.00e-05   Normal BFGS step
   13    -647.2045439264      2.44e-05   Normal BFGS step
   14    -647.2045439287      1.13e-05   Normal BFGS step
   15    -647.2045439296      2.67e-06   Normal BFGS step
   16    -647.2045439299      8.26e-07   Normal BFGS step
   17    -647.2045439299      2.29e-07   Normal BFGS step
   18    -647.2045439299      1.18e-07   Normal BFGS step
   19    -647.2045439300      5.87e-08  Convergence criterion met
 ---------------------------------------
 SCF time:   CPU 2360.72s  wall 163.00s 
<S^2> =          0.753904660
(3)  G-ENP(liq) elect-nuc-pol free energy of system     -647.204543930 a.u.
(4)  G-CDS(liq) cavity-dispersion-solvent structure 
     free energy                                                4.0907 kcal/mol
(6)  G-S(liq) free energy of system                     -647.198025053 a.u.
 SCF   energy in the final basis set =     -647.1980250533
 Total energy in the final basis set =     -647.1980250533
 
 --------------------------------------------------------------
 
                    Orbital Energies (a.u.)
 --------------------------------------------------------------
 
 Alpha MOs
 -- Occupied --
-19.4657 -19.4181 -19.3507 -19.3487 -19.3452 -19.3393 -10.4546 -10.4480
-10.4148 -10.3946 -10.3565  -1.3465  -1.2076  -1.1935  -1.1641  -1.1398
 -1.0312  -0.9090  -0.8564  -0.8195  -0.7503  -0.6880  -0.6766  -0.6579
 -0.6422  -0.6269  -0.6052  -0.5935  -0.5847  -0.5727  -0.5582  -0.5420
 -0.5343  -0.5223  -0.4928  -0.4758  -0.4514  -0.4470  -0.4416  -0.4257
 -0.4145  -0.4058  -0.3888  -0.3618
 -- Virtual --
[...]
 Force Cnst:      1.3753                 1.7332                 1.5572
 Red. Mass:       1.5205                 1.8807                 1.6638
 IR Active:          YES                    YES                    YES
 IR Intens:      110.128                 34.045                 43.446
 Raman Active:       YES                    YES                    YES
               X      Y      Z        X      Y      Z        X      Y      Z
 C          0.013  0.067  0.053    0.068  0.132  0.073    0.020 -0.010  0.040
 O         -0.024 -0.054 -0.046   -0.045 -0.111 -0.085   -0.019 -0.022 -0.033
 C          0.024 -0.015 -0.004   -0.069 -0.010  0.072   -0.052  0.069 -0.042
 O         -0.008  0.002  0.001   -0.001 -0.003 -0.013    0.005 -0.013  0.004
 C         -0.011  0.005  0.005   -0.010  0.016 -0.006    0.050  0.020  0.012
 C         -0.051 -0.010  0.024    0.056 -0.018 -0.046   -0.035 -0.111 -0.011
 O          0.013  0.004 -0.001   -0.004 -0.002  0.013   -0.068 -0.009 -0.071
 O         -0.009 -0.006 -0.003   -0.003 -0.000 -0.004    0.079  0.041  0.050
 C         -0.013 -0.025  0.116    0.016  0.026 -0.050    0.004  0.026  0.002
 O          0.013  0.020 -0.086   -0.005 -0.011  0.038    0.003 -0.005 -0.001
 O         -0.024  0.022 -0.014    0.012 -0.013  0.007    0.016 -0.013  0.004
 H          0.181  0.155  0.113    0.567  0.343  0.251   -0.035  0.056  0.020
 H          0.025  0.058  0.027    0.037  0.128  0.092    0.275  0.078  0.055
 H         -0.031 -0.053 -0.037   -0.114 -0.169 -0.166    0.085  0.085  0.156
 H          0.054 -0.021 -0.013    0.263 -0.156 -0.095   -0.361  0.122  0.130
 H          0.096 -0.046 -0.016   -0.164  0.094  0.049    0.479 -0.201 -0.139
 H          0.293 -0.183 -0.231   -0.194  0.101  0.062   -0.191 -0.015  0.406
 H          0.155 -0.068  0.517   -0.183  0.110 -0.074   -0.174  0.117  0.254
 H         -0.095  0.268 -0.379    0.028 -0.067  0.108   -0.029  0.090 -0.111
 H          0.371 -0.168  0.079   -0.242  0.109 -0.044   -0.177  0.080 -0.027
 TransDip   0.264  0.039  0.204   -0.038  0.180  0.030   -0.082  0.168  0.097

 Mode:                34                     35                     36
 Frequency:      1284.19                1292.92                1333.20
 Force Cnst:      3.0088                 3.9214                 1.4784
 Red. Mass:       3.0966                 3.9815                 1.4117
 IR Active:          YES                    YES                    YES
 IR Intens:       93.685                214.570                 33.062
 Raman Active:       YES                    YES                    YES
               X      Y      Z        X      Y      Z        X      Y      Z
 C          0.017 -0.010  0.015   -0.006 -0.007  0.007   -0.011  0.014  0.002
 O         -0.008 -0.011 -0.016   -0.001  0.003 -0.002    0.002  0.003  0.005
 C         -0.061  0.048 -0.010    0.011  0.008 -0.018    0.064 -0.035 -0.008
 O          0.008 -0.008 -0.000   -0.001  0.001  0.003   -0.010  0.002 -0.000
 C          0.047  0.016 -0.026    0.006  0.015 -0.009   -0.044  0.019  0.049
 C          0.013 -0.025  0.013   -0.044 -0.092  0.000   -0.084 -0.006 -0.094
 O          0.161  0.087  0.074    0.190  0.131  0.087    0.021  0.038 -0.012
 O         -0.149 -0.087 -0.073   -0.170 -0.103 -0.078   -0.005 -0.007  0.005
 C          0.169 -0.072  0.117   -0.180  0.116 -0.148    0.070 -0.006  0.021
 O         -0.022  0.058 -0.077    0.031 -0.087  0.098   -0.009  0.019 -0.009
 O         -0.109 -0.014 -0.018    0.124  0.006  0.022   -0.022 -0.017 -0.004
 H          0.039  0.053  0.024   -0.037 -0.000 -0.004   -0.064 -0.044 -0.018
 H          0.150  0.041  0.034    0.022 -0.005 -0.009   -0.089 -0.024 -0.029
 H          0.033  0.036  0.067    0.017  0.025  0.035   -0.014 -0.016 -0.028
 H         -0.391  0.118  0.099   -0.168 -0.017  0.029    0.320 -0.183 -0.071
 H          0.238 -0.066 -0.043    0.202 -0.097 -0.101   -0.039 -0.028 -0.100
 H         -0.487  0.196  0.132    0.172 -0.168  0.209    0.446 -0.150  0.705
 H          0.317 -0.145 -0.017   -0.474  0.257  0.095    0.044  0.011  0.083
 H          0.045 -0.192  0.197   -0.085  0.341 -0.373    0.020 -0.087  0.108
 H         -0.264  0.058 -0.058    0.146 -0.002  0.036   -0.201  0.070 -0.036
 TransDip   0.084 -0.101  0.281   -0.341  0.074 -0.314    0.075 -0.163 -0.042

 Mode:                37                     38                     39
 Frequency:      1362.36                1379.17                1388.88
 Force Cnst:      1.6898                 1.5788                 1.2993
 Red. Mass:       1.5452                 1.4088                 1.1432
 IR Active:          YES                    YES                    YES
 IR Intens:       27.245                 20.243                 53.875
 Raman Active:       YES                    YES                    YES
               X      Y      Z        X      Y      Z        X      Y      Z
 C         -0.008 -0.007 -0.010   -0.145 -0.094 -0.016   -0.009 -0.003 -0.013
 O          0.003 -0.001  0.002    0.018  0.045 -0.025    0.005 -0.003  0.009
 C         -0.039  0.014  0.016    0.003 -0.018  0.005   -0.029  0.026  0.014
 O          0.007  0.000 -0.001    0.020  0.022  0.015   -0.001 -0.011 -0.007
 C          0.041 -0.021 -0.008   -0.001 -0.005 -0.000    0.009 -0.074 -0.053
 C          0.048  0.007 -0.057   -0.012  0.011  0.002   -0.034  0.001 -0.016
 O          0.001  0.014 -0.006   -0.000 -0.001 -0.001    0.007  0.007 -0.001
 O          0.002  0.000  0.002    0.001  0.000  0.000   -0.001 -0.002  0.001
 C         -0.147 -0.098 -0.003    0.011  0.007  0.004    0.004  0.007  0.003
 O          0.003  0.043 -0.019   -0.000 -0.004  0.001   -0.000 -0.002  0.001
 O          0.035  0.043  0.005   -0.002 -0.004 -0.001    0.001 -0.004 -0.000
 H          0.089  0.012  0.023    0.688  0.081  0.274    0.047 -0.012  0.005
 H          0.093  0.040  0.026    0.262 -0.096 -0.283    0.121  0.064  0.045
 H         -0.003 -0.013 -0.018    0.227  0.258  0.339   -0.037 -0.042 -0.059
 H         -0.063 -0.023  0.016    0.013 -0.039 -0.009    0.203  0.649 -0.003
 H         -0.205  0.077 -0.013   -0.074  0.017 -0.015    0.097  0.114  0.658
 H         -0.201  0.165  0.554    0.083 -0.029 -0.010    0.145 -0.062  0.119
 H          0.129 -0.219  0.097    0.000  0.010 -0.036    0.004  0.007 -0.008
 H          0.049 -0.161  0.202   -0.005  0.017 -0.021   -0.003  0.008 -0.009
 H          0.554 -0.209  0.105   -0.041  0.015 -0.009   -0.032  0.012 -0.007
 TransDip  -0.111 -0.103  0.070   -0.020 -0.129 -0.061   -0.046  0.188  0.133

 Mode:                40                     41                     42
 Frequency:      1393.11                1423.23                1441.25
 Force Cnst:      1.4151                 1.9024                 1.6093
 Red. Mass:       1.2375                 1.5941                 1.3150
 IR Active:          YES                    YES                    YES
 IR Intens:      101.721                 78.546                 91.937
 Raman Active:       YES                    YES                    YES
               X      Y      Z        X      Y      Z        X      Y      Z
 C         -0.090  0.040 -0.048    0.030 -0.043 -0.024   -0.016 -0.028 -0.023
 O          0.029 -0.020  0.061   -0.001 -0.001 -0.007    0.007  0.002  0.005
 C         -0.001  0.003 -0.016   -0.074  0.028  0.028    0.004 -0.006 -0.005
 O          0.010  0.011  0.010    0.011 -0.002 -0.002    0.004  0.006  0.004
 C          0.025 -0.000  0.006    0.159 -0.063 -0.021    0.004 -0.004 -0.004
 C         -0.018  0.007  0.008   -0.088  0.036 -0.002   -0.007  0.009  0.027
 O         -0.000 -0.001 -0.002    0.001  0.003 -0.010    0.001 -0.001  0.006
 O          0.001  0.000  0.001    0.006  0.002  0.006   -0.003 -0.001 -0.002
 C          0.009  0.011  0.007    0.011  0.026  0.048   -0.046  0.042 -0.130
 O          0.000 -0.006  0.000   -0.000 -0.019 -0.005    0.007  0.022  0.025
 O         -0.001 -0.005 -0.001    0.004 -0.010 -0.004    0.008 -0.042  0.012
 H          0.106 -0.318 -0.004   -0.051  0.384 -0.027   -0.003  0.206 -0.006
 H          0.605  0.310  0.071   -0.109  0.083  0.345    0.007  0.085  0.210
 H         -0.257 -0.303 -0.425    0.048  0.028  0.044   -0.002 -0.007 -0.012
 H         -0.108 -0.109  0.024   -0.332 -0.086  0.103   -0.029 -0.007  0.003
 H         -0.078 -0.003 -0.137   -0.518  0.181 -0.119   -0.020  0.004 -0.009
 H          0.061 -0.030 -0.037    0.309 -0.122  0.060    0.050 -0.025 -0.111
 H          0.005  0.010 -0.049    0.006  0.014 -0.242    0.583 -0.169  0.597
 H         -0.009  0.028 -0.037   -0.031  0.096 -0.131    0.030 -0.128  0.183
 H         -0.049  0.018 -0.010   -0.091  0.037 -0.023   -0.278  0.095 -0.029
 TransDip  -0.119 -0.201 -0.222   -0.265  0.096  0.036   -0.242  0.013 -0.189

 Mode:                43                     44                     45
 Frequency:      1444.98                1465.02                1752.77
 Force Cnst:      1.6745                 2.1531                20.5320
 Red. Mass:       1.3611                 1.7027                11.3431
 IR Active:          YES                    YES                    YES
 IR Intens:       23.886                 61.455                370.890
 Raman Active:       YES                    YES                    YES
               X      Y      Z        X      Y      Z        X      Y      Z
 C         -0.061 -0.081 -0.068   -0.005 -0.003 -0.003   -0.059 -0.053 -0.040
 O          0.023  0.008  0.017    0.001  0.001  0.001   -0.004  0.006  0.004
 C          0.054 -0.033 -0.027    0.016 -0.005 -0.003    0.387  0.530  0.402
 O          0.004  0.015  0.011   -0.004 -0.001 -0.001   -0.250 -0.342 -0.260
 C         -0.077  0.034  0.016   -0.046  0.016  0.012   -0.015 -0.032 -0.024
 C          0.032 -0.013 -0.004    0.081 -0.030 -0.056    0.006  0.018  0.023
 O         -0.000 -0.001  0.002   -0.006 -0.000 -0.001    0.000 -0.002 -0.000
 O         -0.002 -0.000 -0.002    0.004  0.002  0.001   -0.002 -0.000 -0.002
 C          0.022 -0.028  0.019   -0.119  0.109  0.131   -0.000 -0.008 -0.011
 O         -0.003  0.001 -0.005    0.013 -0.039 -0.018   -0.001  0.001  0.002
 O         -0.007  0.019 -0.003    0.029 -0.041 -0.001   -0.004  0.003  0.001
 H         -0.024  0.591 -0.019   -0.007  0.030 -0.002    0.164  0.085  0.049
 H          0.023  0.254  0.611   -0.008  0.012  0.031    0.150  0.059  0.069
 H         -0.020 -0.032 -0.051   -0.003 -0.002 -0.004   -0.009  0.010  0.005
 H          0.146  0.004 -0.046    0.109 -0.003 -0.030   -0.013 -0.186 -0.024
 H          0.208 -0.082  0.020    0.073 -0.029  0.014    0.017 -0.081 -0.193
 H         -0.110  0.045  0.002   -0.143  0.085  0.151    0.006  0.026 -0.042
 H         -0.233  0.067 -0.094    0.607 -0.222 -0.435   -0.003 -0.008  0.006
 H          0.005 -0.003  0.001   -0.080  0.251 -0.339   -0.000 -0.006  0.010
 H          0.130 -0.047  0.019   -0.250  0.095 -0.059    0.013 -0.007  0.001
 TransDip   0.004 -0.150 -0.044   -0.196  0.154  0.029    0.278  0.440  0.331

 Mode:                46                     47                     48
 Frequency:      3062.89                3070.60                3099.44
 Force Cnst:      5.8683                 5.9207                 6.1562
 Red. Mass:       1.0617                 1.0658                 1.0877
 IR Active:          YES                    YES                    YES
 IR Intens:       30.494                  4.896                 31.896
 Raman Active:       YES                    YES                    YES
               X      Y      Z        X      Y      Z        X      Y      Z
 C          0.035 -0.033 -0.051   -0.000  0.000  0.000   -0.000  0.000  0.000
 O         -0.000 -0.000 -0.000   -0.000  0.000  0.000    0.000  0.000 -0.000
 C         -0.000 -0.000 -0.001   -0.001 -0.001 -0.001    0.000  0.000  0.000
 O         -0.000 -0.000  0.000    0.000  0.001  0.001   -0.000 -0.000 -0.000
 C         -0.001 -0.000 -0.000   -0.037 -0.060 -0.017    0.001 -0.001  0.003
 C          0.000  0.000 -0.000    0.003  0.005 -0.000    0.009  0.021 -0.001
 O          0.000  0.000  0.000    0.000 -0.000  0.000    0.000  0.000 -0.000
 O          0.000 -0.000  0.000   -0.000 -0.000  0.000   -0.000 -0.000  0.000
 C         -0.000 -0.000  0.000    0.000  0.001 -0.000   -0.031 -0.076  0.004
 O          0.000  0.000 -0.000    0.000 -0.000  0.000    0.000  0.001  0.000
 O          0.000 -0.000 -0.000   -0.000  0.000  0.000    0.000  0.002 -0.000
 H         -0.275 -0.039  0.816    0.003  0.001 -0.008    0.000  0.000 -0.001
 H         -0.129  0.440 -0.204    0.003 -0.008  0.003    0.001 -0.001  0.001
 H         -0.001 -0.003  0.004    0.001 -0.001  0.000   -0.000  0.000 -0.000
 H          0.001 -0.001  0.006    0.108 -0.067  0.443   -0.009  0.004 -0.037
 H          0.003  0.009 -0.003    0.319  0.786 -0.239    0.003  0.007 -0.002
 H         -0.001 -0.003  0.000   -0.025 -0.065  0.006   -0.107 -0.249  0.027
 H          0.000  0.001 -0.000   -0.005 -0.008  0.002    0.367  0.882 -0.060
 H          0.000 -0.000 -0.000    0.000 -0.000  0.000    0.004 -0.005  0.001
 H         -0.000  0.000  0.000    0.000 -0.000 -0.000   -0.001 -0.018  0.001
 TransDip  -0.050 -0.118 -0.122   -0.054  0.025  0.039   -0.088 -0.155  0.030

 Mode:                49                     50                     51
 Frequency:      3114.78                3118.44                3123.91
 Force Cnst:      6.2484                 6.3175                 6.2566
 Red. Mass:       1.0931                 1.1026                 1.0882
 IR Active:          YES                    YES                    YES
 IR Intens:        8.245                  4.423                 11.559
 Raman Active:       YES                    YES                    YES
               X      Y      Z        X      Y      Z        X      Y      Z
 C          0.001 -0.008  0.008    0.006 -0.064  0.066    0.000 -0.003  0.003
 O         -0.000  0.000  0.000   -0.000  0.001 -0.001   -0.000  0.000 -0.000
 C         -0.000 -0.000 -0.001    0.000 -0.001  0.001   -0.000 -0.001 -0.000
 O          0.000  0.001  0.000   -0.000 -0.000 -0.000    0.000  0.000  0.000
 C         -0.006  0.036 -0.072    0.001 -0.004  0.008    0.000 -0.020  0.030
 C         -0.012 -0.028  0.002    0.003  0.006 -0.001   -0.029 -0.068  0.007
 O          0.000 -0.000  0.000   -0.000  0.000 -0.000   -0.000 -0.000 -0.000
 O          0.000  0.000  0.000   -0.000 -0.000  0.000    0.000  0.000 -0.000
 C         -0.005 -0.011  0.001    0.001  0.002 -0.000   -0.008 -0.019  0.002
 O          0.000  0.000 -0.000   -0.000 -0.000  0.000   -0.000  0.000 -0.000
 O          0.000  0.000  0.000   -0.000 -0.000  0.000    0.000  0.000 -0.000
 H          0.021  0.001 -0.058    0.166  0.011 -0.458    0.006  0.001 -0.016
 H         -0.030  0.095 -0.041   -0.241  0.755 -0.329   -0.010  0.031 -0.014
 H          0.001 -0.001  0.002    0.007 -0.008  0.011    0.001 -0.000  0.000
 H          0.204 -0.087  0.790   -0.022  0.009 -0.086   -0.083  0.034 -0.310
 H         -0.142 -0.348  0.089    0.015  0.038 -0.010    0.094  0.212 -0.058
 H          0.138  0.339 -0.031   -0.031 -0.076  0.007    0.338  0.809 -0.074
 H          0.053  0.130 -0.008   -0.010 -0.025  0.001    0.087  0.217 -0.011
 H          0.001 -0.001 -0.001   -0.000  0.000  0.000    0.001 -0.000 -0.001
 H          0.002 -0.003 -0.000   -0.000  0.001  0.000    0.005 -0.004 -0.000
 TransDip  -0.040 -0.012  0.082   -0.022 -0.053  0.036   -0.056 -0.079  0.051

 Mode:                52                     53                     54
 Frequency:      3787.86                3824.25                3835.56
 Force Cnst:      9.0121                 9.1918                 9.2479
 Red. Mass:       1.0661                 1.0667                 1.0669
 IR Active:          YES                    YES                    YES
 IR Intens:      112.875                155.343                132.182
 Raman Active:       YES                    YES                    YES
               X      Y      Z        X      Y      Z        X      Y      Z
 C         -0.000 -0.000 -0.000    0.000  0.000 -0.000    0.001 -0.001  0.002
 O          0.000 -0.000  0.000   -0.000  0.000 -0.000    0.001 -0.055  0.030
 C          0.000  0.000  0.000   -0.000 -0.000 -0.000   -0.000  0.000  0.000
 O         -0.000 -0.000 -0.000    0.000  0.000  0.000    0.000  0.000  0.000
 C          0.000 -0.000 -0.000   -0.000  0.000  0.000   -0.000 -0.000 -0.000
 C          0.000  0.000  0.000   -0.000  0.000  0.000   -0.000 -0.000 -0.000
 O         -0.000 -0.000  0.000    0.000  0.000  0.000    0.000  0.000  0.000
 O         -0.000 -0.000 -0.000   -0.000 -0.000  0.000    0.000  0.000  0.000
 C         -0.000 -0.003 -0.000    0.000 -0.002 -0.000   -0.000  0.000  0.000
 O          0.001 -0.001 -0.001    0.013 -0.043 -0.044    0.000 -0.000 -0.000
 O         -0.028 -0.056 -0.001    0.001  0.001  0.000    0.000  0.000  0.000
 H          0.000  0.000 -0.000   -0.000 -0.000  0.000    0.003  0.004 -0.001
 H          0.000 -0.000  0.000   -0.000 -0.000  0.000   -0.002  0.013 -0.005
 H         -0.000  0.001 -0.000    0.000 -0.002  0.001   -0.028  0.867 -0.493
 H         -0.000  0.000  0.000    0.000 -0.000  0.000    0.000 -0.000  0.001
 H          0.000 -0.000 -0.000   -0.000 -0.000  0.000    0.000  0.001 -0.000
 H         -0.002 -0.001  0.001   -0.000  0.001  0.000    0.000  0.000  0.000
 H          0.007  0.014 -0.000    0.001  0.003  0.004   -0.000 -0.000  0.000
 H         -0.005  0.015  0.015   -0.208  0.700  0.679   -0.000  0.002  0.002
 H          0.429  0.901  0.013   -0.010 -0.019 -0.001   -0.000 -0.001 -0.000
 TransDip   0.215  0.263  0.021   -0.050  0.218  0.331    0.054  0.345 -0.116

 STANDARD THERMODYNAMIC QUANTITIES AT   298.15 K  AND     1.00 ATM

   This Molecule has  0 Imaginary Frequencies
   Zero point vibrational energy:       96.310 kcal/mol

   Atom    1 Element C  Has Mass   12.00000
   Atom    2 Element O  Has Mass   15.99491
   Atom    3 Element C  Has Mass   12.00000
   Atom    4 Element O  Has Mass   15.99491
   Atom    5 Element C  Has Mass   12.00000
   Atom    6 Element C  Has Mass   12.00000
   Atom    7 Element O  Has Mass   15.99491
   Atom    8 Element O  Has Mass   15.99491
   Atom    9 Element C  Has Mass   12.00000
   Atom   10 Element O  Has Mass   15.99491
   Atom   11 Element O  Has Mass   15.99491
   Atom   12 Element H  Has Mass    1.00783
   Atom   13 Element H  Has Mass    1.00783
   Atom   14 Element H  Has Mass    1.00783
   Atom   15 Element H  Has Mass    1.00783
   Atom   16 Element H  Has Mass    1.00783
   Atom   17 Element H  Has Mass    1.00783
   Atom   18 Element H  Has Mass    1.00783
   Atom   19 Element H  Has Mass    1.00783
   Atom   20 Element H  Has Mass    1.00783
   Molecular Mass:   165.039930 amu
   Principal axes and moments of inertia in amu*Bohr^2:
                             1           2           3
    Eigenvalues --     1071.79900  2814.01816  3514.73496
          X               0.94066     0.26519     0.21174
          Y              -0.29440     0.32739     0.89786
          Z              -0.16878     0.90691    -0.38603
   Rotational Symmetry Number is   1
   The Molecule is an Asymmetric Top
   Translational Enthalpy:        0.889 kcal/mol
   Rotational Enthalpy:           0.889 kcal/mol
   Vibrational Enthalpy:        102.406 kcal/mol
   gas constant (RT):             0.592 kcal/mol
   Translational Entropy:        41.211  cal/mol.K
   Rotational Entropy:           30.739  cal/mol.K
   Vibrational Entropy:          40.027  cal/mol.K

   Total Enthalpy:              104.776 kcal/mol
   Total Entropy:               111.977  cal/mol.K
 Total job time:  23388.75s(wall), 329176.99s(cpu) 
 Sat Jun  1 14:56:35 2024

        *************************************************************
        *                                                           *
        *  Thank you very much for using Q-Chem.  Have a nice day.  *
        *                                                           *
        *************************************************************


