
Running Job 1 of 2 Q_in.in
qchem Q_in.in_239724.0 /scratch/ari.fischer/qChem2267631.hpc-mn1/qchem239724/ 0
/usr/local/qchem-5.4.1/exe/qcprog.exe_s Q_in.in_239724.0 /scratch/ari.fischer/qChem2267631.hpc-mn1/qchem239724/
                  Welcome to Q-Chem
     A Quantum Leap Into The Future Of Chemistry


 Q-Chem 5.4, Q-Chem, Inc., Pleasanton, CA (2021)

 License issued to: Nanyang Technological University (site)

 E. Epifanovsky,  A. T. B. Gilbert,  Xintian Feng,  Joonho Lee,  Yuezhi Mao,  
 N. Mardirossian,  P. Pokhilko,  A. White,  M. Wormit,  M. P. Coons,  
 A. L. Dempwolff,  Zhengting Gan,  D. Hait,  P. R. Horn,  L. D. Jacobson,  
 I. Kaliman,  J. Kussmann,  A. W. Lange,  Ka Un Lao,  D. S. Levine,  Jie Liu,  
 S. C. McKenzie,  A. F. Morrison,  K. Nanda,  F. Plasser,  D. R. Rehn,  
 M. L. Vidal,  Zhi-Qiang You,  Ying Zhu,  B. Alam,  B. Albrecht,  
 A. Aldossary,  E. Alguire,  J. H. Andersen,  D. Barton,  K. Begam,  A. Behn,  
 Y. A. Bernard,  E. J. Berquist,  H. Burton,  A. Carreras,  K. Carter-Fenk,  
 R. Chakraborty,  A. D. Chien,  K. D. Closser,  V. Cofer-Shabica,  
 S. Dasgupta,  Jia Deng,  M. de Wergifosse,  M. Diedenhofen,  Hainam Do,  
 S. Ehlert,  Po-Tung Fang,  S. Fatehi,  Qingguo Feng,  T. Friedhoff,  
 J. Gayvert,  Qinghui Ge,  G. Gidofalvi,  M. Goldey,  J. Gomes,  
 C. Gonzalez-Espinoza,  S. Gulania,  A. Gunina,  M. W. D. Hanson-Heine,  
 P. H. P. Harbach,  A. W. Hauser,  M. F. Herbst,  M. Hernandez Vera,  
 M. Hodecker,  Z. C. Holden,  S. Houck,  Xunkun Huang,  Kerwin Hui,  
 B. C. Huynh,  M. Ivanov,  Hyunjun Ji,  Hanjie Jiang,  B. Kaduk,  S. Kaehler,  
 K. Khistyaev,  Jaehoon Kim,  P. Klunzinger,  Z. Koczor-Benda,  
 Joong Hoon Koh,  D. Kosenkov,  L. Koulias,  T. Kowalczyk,  C. M. Krauter,  
 K. Kue,  A. Kunitsa,  T. Kus,  A. Landau,  K. V. Lawler,  D. Lefrancois,  
 S. Lehtola,  Rain Li,  Yi-Pei Li,  Jiashu Liang,  M. Liebenthal,  
 Hung-Hsuan Lin,  You-Sheng Lin,  Fenglai Liu,  Kuan-Yu Liu,  
 M. Loipersberger,  A. Luenser,  A. Manjanath,  P. Manohar,  E. Mansoor,  
 S. F. Manzer,  Shan-Ping Mao,  A. V. Marenich,  T. Markovich,  S. Mason,  
 S. A. Maurer,  P. F. McLaughlin,  M. F. S. J. Menger,  J.-M. Mewes,  
 S. A. Mewes,  P. Morgante,  J. W. Mullinax,  K. J. Oosterbaan,  G. Paran,  
 Alexander C. Paul,  Suranjan K. Paul,  F. Pavosevic,  Zheng Pei,  S. Prager,  
 E. I. Proynov,  E. Ramos,  B. Rana,  A. E. Rask,  A. Rettig,  R. M. Richard,  
 F. Rob,  E. Rossomme,  T. Scheele,  M. Scheurer,  M. Schneider,  
 N. Sergueev,  S. M. Sharada,  W. Skomorowski,  D. W. Small,  C. J. Stein,  
 Yu-Chuan Su,  E. J. Sundstrom,  Zhen Tao,  J. Thirman,  T. Tsuchimochi,  
 N. M. Tubman,  S. P. Veccham,  O. Vydrov,  J. Wenzel,  J. Witte,  A. Yamada,  
 Kun Yao,  S. Yeganeh,  S. R. Yost,  A. Zech,  Igor Ying Zhang,  Xing Zhang,  
 Yu Zhang,  D. Zuev,  A. Aspuru-Guzik,  A. T. Bell,  N. A. Besley,  
 K. B. Bravaya,  B. R. Brooks,  D. Casanova,  Jeng-Da Chai,  S. Coriani,  
 C. J. Cramer,  A. E. DePrince, III,  R. A. DiStasio Jr.,  A. Dreuw,  
 B. D. Dunietz,  T. R. Furlani,  W. A. Goddard III,  S. Grimme,  
 S. Hammes-Schiffer,  T. Head-Gordon,  W. J. Hehre,  Chao-Ping Hsu,  
 T.-C. Jagau,  Yousung Jung,  A. Klamt,  Jing Kong,  D. S. Lambrecht,  
 WanZhen Liang,  N. J. Mayhall,  C. W. McCurdy,  J. B. Neaton,  
 C. Ochsenfeld,  J. A. Parkhill,  R. Peverati,  V. A. Rassolov,  Yihan Shao,  
 L. V. Slipchenko,  T. Stauch,  R. P. Steele,  J. E. Subotnik,  
 A. J. W. Thom,  A. Tkatchenko,  D. G. Truhlar,  T. Van Voorhis,  
 T. A. Wesolowski,  K. B. Whaley,  H. L. Woodcock III,  P. M. Zimmerman,  
 S. Faraji,  P. M. W. Gill,  M. Head-Gordon,  J. M. Herbert,  A. I. Krylov

 Additional authors for Version 5.4.1: 
 S. Kotaru,  Shaozhi Li,  Xiangyuan Li,  F. Matz,  A. Molle,  Haisheng Ren,  
 Yingli Su,  Hung-Yi Tsai,  C. Utku,  Fang Wang

 Contributors to earlier versions of Q-Chem not listed above: 
 R. D. Adamson,  B. Austin,  R. Baer,  J. Baker,  G. J. O. Beran,  
 K. Brandhorst,  S. T. Brown,  E. F. C. Byrd,  A. K. Chakraborty,  
 G. K. L. Chan,  Chun-Min Chang,  Yunqing Chen,  C.-L. Cheng,  
 Siu Hung Chien,  D. M. Chipman,  D. L. Crittenden,  H. Dachsel,  
 R. J. Doerksen,  A. D. Dutoi,  R. G. Edgar,  J. Fosso-Tande,  
 L. Fusti-Molnar,  D. Ghosh,  A. Ghysels,  A. Golubeva-Zadorozhnaya,  
 J. Gonthier,  M. S. Gordon,  S. R. Gwaltney,  G. Hawkins,  J. E. Herr,  
 A. Heyden,  S. Hirata,  E. G. Hohenstein,  G. Kedziora,  F. J. Keil,  
 C. Kelley,  Jihan Kim,  R. A. King,  R. Z. Khaliullin,  P. P. Korambath,  
 W. Kurlancheek,  A. Laurent,  A. M. Lee,  M. S. Lee,  S. V. Levchenko,  
 Ching Yeh Lin,  D. Liotard,  E. Livshits,  R. C. Lochan,  I. Lotan,  
 L. A. Martinez-Martinez,  P. E. Maslen,  N. Nair,  D. P. O'Neill,  
 D. Neuhauser,  E. Neuscamman,  C. M. Oana,  R. Olivares-Amaya,  R. Olson,  
 T. M. Perrine,  B. Peters,  P. A. Pieniazek,  A. Prociuk,  Y. M. Rhee,  
 J. Ritchie,  M. A. Rohrdanz,  E. Rosta,  N. J. Russ,  H. F. Schaefer III,  
 M. W. Schmidt,  N. E. Schultz,  S. Sharma,  N. Shenvi,  C. D. Sherrill,  
 A. C. Simmonett,  A. Sodt,  T. Stein,  D. Stuck,  K. S. Thanthiriwatte,  
 V. Vanovschi,  L. Vogt,  Tao Wang,  A. Warshel,  M. A. Watson,  
 C. F. Williams,  Q. Wu,  X. Xu,  Jun Yang,  W. Zhang,  Yan Zhao

 Please cite Q-Chem as follows:
 Y. Shao et al., Mol. Phys. 113, 184-215 (2015)
 DOI: 10.1080/00268976.2014.952696

 Q-Chem 5.4.1 for Intel X86 EM64T Linux

 Parts of Q-Chem use Armadillo 9.800.1 (Horizon Scraper).
 http://arma.sourceforge.net/

 Q-Chem begins on Fri Aug  9 08:23:17 2024  

 Host: 
0

     Scratch files written to /scratch/ari.fischer/qChem2267631.hpc-mn1/qchem239724//
 Aug1521 |scratch|qcdevops|jenkins|workspace|build_RNUM 8249   
 Processing $rem in /usr/local/qchem-5.4.1/config/preferences:
 Processing $rem in /home/ari.fischer/.qchemrc:
 Symmetry turned off for PCM/SM12/SMD calculation


!!********************************************.
!!******************Warning*******************.
!!Desired Analytical derivatives not available.
!!Finite difference job might take a long time.
!!********************************************.
!!********************************************.


 2-order derivative to be evaluated numerically with 1-order analytical derivatives

 Checking the input file for inconsistencies... 	...done.

--------------------------------------------------------------
User input:
--------------------------------------------------------------
$molecule
0 2
O    3.3144360   -0.4231443   -0.9960496
C    2.3489315   -0.0816222   -0.0210037
C    2.8658574    0.7440000    1.1372957
O    2.0753089    1.1690272    2.0554884
C    4.3204049    0.9184994    1.3035078
C    4.8634098    1.9219705    1.9907172
C    4.1038730    3.0231800    2.6775300
O    3.5336183    2.5685578    3.8961351
O    5.0269596    4.0348888    2.9836044
H    3.8203457   -1.1796868   -0.6826920
H    1.8680891   -0.9671889    0.4018547
H    1.5758585    0.5100945   -0.5101370
H    4.9612823    0.1972485    0.8168494
H    5.9426711    1.9834128    2.0745388
H    3.3127570    3.4132702    2.0337115
H    2.7994680    1.9919530    3.6342002
H    4.5326188    4.8228986    3.2370310
O    2.7358365    2.0524003   -0.1466432
O    1.6962826    2.7161548    0.3154288
H    1.5435167    2.2064130    1.1847591
$end

$rem
BASIS = 6-311++G(2df,2p)
GUI = 2
JOB_TYPE = Frequency
METHOD = wB97M-V
SCF_ALGORITHM = DIIS_GDM
MAX_SCF_CYCLES = 400
SCF_CONVERGENCE = 6
THRESH = 11
solvent_method = SMD
$end

--------------------------------------------------------------
 ----------------------------------------------------------------
             Standard Nuclear Orientation (Angstroms)
    I     Atom           X                Y                Z
 ----------------------------------------------------------------
    1      O       3.3144360000    -0.4231443000    -0.9960496000
    2      C       2.3489315000    -0.0816222000    -0.0210037000
    3      C       2.8658574000     0.7440000000     1.1372957000
    4      O       2.0753089000     1.1690272000     2.0554884000
    5      C       4.3204049000     0.9184994000     1.3035078000
    6      C       4.8634098000     1.9219705000     1.9907172000
    7      C       4.1038730000     3.0231800000     2.6775300000
    8      O       3.5336183000     2.5685578000     3.8961351000
    9      O       5.0269596000     4.0348888000     2.9836044000
   10      H       3.8203457000    -1.1796868000    -0.6826920000
   11      H       1.8680891000    -0.9671889000     0.4018547000
   12      H       1.5758585000     0.5100945000    -0.5101370000
   13      H       4.9612823000     0.1972485000     0.8168494000
   14      H       5.9426711000     1.9834128000     2.0745388000
   15      H       3.3127570000     3.4132702000     2.0337115000
   16      H       2.7994680000     1.9919530000     3.6342002000
   17      H       4.5326188000     4.8228986000     3.2370310000
   18      O       2.7358365000     2.0524003000    -0.1466432000
   19      O       1.6962826000     2.7161548000     0.3154288000
   20      H       1.5435167000     2.2064130000     1.1847591000
 ----------------------------------------------------------------
 Nuclear Repulsion Energy =         696.11344781 hartrees
 There are       44 alpha and       43 beta electrons
 Requested basis set is 6-311++G(2df,2p)
 There are 142 shells and 464 basis functions

 Total QAlloc Memory Limit 288000 MB
 Mega-Array Size       188 MB
 MEM_STATIC part       192 MB
 
 Citation of the SMD model:
 Marenich, A.V.; Cramer, C.J.; Truhlar, D.G.
 J. Phys. Chem. B 2009, 113, 6378-6396.
 iSolventCode=           1
 Solvent: water                                                           
 
 vradii
            1           2           3           4           5           6
    1   1.5200000   1.8500000   1.8500000   1.5200000   1.8500000   1.8500000
            7           8           9          10          11          12
    1   1.8500000   1.5200000   1.5200000   1.2000000   1.2000000   1.2000000
           13          14          15          16          17          18
    1   1.2000000   1.2000000   1.2000000   1.2000000   1.2000000   1.5200000
           19          20
    1   1.5200000   1.2000000
 Changing PCM_VDW_RADII to SMD_RADIUS
 Discretize the solute cavity surface with Lebedev spheres
	Using 110 Lebedev grid points for each H atom
	Using 194 Lebedev grid points for other atoms
	Atomic van der Waals radii will be scaled by 1.20
 Remove points where switching function is < 1.0e-08
 Keep 1503 surface tesserae and discard 1621 interior tesserae
 Molecular Surface Area = 166.977 Angst**2
 A cutoff of  1.0D-11 yielded   8685 shell pairs
 There are     92237 function pairs (    114649 Cartesian)
 Smallest overlap matrix eigenvalue = 2.99E-06

 Q-Chem warning in module stvman/mkSTV.C, line 323:

 Overlap eigenvalue is smaller than square root of threshold
 Use THRESH >= 12 to get rid of this warning

 Guess from superposition of atomic densities
 Warning:  Energy on first SCF cycle will be non-variational
 SAD guess density has 87.000000 electrons

 -----------------------------------------------------------------------
  General SCF calculation program by
  Eric Jon Sundstrom, Paul Horn, Yuezhi Mao, Dmitri Zuev, Alec White,
  David Stuck, Shaama M.S., Shane Yost, Joonho Lee, David Small,
  Daniel Levine, Susi Lehtola, Hugh Burton, Evgeny Epifanovsky,
  Bang C. Huynh
 -----------------------------------------------------------------------
 Exchange:     0.1500 Hartree-Fock + 1.0000 wB97M-V + LR-HF
 Correlation:  1.0000 wB97M-V
 Using SG-2 standard quadrature grid
 Nonlocal Correlation:  VV10 with C = 0.0100 and b = 6.00 and scale = 1.00000
 Grid used for NLC:  SG-1 standard quadrature
 using 16 threads for integral computing
 -------------------------------------------------------
 OpenMP Integral computing Module                
 Release: version 1.0, May 2013, Q-Chem Inc. Pittsburgh 
 -------------------------------------------------------
 
 Citation of the SMD model:
 Marenich, A.V.; Cramer, C.J.; Truhlar, D.G.
 J. Phys. Chem. B 2009, 113, 6378-6396.
 iSolventCode=           1
 Solvent: water                                                           
 
 vradii
            1           2           3           4           5           6
    1   1.5200000   1.8500000   1.8500000   1.5200000   1.8500000   1.8500000
            7           8           9          10          11          12
    1   1.8500000   1.5200000   1.5200000   1.2000000   1.2000000   1.2000000
           13          14          15          16          17          18
    1   1.2000000   1.2000000   1.2000000   1.2000000   1.2000000   1.5200000
           19          20
    1   1.5200000   1.2000000
 -------------------------------------------------------
 OpenMP BLAS3 based DFT computing Module                
 Release: version 1.0, May 2013, Q-Chem Inc. Pittsburgh 
 -------------------------------------------------------
 A unrestricted SCF calculation will be
 performed using DIIS, GDM
 SCF converges when RMS gradient is below 1.0e-06
 ---------------------------------------
  Cycle       Energy         DIIS error
 ---------------------------------------
    1    -649.5563194956      1.16e-02  
    2    -646.9288382769      1.54e-03  Done DIIS. Switching to GDM
 ---------------------------------------
  Cycle       Energy        RMS Gradient
 ---------------------------------------
    1    -646.9288382769      9.11e-02   Descent step
    2    -647.1009917325      2.47e-02   Normal BFGS step
    3    -647.1287007423      1.67e-02   Normal BFGS step
    4    -647.1310595113      2.13e-02   Normal BFGS step
    5    -647.1330201318      7.88e-03   Normal BFGS step
    6    -647.1332340772      3.34e-03   Normal BFGS step
    7    -647.1333575258      2.36e-03   Normal BFGS step
    8    -647.1333801293      1.39e-03   Normal BFGS step
    9    -647.1333885267      7.87e-04   Normal BFGS step
   10    -647.1333914233      4.60e-04   Normal BFGS step
   11    -647.1333931399      3.97e-04   Normal BFGS step
   12    -647.1333937166      2.67e-04   Normal BFGS step
   13    -647.1333939316      1.11e-04   Normal BFGS step
   14    -647.1333939894      3.04e-05   Normal BFGS step
   15    -647.1333940028      1.69e-05   Normal BFGS step
   16    -647.1333940059      1.11e-05   Normal BFGS step
   17    -647.1333940069      3.48e-06   Normal BFGS step
   18    -647.1333940075      2.98e-06   Normal BFGS step
   19    -647.1333940078      1.73e-06   Normal BFGS step
   20    -647.1333940082      6.87e-07  Convergence criterion met
 ---------------------------------------
 SCF time:   CPU 3083.81s  wall 213.00s 
<S^2> =          0.754734506
(3)  G-ENP(liq) elect-nuc-pol free energy of system     -647.133394008 a.u.
(4)  G-CDS(liq) cavity-dispersion-solvent structure 
     free energy                                                3.7669 kcal/mol
(6)  G-S(liq) free energy of system                     -647.127391029 a.u.
 SCF   energy in the final basis set =     -647.1273910287
 Total energy in the final basis set =     -647.1273910287
 
 --------------------------------------------------------------
 
                    Orbital Energies (a.u.)
 --------------------------------------------------------------
 
 Alpha MOs
 -- Occupied --
-19.4655 -19.4614 -19.3488 -19.3480 -19.3364 -19.3346 -10.4665 -10.4486
-10.3968 -10.3598 -10.3548  -1.3700  -1.2005  -1.1800  -1.1665  -1.1309
 -1.0307  -0.9299  -0.8657  -0.8077  -0.7422  -0.7245  -0.6748  -0.6546
 -0.6461  -0.6411  -0.6296  -0.6223  -0.5870  -0.5814  -0.5426  -0.5266
 -0.5126  -0.5010  -0.4924  -0.4769  -0.4597  -0.4533  -0.4303  -0.4270
 -0.4236  -0.3927  -0.3708  -0.3641
 -- Virtual --
  0.0253   0.0269   0.0345   0.0400   0.0517   0.0573   0.0608   0.0748
  0.0808   0.0857   0.1039   0.1088   0.1180   0.1250   0.1328   0.1374
  0.1443   0.1460   0.1555   0.1576   0.1618   0.1667   0.1750   0.1776
  0.1819   0.1890   0.1930   0.1995   0.2122   0.2179   0.2292   0.2375
  0.2418   0.2494   0.2603   0.2671   0.2749   0.2839   0.2880   0.2925
  0.2971   0.3063   0.3085   0.3222   0.3240   0.3274   0.3385   0.3425
  0.3465   0.3509   0.3586   0.3665   0.3694   0.3721   0.3759   0.3853
  0.3877   0.3899   0.3940   0.4052   0.4143   0.4305   0.4327   0.4380
  0.4468   0.4548   0.4669   0.4750   0.4846   0.4902   0.5212   0.5409
  0.5473   0.5696   0.5755   0.5933   0.6014   0.6131   0.6192   0.6320
  0.6468   0.6515   0.6559   0.6654   0.6800   0.6944   0.6980   0.7047
  0.7122   0.7180   0.7326   0.7471   0.7685   0.7818   0.7861   0.7881
  0.8016   0.8253   0.8426   0.8523   0.8600   0.8763   0.8844   0.8993
  0.9088   0.9151   0.9273   0.9689   0.9882   0.9899   1.0138   1.0225
  1.0326   1.0502   1.0579   1.0629   1.0917   1.1009   1.1104   1.1243
  1.1277   1.1414   1.1443   1.1625   1.1742   1.1879   1.1989   1.2117
  1.2138   1.2249   1.2342   1.2477   1.2644   1.2723   1.2767   1.2910
  1.2932   1.3038   1.3225   1.3275   1.3447   1.3471   1.3681   1.3796
  1.3860   1.3973   1.4062   1.4143   1.4413   1.4495   1.4543   1.4797
  1.4956   1.5019   1.5278   1.5299   1.5380   1.5431   1.5617   1.5855
  1.6012   1.6140   1.6243   1.6272   1.6409   1.6573   1.6694   1.6934
  1.6988   1.7148   1.7296   1.7321   1.7667   1.7816   1.7935   1.8299
  1.8476   1.8683   1.9210   1.9421   1.9750   1.9787   1.9950   2.0395
  2.0453   2.0825   2.1283   2.1316   2.1745   2.1921   2.1999   2.2397
  2.2647   2.2831   2.3126   2.3515   2.3566   2.3649   2.3894   2.3955
  2.4336   2.4682   2.5032   2.5171   2.5462   2.5885   2.6196   2.6589
  2.6977   2.7225   2.7554   2.7788   2.8088   2.8150   2.8249   2.8350
  2.8522   2.8683   2.8902   2.9074   2.9373   2.9601   2.9755   3.0041
  3.0155   3.0242   3.0333   3.0680   3.1236   3.1630   3.1886   3.2212
  3.2259   3.2456   3.2547   3.2915   3.3028   3.3209   3.3468   3.3668
  3.3762   3.3900   3.3938   3.4173   3.4234   3.4645   3.4688   3.5114
  3.5273   3.5387   3.5492   3.5644   3.5698   3.6099   3.6191   3.6365
  3.6644   3.6952   3.7067   3.7198   3.7358   3.7475   3.7661   3.7799
  3.7979   3.8257   3.8288   3.8432   3.8631   3.8814   3.8901   3.9047
  3.9073   3.9169   3.9420   3.9445   4.0046   4.0495   4.0630   4.0968
  4.1124   4.1269   4.1418   4.1548   4.1808   4.1866   4.2257   4.2314
  4.2467   4.2489   4.2930   4.3236   4.3307   4.3518   4.3765   4.3849
  4.4101   4.4307   4.4481   4.4742   4.4942   4.5223   4.5286   4.5608
  4.6346   4.6513   4.6752   4.7238   4.7474   4.7558   4.7814   4.8271
  4.8475   4.8833   4.9269   4.9694   5.0871   5.1281   5.1801   5.1870
  5.2032   5.2179   5.2355   5.2387   5.2761   5.2788   5.2866   5.2963
  5.3056   5.3177   5.3213   5.3347   5.3564   5.3688   5.3761   5.3919
  5.4203   5.4333   5.4437   5.4508   5.4657   5.4871   5.5266   5.5437
  5.5629   5.5744   5.5811   5.5951   5.6225   5.6420   5.6501   5.6774
  5.6973   5.7110   5.7295   5.7587   5.7705   5.8104   5.8364   5.9262
  5.9672   5.9944   6.0200   6.0523   6.0865   6.1204   6.2166   6.3861
  6.4014   6.5445   6.5930   6.6719   6.7723   6.9103   6.9603   6.9804
  7.0592   7.0633   7.0756   7.1087   7.1171   7.1415   7.1961   7.2146
  7.2920   7.3070   7.3152   7.3251   7.3322   7.3386   7.3476   7.3821
  7.4054   7.4198   7.4590   7.4956   7.5421   7.6173   7.6379   7.6485
  7.7013   7.7478   7.7623   7.7983   7.8084   7.9166   7.9563   8.0464
  8.1194  24.4171  24.7730  24.8221  24.9616  25.2460  50.4488  50.5535
 50.6162  50.6220  50.6397  50.7921
 
 Beta MOs
 -- Occupied --
-19.4509 -19.4466 -19.3488 -19.3480 -19.3363 -19.3345 -10.4665 -10.4486
-10.3964 -10.3597 -10.3546  -1.3432  -1.2004  -1.1790  -1.1662  -1.1308
 -0.9972  -0.9268  -0.8606  -0.8070  -0.7390  -0.7157  -0.6722  -0.6503
 -0.6433  -0.6290  -0.6101  -0.5945  -0.5799  -0.5722  -0.5259  -0.5225
 -0.5108  -0.4981  -0.4910  -0.4743  -0.4493  -0.4417  -0.4273  -0.4229
 -0.3976  -0.3742  -0.3601
 -- Virtual --
 -0.0579   0.0265   0.0283   0.0347   0.0400   0.0519   0.0578   0.0609
  0.0752   0.0815   0.0860   0.1041   0.1090   0.1189   0.1254   0.1336
  0.1376   0.1448   0.1462   0.1563   0.1580   0.1644   0.1681   0.1762
  0.1778   0.1821   0.1909   0.1941   0.2038   0.2167   0.2180   0.2302
  0.2378   0.2429   0.2504   0.2605   0.2678   0.2757   0.2848   0.2888
  0.2948   0.2981   0.3068   0.3091   0.3230   0.3245   0.3297   0.3397
  0.3434   0.3471   0.3511   0.3589   0.3670   0.3696   0.3730   0.3769
  0.3858   0.3880   0.3906   0.3972   0.4066   0.4159   0.4315   0.4330
  0.4385   0.4474   0.4555   0.4686   0.4759   0.4848   0.4907   0.5219
  0.5418   0.5482   0.5699   0.5758   0.5935   0.6020   0.6140   0.6193
  0.6331   0.6471   0.6522   0.6563   0.6657   0.6804   0.6946   0.6984
  0.7062   0.7126   0.7184   0.7333   0.7476   0.7688   0.7822   0.7873
  0.7888   0.8022   0.8254   0.8429   0.8529   0.8607   0.8783   0.8847
  0.9003   0.9100   0.9160   0.9287   0.9700   0.9903   0.9968   1.0156
  1.0245   1.0340   1.0518   1.0588   1.0643   1.0925   1.1033   1.1136
  1.1247   1.1290   1.1427   1.1453   1.1677   1.1773   1.1895   1.2015
  1.2153   1.2181   1.2268   1.2359   1.2488   1.2691   1.2736   1.2785
  1.2943   1.3032   1.3058   1.3255   1.3329   1.3463   1.3488   1.3692
  1.3813   1.3873   1.3994   1.4096   1.4155   1.4446   1.4520   1.4578
  1.4823   1.4966   1.5036   1.5292   1.5319   1.5408   1.5451   1.5638
  1.5868   1.6033   1.6162   1.6272   1.6311   1.6440   1.6607   1.6759
  1.6952   1.7019   1.7174   1.7330   1.7353   1.7675   1.7849   1.7992
  1.8347   1.8510   1.8733   1.9241   1.9431   1.9796   1.9829   1.9984
  2.0415   2.0490   2.0894   2.1347   2.1408   2.1835   2.1947   2.2018
  2.2482   2.2651   2.2902   2.3159   2.3525   2.3610   2.3686   2.3915
  2.4015   2.4340   2.4689   2.5050   2.5186   2.5513   2.5897   2.6232
  2.6597   2.7005   2.7291   2.7565   2.7804   2.8099   2.8153   2.8257
  2.8355   2.8532   2.8688   2.8908   2.9077   2.9379   2.9605   2.9767
  3.0049   3.0158   3.0258   3.0337   3.0684   3.1237   3.1635   3.1890
  3.2215   3.2267   3.2459   3.2550   3.2926   3.3038   3.3211   3.3476
  3.3672   3.3774   3.3904   3.3943   3.4176   3.4241   3.4649   3.4692
  3.5120   3.5290   3.5395   3.5504   3.5648   3.5701   3.6105   3.6198
  3.6373   3.6646   3.6955   3.7071   3.7201   3.7366   3.7482   3.7666
  3.7806   3.7984   3.8263   3.8292   3.8437   3.8657   3.8817   3.8906
  3.9051   3.9078   3.9171   3.9424   3.9450   4.0057   4.0505   4.0636
  4.0972   4.1136   4.1285   4.1425   4.1570   4.1827   4.1876   4.2261
  4.2327   4.2480   4.2505   4.2938   4.3251   4.3311   4.3529   4.3770
  4.3883   4.4117   4.4321   4.4495   4.4763   4.4961   4.5239   4.5317
  4.5617   4.6378   4.6567   4.6907   4.7305   4.7556   4.7729   4.7924
  4.8411   4.8506   4.8854   4.9280   4.9819   5.0935   5.1763   5.1947
  5.2075   5.2141   5.2356   5.2483   5.2730   5.2827   5.2843   5.2920
  5.3070   5.3191   5.3244   5.3328   5.3489   5.3624   5.3782   5.3972
  5.3984   5.4299   5.4443   5.4473   5.4619   5.4852   5.4962   5.5286
  5.5475   5.5704   5.5763   5.5824   5.6141   5.6287   5.6488   5.6548
  5.6783   5.7014   5.7123   5.7307   5.7606   5.7745   5.8234   5.8388
  5.9264   5.9680   5.9947   6.0203   6.0528   6.0866   6.1206   6.2169
  6.3986   6.4440   6.5447   6.5933   6.6725   6.7738   6.9479   6.9939
  7.0160   7.0657   7.0682   7.1065   7.1250   7.1341   7.1661   7.2029
  7.2684   7.2947   7.3158   7.3212   7.3258   7.3324   7.3460   7.3589
  7.4115   7.4198   7.4254   7.4793   7.5113   7.5644   7.6215   7.6406
  7.6536   7.7103   7.7570   7.7627   7.7994   7.8097   7.9169   7.9615
  8.0641   8.1324  24.4172  24.7733  24.8221  24.9615  25.2461  50.4580
 50.5651  50.6162  50.6234  50.6402  50.7923
 --------------------------------------------------------------
 
          Ground-State Mulliken Net Atomic Charges

     Atom                 Charge (a.u.)    Spin (a.u.)
  --------------------------------------------------------
      1 O                    -0.446224       0.000802
      2 C                    -0.390433       0.019152
      3 C                     0.286269       0.000272
      4 O                    -0.515556       0.001451
      5 C                    -0.197674      -0.007556
      6 C                    -0.070369       0.014169
      7 C                    -0.367823      -0.002512
      8 O                    -0.445917      -0.000045
      9 O                    -0.458098      -0.000200
     10 H                     0.341572      -0.000070
     11 H                     0.225409       0.009372
     12 H                     0.215423       0.001626
     13 H                     0.297983      -0.000073
     14 H                     0.280029       0.000677
     15 H                     0.272487      -0.003818
     16 H                     0.348223       0.001677
     17 H                     0.332196      -0.000026
     18 O                     0.065508       0.619448
     19 O                    -0.100497       0.351489
     20 H                     0.327492      -0.005835
  --------------------------------------------------------
  Sum of atomic charges =    -0.000000
  Sum of spin   charges =     1.000000

 -----------------------------------------------------------------
                    Cartesian Multipole Moments
 -----------------------------------------------------------------
    Charge (ESU x 10^10)
                -0.0000
    Dipole Moment (Debye)
         X      -1.5557      Y      -2.4910      Z      -2.2007
       Tot       3.6699
    Quadrupole Moments (Debye-Ang)
        XX     -75.7436     XY     -16.6172     YY     -59.0710
        XZ     -13.0958     YZ      -4.8279     ZZ     -90.7564
    Octopole Moments (Debye-Ang^2)
       XXX    -716.9510    XXY    -207.8150    XYY    -219.7137
       YYY    -283.4787    XXZ    -166.6285    XYZ     -37.2747
       YYZ     -79.3316    XZZ    -327.7874    YZZ    -151.0282
       ZZZ    -373.0085
    Hexadecapole Moments (Debye-Ang^3)
      XXXX   -5290.9783   XXXY   -1777.9361   XXYY   -1281.6224
      XYYY   -1112.9287   YYYY   -1511.6171   XXXZ   -1486.8173
      XXYZ    -476.9589   XYYZ    -384.6597   YYYZ    -535.4233
      XXZZ   -1590.8387   XYZZ    -615.8398   YYZZ    -618.4529
      XZZZ   -1503.0913   YZZZ    -949.6184   ZZZZ   -2124.4768
 -----------------------------------------------------------------
 Calculating analytic gradient of the SCF energy
 Gradient of CDS energy
            1           2           3           4           5           6
    1  -0.0003909  -0.0002444  -0.0012639   0.0010103   0.0002097   0.0002923
    2   0.0005340  -0.0008358   0.0006630  -0.0006425  -0.0001940  -0.0000897
    3   0.0006962  -0.0009815   0.0013551  -0.0011505  -0.0001146   0.0000523
            7           8           9          10          11          12
    1   0.0019872   0.0002548  -0.0021728   0.0002318   0.0000600   0.0001773
    2   0.0029193   0.0000565  -0.0026438  -0.0003933  -0.0000658   0.0003367
    3   0.0007639  -0.0001425  -0.0006193  -0.0002750   0.0001939  -0.0000616
           13          14          15          16          17          18
    1   0.0000421   0.0001996  -0.0000823  -0.0002168   0.0000900  -0.0000721
    2  -0.0000311   0.0000761  -0.0001967  -0.0000852   0.0004925  -0.0000141
    3  -0.0000828   0.0000423  -0.0000596   0.0003277   0.0001187   0.0000081
           19          20
    1   0.0002081  -0.0003198
    2   0.0000026   0.0001115
    3  -0.0001670   0.0000960
 Gradient of SCF Energy
            1           2           3           4           5           6
    1  -0.0103458   0.0319005  -0.0074071  -0.0063401  -0.0125874  -0.0086242
    2   0.0138929   0.0441142  -0.0144563   0.0166344   0.0154505   0.0095759
    3  -0.0143379  -0.0126212  -0.0122364   0.0264973  -0.0071175   0.0031518
            7           8           9          10          11          12
    1   0.0067001   0.0027782   0.0093681   0.0095565  -0.0051981  -0.0047315
    2  -0.0030442  -0.0018596  -0.0090853  -0.0150632  -0.0061953   0.0176552
    3   0.0039236   0.0036692   0.0006945   0.0088118   0.0056048  -0.0018645
           13          14          15          16          17          18
    1   0.0058546   0.0023790  -0.0074798  -0.0034666  -0.0074033   0.0172036
    2  -0.0088223  -0.0016378   0.0011341   0.0007354   0.0084416  -0.0656366
    3  -0.0055173  -0.0005147  -0.0062109  -0.0027956  -0.0000752   0.0004552
           19          20
    1  -0.0182802   0.0061236
    2  -0.0001005  -0.0017330
    3   0.0215735  -0.0110903
 Max gradient component =       6.564E-02
 RMS gradient           =       1.457E-02
 Computing fast CPCM-SWIG gradient
 Updating gradient with PCM contributions...
 -- total gradient after adding PCM contribution --
---------------------------------------------------
  Atom         X              Y              Z     
---------------------------------------------------
   1       0.001267      -0.003935      -0.002879
   2       0.015038       0.037034      -0.010087
   3      -0.004545      -0.010186      -0.009459
   4      -0.004304       0.020871       0.019282
   5      -0.011965       0.006616      -0.009492
   6      -0.000338       0.003171       0.001366
   7      -0.000758       0.001884      -0.000898
   8      -0.000607      -0.002500      -0.002575
   9      -0.000035      -0.000706       0.000203
  10      -0.000032      -0.000050      -0.000621
  11      -0.000690       0.003528       0.001861
  12       0.002876       0.012877      -0.000043
  13      -0.000665       0.000329      -0.000544
  14       0.000159       0.000098       0.000509
  15      -0.002010      -0.002326      -0.002555
  16      -0.000444       0.000808       0.000704
  17      -0.000012       0.000024      -0.000080
  18       0.014662      -0.061169       0.002062
  19      -0.016225      -0.005612       0.028563
  20       0.008627      -0.000756      -0.015315
---------------------------------------------------
 Number of fixed atoms: 0
 Gradient time:  CPU 412.10 s  wall 33.77 s
 ######################################################
 ######################################################
 # Starting finite difference calculation for IDERIV  #
 Finite diff step size:  1.88973e-03 a.u.
 ----------------------------------------------------------------
             Standard Nuclear Orientation (Angstroms)
    I     Atom           X                Y                Z
 ----------------------------------------------------------------
    1      O       3.3154360000    -0.4231443000    -0.9960496000
    2      C       2.3489315000    -0.0816222000    -0.0210037000
    3      C       2.8658574000     0.7440000000     1.1372957000
    4      O       2.0753089000     1.1690272000     2.0554884000
    5      C       4.3204049000     0.9184994000     1.3035078000
    6      C       4.8634098000     1.9219705000     1.9907172000
    7      C       4.1038730000     3.0231800000     2.6775300000
    8      O       3.5336183000     2.5685578000     3.8961351000
    9      O       5.0269596000     4.0348888000     2.9836044000
   10      H       3.8203457000    -1.1796868000    -0.6826920000
   11      H       1.8680891000    -0.9671889000     0.4018547000
   12      H       1.5758585000     0.5100945000    -0.5101370000
   13      H       4.9612823000     0.1972485000     0.8168494000
   14      H       5.9426711000     1.9834128000     2.0745388000
   15      H       3.3127570000     3.4132702000     2.0337115000
   16      H       2.7994680000     1.9919530000     3.6342002000
   17      H       4.5326188000     4.8228986000     3.2370310000
   18      O       2.7358365000     2.0524003000    -0.1466432000
   19      O       1.6962826000     2.7161548000     0.3154288000
   20      H       1.5435167000     2.2064130000     1.1847591000
 ----------------------------------------------------------------
 Nuclear Repulsion Energy =         696.10448733 hartrees
 There are       44 alpha and       43 beta electrons
 Discretize the solute cavity surface with Lebedev spheres
	Using 110 Lebedev grid points for each H atom
	Using 194 Lebedev grid points for other atoms
	Atomic van der Waals radii will be scaled by 1.20
 Remove points where switching function is < 1.0e-08
 Keep 1503 surface tesserae and discard 1621 interior tesserae
 Molecular Surface Area = 166.977 Angst**2
 Requested basis set is 6-311++G(2df,2p)
 There are 142 shells and 464 basis functions
 A cutoff of  1.0D-11 yielded   8685 shell pairs
 There are     92237 function pairs (    114649 Cartesian)
 Smallest overlap matrix eigenvalue = 2.99E-06

 Q-Chem warning in module stvman/mkSTV.C, line 323:

 Overlap eigenvalue is smaller than square root of threshold
 Use THRESH >= 12 to get rid of this warning

 Guess MOs from SCF MO coefficient file

 -----------------------------------------------------------------------
  General SCF calculation program by
  Eric Jon Sundstrom, Paul Horn, Yuezhi Mao, Dmitri Zuev, Alec White,
  David Stuck, Shaama M.S., Shane Yost, Joonho Lee, David Small,
  Daniel Levine, Susi Lehtola, Hugh Burton, Evgeny Epifanovsky,
  Bang C. Huynh
 -----------------------------------------------------------------------
 Exchange:     0.1500 Hartree-Fock + 1.0000 wB97M-V + LR-HF
 Correlation:  1.0000 wB97M-V
 Using SG-2 standard quadrature grid
 Nonlocal Correlation:  VV10 with C = 0.0100 and b = 6.00 and scale = 1.00000
 Grid used for NLC:  SG-1 standard quadrature
 
 Citation of the SMD model:
 Marenich, A.V.; Cramer, C.J.; Truhlar, D.G.
 J. Phys. Chem. B 2009, 113, 6378-6396.
 iSolventCode=           1
 Solvent: water                                                           
 
 vradii
            1           2           3           4           5           6
    1   1.5200000   1.8500000   1.8500000   1.5200000   1.8500000   1.8500000
            7           8           9          10          11          12
    1   1.8500000   1.5200000   1.5200000   1.2000000   1.2000000   1.2000000
           13          14          15          16          17          18
    1   1.2000000   1.2000000   1.2000000   1.2000000   1.2000000   1.5200000
           19          20
    1   1.5200000   1.2000000
 -------------------------------------------------------
 OpenMP BLAS3 based DFT computing Module                
 Release: version 1.0, May 2013, Q-Chem Inc. Pittsburgh 
 -------------------------------------------------------
 A unrestricted SCF calculation will be
 performed using Roothaan-Hall, DIIS, GDM
 SCF converges when RMS gradient is below 1.0e-06
 ---------------------------------------
  Cycle       Energy         DIIS error
 ---------------------------------------
    1    -647.0883504696      2.03e-04  Roothaan Step
 ---------------------------------------
  Cycle       Energy         DIIS error
 ---------------------------------------
    1    -647.1252095969      2.31e-04  
    2    -647.1305653979      1.91e-04  Done DIIS. Switching to GDM
 ---------------------------------------
  Cycle       Energy        RMS Gradient
 ---------------------------------------
    1    -647.1305653979      9.18e-03   Normal BFGS step
    2    -647.1302693935      1.39e-02  Line search: overstep
    3    -647.1332003426      2.52e-03   Normal BFGS step
    4    -647.1333425577      2.05e-03   Normal BFGS step
    5    -647.1333765763      1.41e-03   Normal BFGS step
    6    -647.1333891767      1.67e-04   Normal BFGS step
    7    -647.1333898466      1.91e-04   Normal BFGS step
    8    -647.1333901959      7.64e-05   Normal BFGS step
    9    -647.1333902427      4.67e-05   Normal BFGS step
   10    -647.1333902657      2.70e-05   Normal BFGS step
   11    -647.1333902736      1.90e-05   Normal BFGS step
   12    -647.1333902757      1.25e-05   Normal BFGS step
   13    -647.1333902766      7.27e-06   Normal BFGS step
   14    -647.1333902770      4.33e-06   Normal BFGS step
   15    -647.1333902773      2.61e-06   Normal BFGS step
   16    -647.1333902775      1.10e-06   Normal BFGS step
   17    -647.1333902771      4.61e-07  Convergence criterion met
 ---------------------------------------
 SCF time:   CPU 2814.84s  wall 195.00s 
<S^2> =          0.754734477
(3)  G-ENP(liq) elect-nuc-pol free energy of system     -647.133390277 a.u.
(4)  G-CDS(liq) cavity-dispersion-solvent structure 
     free energy                                                3.7665 kcal/mol
(6)  G-S(liq) free energy of system                     -647.127387956 a.u.
 SCF   energy in the final basis set =     -647.1273879565
 Total energy in the final basis set =     -647.1273879565
 
 --------------------------------------------------------------
 
                    Orbital Energies (a.u.)
 --------------------------------------------------------------
 
 Alpha MOs
 -- Occupied --
-19.4656 -19.4614 -19.3488 -19.3480 -19.3364 -19.3346 -10.4665 -10.4486
-10.3969 -10.3598 -10.3548  -1.3700  -1.2005  -1.1800  -1.1664  -1.1309
 -1.0307  -0.9299  -0.8658  -0.8077  -0.7422  -0.7245  -0.6748  -0.6546
 -0.6461  -0.6411  -0.6296  -0.6223  -0.5870  -0.5814  -0.5425  -0.5265
 -0.5126  -0.5010  -0.4924  -0.4769  -0.4597  -0.4533  -0.4303  -0.4270
 -0.4237  -0.3927  -0.3708  -0.3642
 -- Virtual --
  0.0253   0.0269   0.0345   0.0400   0.0517   0.0573   0.0608   0.0748
  0.0808   0.0857   0.1039   0.1088   0.1180   0.1250   0.1328   0.1374
  0.1443   0.1460   0.1555   0.1576   0.1618   0.1667   0.1750   0.1776
  0.1818   0.1890   0.1930   0.1995   0.2122   0.2179   0.2292   0.2375
  0.2418   0.2494   0.2602   0.2671   0.2748   0.2839   0.2880   0.2925
  0.2971   0.3063   0.3085   0.3222   0.3240   0.3274   0.3385   0.3425
  0.3465   0.3509   0.3586   0.3665   0.3694   0.3722   0.3759   0.3853
  0.3877   0.3898   0.3940   0.4052   0.4143   0.4305   0.4327   0.4380
  0.4468   0.4548   0.4669   0.4750   0.4845   0.4901   0.5211   0.5409
  0.5473   0.5695   0.5755   0.5933   0.6013   0.6131   0.6192   0.6320
  0.6468   0.6515   0.6559   0.6654   0.6800   0.6944   0.6980   0.7047
  0.7122   0.7180   0.7326   0.7470   0.7685   0.7818   0.7861   0.7881
  0.8016   0.8253   0.8426   0.8523   0.8600   0.8763   0.8844   0.8993
  0.9089   0.9151   0.9273   0.9689   0.9882   0.9899   1.0137   1.0225
  1.0326   1.0502   1.0579   1.0629   1.0917   1.1009   1.1104   1.1242
  1.1277   1.1414   1.1443   1.1625   1.1742   1.1879   1.1989   1.2117
  1.2139   1.2249   1.2342   1.2477   1.2644   1.2723   1.2767   1.2909
  1.2931   1.3038   1.3224   1.3275   1.3447   1.3471   1.3681   1.3796
  1.3860   1.3973   1.4061   1.4143   1.4413   1.4495   1.4543   1.4798
  1.4956   1.5019   1.5278   1.5300   1.5380   1.5431   1.5618   1.5855
  1.6012   1.6141   1.6243   1.6272   1.6409   1.6574   1.6693   1.6934
  1.6988   1.7148   1.7296   1.7321   1.7667   1.7816   1.7934   1.8299
  1.8476   1.8683   1.9210   1.9421   1.9750   1.9786   1.9949   2.0396
  2.0452   2.0824   2.1283   2.1316   2.1744   2.1921   2.1999   2.2397
  2.2647   2.2830   2.3125   2.3515   2.3566   2.3648   2.3892   2.3951
  2.4336   2.4681   2.5032   2.5170   2.5462   2.5885   2.6196   2.6589
  2.6977   2.7225   2.7554   2.7788   2.8087   2.8150   2.8249   2.8350
  2.8523   2.8683   2.8902   2.9074   2.9373   2.9601   2.9755   3.0041
  3.0154   3.0242   3.0333   3.0679   3.1234   3.1630   3.1885   3.2212
  3.2259   3.2456   3.2547   3.2915   3.3027   3.3209   3.3467   3.3668
  3.3762   3.3900   3.3936   3.4173   3.4234   3.4645   3.4688   3.5114
  3.5273   3.5386   3.5492   3.5643   3.5697   3.6099   3.6191   3.6366
  3.6643   3.6952   3.7067   3.7198   3.7358   3.7475   3.7661   3.7798
  3.7978   3.8256   3.8287   3.8432   3.8631   3.8814   3.8901   3.9047
  3.9073   3.9169   3.9420   3.9445   4.0046   4.0495   4.0630   4.0968
  4.1125   4.1269   4.1417   4.1548   4.1808   4.1865   4.2257   4.2315
  4.2467   4.2490   4.2931   4.3237   4.3310   4.3518   4.3765   4.3848
  4.4102   4.4308   4.4481   4.4741   4.4942   4.5224   4.5285   4.5609
  4.6346   4.6512   4.6752   4.7238   4.7474   4.7558   4.7814   4.8271
  4.8474   4.8834   4.9269   4.9693   5.0871   5.1281   5.1801   5.1870
  5.2032   5.2179   5.2355   5.2387   5.2759   5.2787   5.2866   5.2963
  5.3056   5.3177   5.3213   5.3348   5.3564   5.3688   5.3762   5.3919
  5.4203   5.4333   5.4437   5.4507   5.4657   5.4871   5.5266   5.5437
  5.5629   5.5744   5.5811   5.5951   5.6225   5.6420   5.6501   5.6778
  5.6973   5.7109   5.7295   5.7588   5.7706   5.8104   5.8364   5.9262
  5.9658   5.9944   6.0200   6.0516   6.0865   6.1203   6.2166   6.3861
  6.4014   6.5443   6.5922   6.6706   6.7723   6.9103   6.9603   6.9804
  7.0592   7.0633   7.0756   7.1086   7.1172   7.1415   7.1961   7.2145
  7.2920   7.3070   7.3172   7.3252   7.3322   7.3386   7.3476   7.3820
  7.4055   7.4198   7.4588   7.4955   7.5421   7.6173   7.6379   7.6485
  7.7010   7.7477   7.7623   7.7984   7.8085   7.9166   7.9563   8.0464
  8.1194  24.4171  24.7720  24.8221  24.9615  25.2460  50.4487  50.5535
 50.6162  50.6219  50.6397  50.7921
 
 Beta MOs
 -- Occupied --
-19.4509 -19.4466 -19.3488 -19.3480 -19.3363 -19.3346 -10.4665 -10.4486
-10.3965 -10.3597 -10.3546  -1.3432  -1.2004  -1.1790  -1.1662  -1.1308
 -0.9972  -0.9268  -0.8607  -0.8070  -0.7390  -0.7157  -0.6722  -0.6503
 -0.6433  -0.6290  -0.6101  -0.5945  -0.5799  -0.5722  -0.5259  -0.5225
 -0.5108  -0.4981  -0.4910  -0.4743  -0.4493  -0.4416  -0.4273  -0.4230
 -0.3977  -0.3742  -0.3601
 -- Virtual --
 -0.0579   0.0265   0.0283   0.0347   0.0400   0.0519   0.0578   0.0609
  0.0752   0.0815   0.0860   0.1041   0.1090   0.1189   0.1254   0.1336
  0.1376   0.1448   0.1462   0.1563   0.1580   0.1644   0.1681   0.1762
  0.1778   0.1821   0.1909   0.1941   0.2038   0.2167   0.2180   0.2302
  0.2378   0.2429   0.2504   0.2605   0.2678   0.2757   0.2847   0.2888
  0.2948   0.2981   0.3068   0.3091   0.3230   0.3245   0.3296   0.3396
  0.3434   0.3471   0.3511   0.3589   0.3670   0.3696   0.3730   0.3769
  0.3858   0.3880   0.3906   0.3972   0.4066   0.4159   0.4315   0.4330
  0.4385   0.4474   0.4555   0.4686   0.4759   0.4847   0.4907   0.5219
  0.5418   0.5482   0.5699   0.5758   0.5935   0.6019   0.6140   0.6194
  0.6331   0.6471   0.6522   0.6563   0.6657   0.6804   0.6946   0.6983
  0.7062   0.7126   0.7184   0.7333   0.7476   0.7688   0.7822   0.7873
  0.7888   0.8022   0.8254   0.8429   0.8529   0.8607   0.8783   0.8847
  0.9002   0.9101   0.9160   0.9287   0.9700   0.9903   0.9968   1.0155
  1.0245   1.0340   1.0518   1.0588   1.0643   1.0925   1.1033   1.1136
  1.1247   1.1290   1.1426   1.1453   1.1677   1.1773   1.1895   1.2015
  1.2153   1.2180   1.2268   1.2358   1.2488   1.2691   1.2736   1.2785
  1.2942   1.3031   1.3058   1.3254   1.3329   1.3463   1.3487   1.3691
  1.3813   1.3873   1.3994   1.4095   1.4155   1.4446   1.4520   1.4578
  1.4824   1.4966   1.5035   1.5292   1.5319   1.5408   1.5451   1.5639
  1.5868   1.6033   1.6163   1.6272   1.6311   1.6440   1.6607   1.6758
  1.6952   1.7019   1.7174   1.7331   1.7353   1.7674   1.7849   1.7991
  1.8347   1.8510   1.8732   1.9241   1.9431   1.9796   1.9829   1.9983
  2.0415   2.0489   2.0894   2.1347   2.1408   2.1834   2.1947   2.2017
  2.2482   2.2651   2.2901   2.3158   2.3525   2.3611   2.3685   2.3912
  2.4012   2.4340   2.4689   2.5050   2.5185   2.5513   2.5897   2.6232
  2.6596   2.7005   2.7291   2.7566   2.7803   2.8098   2.8152   2.8257
  2.8355   2.8532   2.8688   2.8908   2.9077   2.9379   2.9605   2.9767
  3.0049   3.0158   3.0258   3.0337   3.0684   3.1236   3.1634   3.1889
  3.2215   3.2267   3.2458   3.2550   3.2926   3.3037   3.3211   3.3476
  3.3671   3.3774   3.3904   3.3942   3.4176   3.4241   3.4649   3.4692
  3.5120   3.5290   3.5394   3.5503   3.5647   3.5700   3.6105   3.6198
  3.6373   3.6646   3.6955   3.7071   3.7201   3.7366   3.7482   3.7666
  3.7805   3.7984   3.8262   3.8292   3.8437   3.8657   3.8818   3.8906
  3.9051   3.9077   3.9171   3.9424   3.9450   4.0057   4.0505   4.0637
  4.0972   4.1136   4.1285   4.1424   4.1570   4.1827   4.1875   4.2261
  4.2328   4.2480   4.2505   4.2938   4.3253   4.3313   4.3529   4.3770
  4.3883   4.4117   4.4321   4.4495   4.4762   4.4961   4.5239   4.5316
  4.5617   4.6378   4.6567   4.6907   4.7305   4.7556   4.7729   4.7924
  4.8411   4.8506   4.8855   4.9280   4.9819   5.0935   5.1763   5.1947
  5.2075   5.2141   5.2356   5.2482   5.2729   5.2827   5.2843   5.2920
  5.3071   5.3191   5.3244   5.3329   5.3489   5.3624   5.3782   5.3973
  5.3984   5.4299   5.4443   5.4473   5.4618   5.4852   5.4961   5.5285
  5.5475   5.5703   5.5763   5.5824   5.6141   5.6287   5.6488   5.6548
  5.6787   5.7014   5.7122   5.7307   5.7607   5.7746   5.8234   5.8387
  5.9263   5.9666   5.9947   6.0202   6.0522   6.0866   6.1206   6.2169
  6.3986   6.4440   6.5445   6.5925   6.6713   6.7738   6.9478   6.9939
  7.0160   7.0657   7.0682   7.1065   7.1249   7.1341   7.1661   7.2029
  7.2684   7.2947   7.3178   7.3212   7.3260   7.3324   7.3460   7.3589
  7.4115   7.4198   7.4254   7.4791   7.5112   7.5643   7.6215   7.6406
  7.6536   7.7101   7.7568   7.7627   7.7994   7.8098   7.9169   7.9615
  8.0641   8.1324  24.4172  24.7723  24.8220  24.9615  25.2461  50.4580
 50.5651  50.6162  50.6234  50.6402  50.7923
 --------------------------------------------------------------
 
          Ground-State Mulliken Net Atomic Charges

     Atom                 Charge (a.u.)    Spin (a.u.)
  --------------------------------------------------------
      1 O                    -0.446289       0.000798
      2 C                    -0.390382       0.019149
      3 C                     0.286177       0.000260
      4 O                    -0.515527       0.001448
      5 C                    -0.197624      -0.007547
      6 C                    -0.070458       0.014168
      7 C                    -0.367811      -0.002510
      8 O                    -0.445914      -0.000045
      9 O                    -0.458099      -0.000200
     10 H                     0.341408      -0.000068
     11 H                     0.225525       0.009369
     12 H                     0.215497       0.001626
     13 H                     0.298018      -0.000072
     14 H                     0.280026       0.000677
     15 H                     0.272488      -0.003818
     16 H                     0.348223       0.001677
     17 H                     0.332197      -0.000026
     18 O                     0.065537       0.619450
     19 O                    -0.100493       0.351498
     20 H                     0.327502      -0.005835
  --------------------------------------------------------
  Sum of atomic charges =    -0.000000
  Sum of spin   charges =     1.000000

 -----------------------------------------------------------------
                    Cartesian Multipole Moments
 -----------------------------------------------------------------
    Charge (ESU x 10^10)
                -0.0000
    Dipole Moment (Debye)
         X      -1.5602      Y      -2.4903      Z      -2.1991
       Tot       3.6704
    Quadrupole Moments (Debye-Ang)
        XX     -75.7702     XY     -16.6140     YY     -59.0696
        XZ     -13.0892     YZ      -4.8285     ZZ     -90.7565
    Octopole Moments (Debye-Ang^2)
       XXX    -717.0938    XXY    -207.8007    XYY    -219.7184
       YYY    -283.4765    XXZ    -166.5989    XYZ     -37.2778
       YYZ     -79.3302    XZZ    -327.7982    YZZ    -151.0269
       ZZZ    -373.0038
    Hexadecapole Moments (Debye-Ang^3)
      XXXX   -5291.7494   XXXY   -1777.8697   XXYY   -1281.6621
      XYYY   -1112.9173   YYYY   -1511.6050   XXXZ   -1486.6715
      XXYZ    -476.9721   XYYZ    -384.6501   YYYZ    -535.4231
      XXZZ   -1590.9057   XYZZ    -615.8320   YYZZ    -618.4508
      XZZZ   -1503.0582   YZZZ    -949.6182   ZZZZ   -2124.4757
 -----------------------------------------------------------------
 Calculating analytic gradient of the SCF energy
 Gradient of CDS energy
            1           2           3           4           5           6
    1  -0.0003075  -0.0003278  -0.0012639   0.0010103   0.0002097   0.0002923
    2   0.0005042  -0.0008059   0.0006631  -0.0006425  -0.0001940  -0.0000897
    3   0.0006123  -0.0008980   0.0013551  -0.0011505  -0.0001146   0.0000523
            7           8           9          10          11          12
    1   0.0019872   0.0002548  -0.0021728   0.0002319   0.0000600   0.0001772
    2   0.0029193   0.0000565  -0.0026438  -0.0003935  -0.0000658   0.0003367
    3   0.0007639  -0.0001425  -0.0006193  -0.0002751   0.0001939  -0.0000610
           13          14          15          16          17          18
    1   0.0000421   0.0001996  -0.0000823  -0.0002168   0.0000900  -0.0000721
    2  -0.0000312   0.0000761  -0.0001967  -0.0000852   0.0004925  -0.0000141
    3  -0.0000829   0.0000423  -0.0000596   0.0003277   0.0001187   0.0000081
           19          20
    1   0.0002081  -0.0003198
    2   0.0000026   0.0001115
    3  -0.0001670   0.0000960
 Gradient of SCF Energy
            1           2           3           4           5           6
    1  -0.0095950   0.0315428  -0.0074003  -0.0063400  -0.0125884  -0.0086176
    2   0.0133592   0.0441975  -0.0144548   0.0166379   0.0154517   0.0095672
    3  -0.0145207  -0.0123627  -0.0122328   0.0265037  -0.0071246   0.0031470
            7           8           9          10          11          12
    1   0.0067006   0.0027807   0.0093689   0.0092575  -0.0052431  -0.0047824
    2  -0.0030444  -0.0018581  -0.0090860  -0.0146449  -0.0061868   0.0176792
    3   0.0039254   0.0036695   0.0006942   0.0086409   0.0056521  -0.0018167
           13          14          15          16          17          18
    1   0.0058509   0.0023764  -0.0074811  -0.0034693  -0.0074039   0.0172036
    2  -0.0088181  -0.0016370   0.0011341   0.0007337   0.0084418  -0.0656411
    3  -0.0055140  -0.0005143  -0.0062115  -0.0027970  -0.0000751   0.0004517
           19          20
    1  -0.0182822   0.0061220
    2  -0.0000961  -0.0017353
    3   0.0215743  -0.0110893
 Max gradient component =       6.564E-02
 RMS gradient           =       1.454E-02
 Computing fast CPCM-SWIG gradient
 Updating gradient with PCM contributions...
 -- total gradient after adding PCM contribution --
---------------------------------------------------
  Atom         X              Y              Z     
---------------------------------------------------
   1       0.001981      -0.004465      -0.003056
   2       0.014668       0.037112      -0.009827
   3      -0.004536      -0.010183      -0.009456
   4      -0.004305       0.020873       0.019286
   5      -0.011970       0.006620      -0.009494
   6      -0.000334       0.003169       0.001365
   7      -0.000759       0.001884      -0.000898
   8      -0.000607      -0.002500      -0.002574
   9      -0.000035      -0.000706       0.000203
  10      -0.000308       0.000366      -0.000793
  11      -0.000725       0.003542       0.001901
  12       0.002836       0.012896       0.000005
  13      -0.000662       0.000326      -0.000547
  14       0.000159       0.000099       0.000509
  15      -0.002010      -0.002327      -0.002555
  16      -0.000444       0.000807       0.000703
  17      -0.000012       0.000024      -0.000081
  18       0.014662      -0.061171       0.002061
  19      -0.016227      -0.005611       0.028565
  20       0.008628      -0.000756      -0.015316
---------------------------------------------------
 Number of fixed atoms: 0
 Gradient time:  CPU 419.06 s  wall 33.71 s
 ----------------------------------------------------------------
             Standard Nuclear Orientation (Angstroms)
    I     Atom           X                Y                Z
 ----------------------------------------------------------------
    1      O       3.3134360000    -0.4231443000    -0.9960496000
    2      C       2.3489315000    -0.0816222000    -0.0210037000
    3      C       2.8658574000     0.7440000000     1.1372957000
    4      O       2.0753089000     1.1690272000     2.0554884000
    5      C       4.3204049000     0.9184994000     1.3035078000
    6      C       4.8634098000     1.9219705000     1.9907172000
    7      C       4.1038730000     3.0231800000     2.6775300000
    8      O       3.5336183000     2.5685578000     3.8961351000
    9      O       5.0269596000     4.0348888000     2.9836044000
   10      H       3.8203457000    -1.1796868000    -0.6826920000
   11      H       1.8680891000    -0.9671889000     0.4018547000
   12      H       1.5758585000     0.5100945000    -0.5101370000
   13      H       4.9612823000     0.1972485000     0.8168494000
   14      H       5.9426711000     1.9834128000     2.0745388000
   15      H       3.3127570000     3.4132702000     2.0337115000
   16      H       2.7994680000     1.9919530000     3.6342002000
   17      H       4.5326188000     4.8228986000     3.2370310000
   18      O       2.7358365000     2.0524003000    -0.1466432000
   19      O       1.6962826000     2.7161548000     0.3154288000
   20      H       1.5435167000     2.2064130000     1.1847591000
 ----------------------------------------------------------------
 Nuclear Repulsion Energy =         696.12240671 hartrees
 There are       44 alpha and       43 beta electrons
 Discretize the solute cavity surface with Lebedev spheres
	Using 110 Lebedev grid points for each H atom
	Using 194 Lebedev grid points for other atoms
	Atomic van der Waals radii will be scaled by 1.20
 Remove points where switching function is < 1.0e-08
 Keep 1503 surface tesserae and discard 1621 interior tesserae
 Molecular Surface Area = 166.976 Angst**2
 Requested basis set is 6-311++G(2df,2p)
 There are 142 shells and 464 basis functions
 A cutoff of  1.0D-11 yielded   8685 shell pairs
 There are     92237 function pairs (    114649 Cartesian)
 Smallest overlap matrix eigenvalue = 2.98E-06

 Q-Chem warning in module stvman/mkSTV.C, line 323:

 Overlap eigenvalue is smaller than square root of threshold
 Use THRESH >= 12 to get rid of this warning

 Guess MOs from SCF MO coefficient file

 -----------------------------------------------------------------------
  General SCF calculation program by
  Eric Jon Sundstrom, Paul Horn, Yuezhi Mao, Dmitri Zuev, Alec White,
  David Stuck, Shaama M.S., Shane Yost, Joonho Lee, David Small,
  Daniel Levine, Susi Lehtola, Hugh Burton, Evgeny Epifanovsky,
  Bang C. Huynh
 -----------------------------------------------------------------------
 Exchange:     0.1500 Hartree-Fock + 1.0000 wB97M-V + LR-HF
 Correlation:  1.0000 wB97M-V
 Using SG-2 standard quadrature grid
 Nonlocal Correlation:  VV10 with C = 0.0100 and b = 6.00 and scale = 1.00000
 Grid used for NLC:  SG-1 standard quadrature
 
 Citation of the SMD model:
 Marenich, A.V.; Cramer, C.J.; Truhlar, D.G.
 J. Phys. Chem. B 2009, 113, 6378-6396.
 iSolventCode=           1
 Solvent: water                                                           
 
 vradii
            1           2           3           4           5           6
    1   1.5200000   1.8500000   1.8500000   1.5200000   1.8500000   1.8500000
            7           8           9          10          11          12
    1   1.8500000   1.5200000   1.5200000   1.2000000   1.2000000   1.2000000
           13          14          15          16          17          18
    1   1.2000000   1.2000000   1.2000000   1.2000000   1.2000000   1.5200000
           19          20
    1   1.5200000   1.2000000
 -------------------------------------------------------
 OpenMP BLAS3 based DFT computing Module                
 Release: version 1.0, May 2013, Q-Chem Inc. Pittsburgh 
 -------------------------------------------------------
 A unrestricted SCF calculation will be
 performed using Roothaan-Hall, DIIS, GDM
 SCF converges when RMS gradient is below 1.0e-06
 ---------------------------------------
  Cycle       Energy         DIIS error
 ---------------------------------------
    1    -647.0883460558      2.03e-04  Roothaan Step
 ---------------------------------------
  Cycle       Energy         DIIS error
 ---------------------------------------
    1    -647.1252145931      2.31e-04  
    2    -647.1305640869      1.91e-04  Done DIIS. Switching to GDM
 ---------------------------------------
  Cycle       Energy        RMS Gradient
 ---------------------------------------
    1    -647.1305640869      9.19e-03   Normal BFGS step
    2    -647.1302658114      1.39e-02  Line search: overstep
    3    -647.1332068138      2.51e-03   Normal BFGS step
    4    -647.1333488490      2.05e-03   Normal BFGS step
    5    -647.1333828492      1.41e-03   Normal BFGS step
    6    -647.1333954430      1.67e-04   Normal BFGS step
    7    -647.1333961120      1.91e-04   Normal BFGS step
    8    -647.1333964614      7.67e-05   Normal BFGS step
    9    -647.1333965085      4.67e-05   Normal BFGS step
   10    -647.1333965320      2.82e-05   Normal BFGS step
   11    -647.1333965402      1.97e-05   Normal BFGS step
   12    -647.1333965423      1.28e-05   Normal BFGS step
   13    -647.1333965434      7.27e-06   Normal BFGS step
   14    -647.1333965438      4.37e-06   Normal BFGS step
   15    -647.1333965441      2.65e-06   Normal BFGS step
   16    -647.1333965443      1.10e-06   Normal BFGS step
   17    -647.1333965439      4.55e-07  Convergence criterion met
 ---------------------------------------
 SCF time:   CPU 2797.32s  wall 193.00s 
<S^2> =          0.754734371
(3)  G-ENP(liq) elect-nuc-pol free energy of system     -647.133396544 a.u.
(4)  G-CDS(liq) cavity-dispersion-solvent structure 
     free energy                                                3.7674 kcal/mol
(6)  G-S(liq) free energy of system                     -647.127392742 a.u.
 SCF   energy in the final basis set =     -647.1273927417
 Total energy in the final basis set =     -647.1273927417
 
 --------------------------------------------------------------
 
                    Orbital Energies (a.u.)
 --------------------------------------------------------------
 
 Alpha MOs
 -- Occupied --
-19.4655 -19.4614 -19.3488 -19.3480 -19.3364 -19.3346 -10.4664 -10.4486
-10.3967 -10.3598 -10.3548  -1.3700  -1.2005  -1.1800  -1.1666  -1.1309
 -1.0307  -0.9299  -0.8657  -0.8077  -0.7422  -0.7245  -0.6748  -0.6546
 -0.6461  -0.6411  -0.6296  -0.6223  -0.5870  -0.5815  -0.5426  -0.5266
 -0.5126  -0.5010  -0.4924  -0.4769  -0.4597  -0.4533  -0.4302  -0.4270
 -0.4236  -0.3927  -0.3708  -0.3641
 -- Virtual --
  0.0253   0.0269   0.0345   0.0400   0.0517   0.0573   0.0608   0.0748
  0.0808   0.0857   0.1039   0.1088   0.1180   0.1250   0.1328   0.1374
  0.1443   0.1460   0.1555   0.1576   0.1618   0.1667   0.1750   0.1776
  0.1819   0.1890   0.1930   0.1995   0.2122   0.2179   0.2292   0.2375
  0.2418   0.2494   0.2603   0.2671   0.2749   0.2839   0.2881   0.2925
  0.2972   0.3063   0.3085   0.3221   0.3240   0.3274   0.3385   0.3426
  0.3464   0.3509   0.3586   0.3665   0.3694   0.3721   0.3759   0.3853
  0.3877   0.3899   0.3940   0.4052   0.4143   0.4305   0.4327   0.4380
  0.4468   0.4548   0.4669   0.4750   0.4847   0.4902   0.5212   0.5410
  0.5473   0.5696   0.5755   0.5933   0.6014   0.6131   0.6191   0.6320
  0.6467   0.6515   0.6559   0.6654   0.6800   0.6945   0.6980   0.7046
  0.7122   0.7180   0.7326   0.7471   0.7685   0.7818   0.7860   0.7881
  0.8016   0.8253   0.8426   0.8523   0.8600   0.8763   0.8845   0.8993
  0.9088   0.9151   0.9273   0.9689   0.9882   0.9899   1.0138   1.0225
  1.0326   1.0502   1.0579   1.0629   1.0917   1.1010   1.1104   1.1243
  1.1277   1.1414   1.1443   1.1625   1.1742   1.1879   1.1989   1.2117
  1.2138   1.2249   1.2342   1.2477   1.2644   1.2723   1.2767   1.2910
  1.2932   1.3038   1.3225   1.3274   1.3447   1.3472   1.3682   1.3796
  1.3860   1.3973   1.4063   1.4143   1.4413   1.4495   1.4543   1.4796
  1.4956   1.5019   1.5278   1.5299   1.5380   1.5431   1.5616   1.5855
  1.6012   1.6140   1.6243   1.6271   1.6410   1.6573   1.6694   1.6933
  1.6988   1.7148   1.7296   1.7322   1.7667   1.7816   1.7936   1.8299
  1.8476   1.8683   1.9211   1.9421   1.9751   1.9787   1.9951   2.0395
  2.0454   2.0825   2.1284   2.1317   2.1746   2.1921   2.1999   2.2398
  2.2647   2.2832   2.3126   2.3515   2.3566   2.3650   2.3896   2.3959
  2.4336   2.4682   2.5032   2.5171   2.5463   2.5885   2.6196   2.6589
  2.6978   2.7225   2.7554   2.7789   2.8089   2.8151   2.8249   2.8349
  2.8522   2.8683   2.8902   2.9074   2.9373   2.9602   2.9755   3.0041
  3.0155   3.0242   3.0333   3.0680   3.1237   3.1630   3.1887   3.2212
  3.2259   3.2457   3.2547   3.2915   3.3029   3.3209   3.3468   3.3669
  3.3763   3.3900   3.3939   3.4174   3.4234   3.4645   3.4688   3.5114
  3.5273   3.5387   3.5492   3.5644   3.5698   3.6099   3.6191   3.6365
  3.6644   3.6952   3.7067   3.7198   3.7359   3.7475   3.7662   3.7800
  3.7980   3.8257   3.8288   3.8433   3.8631   3.8814   3.8901   3.9047
  3.9074   3.9169   3.9420   3.9445   4.0046   4.0496   4.0630   4.0968
  4.1124   4.1269   4.1418   4.1548   4.1808   4.1866   4.2257   4.2314
  4.2467   4.2489   4.2929   4.3235   4.3304   4.3518   4.3764   4.3849
  4.4101   4.4307   4.4481   4.4743   4.4941   4.5223   4.5286   4.5608
  4.6347   4.6513   4.6752   4.7238   4.7475   4.7558   4.7814   4.8271
  4.8475   4.8832   4.9269   4.9694   5.0871   5.1281   5.1801   5.1870
  5.2032   5.2179   5.2356   5.2387   5.2763   5.2788   5.2865   5.2962
  5.3055   5.3178   5.3214   5.3347   5.3564   5.3688   5.3760   5.3919
  5.4203   5.4334   5.4437   5.4508   5.4657   5.4872   5.5266   5.5437
  5.5629   5.5744   5.5811   5.5952   5.6226   5.6420   5.6501   5.6769
  5.6973   5.7110   5.7295   5.7587   5.7704   5.8104   5.8365   5.9263
  5.9686   5.9944   6.0201   6.0529   6.0865   6.1204   6.2166   6.3861
  6.4014   6.5447   6.5938   6.6731   6.7723   6.9103   6.9603   6.9804
  7.0592   7.0632   7.0756   7.1087   7.1171   7.1415   7.1962   7.2147
  7.2920   7.3069   7.3132   7.3250   7.3322   7.3386   7.3476   7.3822
  7.4054   7.4198   7.4592   7.4956   7.5421   7.6173   7.6380   7.6485
  7.7016   7.7479   7.7623   7.7983   7.8084   7.9166   7.9563   8.0464
  8.1194  24.4171  24.7741  24.8221  24.9616  25.2460  50.4488  50.5534
 50.6162  50.6220  50.6397  50.7921
 
 Beta MOs
 -- Occupied --
-19.4509 -19.4466 -19.3488 -19.3480 -19.3362 -19.3345 -10.4665 -10.4486
-10.3964 -10.3597 -10.3546  -1.3432  -1.2004  -1.1790  -1.1663  -1.1308
 -0.9972  -0.9268  -0.8606  -0.8069  -0.7390  -0.7157  -0.6722  -0.6503
 -0.6433  -0.6290  -0.6102  -0.5945  -0.5799  -0.5722  -0.5259  -0.5225
 -0.5108  -0.4981  -0.4910  -0.4742  -0.4493  -0.4417  -0.4273  -0.4229
 -0.3976  -0.3742  -0.3601
 -- Virtual --
 -0.0579   0.0265   0.0283   0.0347   0.0400   0.0519   0.0578   0.0609
  0.0752   0.0815   0.0860   0.1041   0.1090   0.1189   0.1254   0.1336
  0.1376   0.1448   0.1462   0.1563   0.1580   0.1644   0.1681   0.1762
  0.1778   0.1821   0.1909   0.1941   0.2038   0.2167   0.2180   0.2302
  0.2378   0.2430   0.2504   0.2606   0.2678   0.2757   0.2848   0.2888
  0.2948   0.2982   0.3068   0.3091   0.3230   0.3245   0.3297   0.3397
  0.3434   0.3471   0.3511   0.3589   0.3670   0.3696   0.3729   0.3769
  0.3858   0.3880   0.3907   0.3972   0.4066   0.4159   0.4315   0.4330
  0.4385   0.4474   0.4555   0.4687   0.4759   0.4849   0.4908   0.5219
  0.5418   0.5483   0.5699   0.5758   0.5935   0.6020   0.6140   0.6193
  0.6332   0.6470   0.6522   0.6563   0.6657   0.6804   0.6946   0.6984
  0.7062   0.7126   0.7184   0.7333   0.7477   0.7688   0.7822   0.7873
  0.7888   0.8022   0.8254   0.8429   0.8529   0.8607   0.8783   0.8847
  0.9003   0.9100   0.9160   0.9287   0.9700   0.9903   0.9968   1.0157
  1.0245   1.0340   1.0518   1.0588   1.0643   1.0924   1.1033   1.1137
  1.1248   1.1290   1.1427   1.1453   1.1677   1.1773   1.1895   1.2015
  1.2153   1.2181   1.2268   1.2359   1.2489   1.2691   1.2736   1.2785
  1.2943   1.3032   1.3058   1.3255   1.3328   1.3463   1.3488   1.3692
  1.3813   1.3873   1.3994   1.4097   1.4155   1.4445   1.4520   1.4578
  1.4823   1.4966   1.5036   1.5292   1.5319   1.5408   1.5451   1.5637
  1.5868   1.6034   1.6162   1.6272   1.6310   1.6440   1.6606   1.6759
  1.6951   1.7019   1.7174   1.7330   1.7353   1.7675   1.7849   1.7993
  1.8347   1.8510   1.8733   1.9241   1.9431   1.9796   1.9829   1.9985
  2.0414   2.0491   2.0895   2.1348   2.1409   2.1837   2.1947   2.2018
  2.2483   2.2651   2.2903   2.3160   2.3525   2.3610   2.3688   2.3917
  2.4018   2.4340   2.4690   2.5050   2.5187   2.5513   2.5897   2.6232
  2.6597   2.7005   2.7291   2.7565   2.7804   2.8100   2.8154   2.8257
  2.8355   2.8531   2.8688   2.8908   2.9077   2.9379   2.9606   2.9767
  3.0048   3.0159   3.0258   3.0337   3.0685   3.1238   3.1635   3.1891
  3.2215   3.2267   3.2459   3.2550   3.2926   3.3039   3.3212   3.3477
  3.3672   3.3775   3.3905   3.3945   3.4177   3.4241   3.4649   3.4692
  3.5120   3.5290   3.5395   3.5504   3.5648   3.5702   3.6105   3.6198
  3.6373   3.6647   3.6955   3.7071   3.7201   3.7366   3.7482   3.7666
  3.7807   3.7985   3.8263   3.8292   3.8437   3.8656   3.8817   3.8905
  3.9051   3.9078   3.9171   3.9424   3.9450   4.0057   4.0505   4.0636
  4.0972   4.1136   4.1285   4.1425   4.1570   4.1827   4.1876   4.2261
  4.2326   4.2480   4.2504   4.2937   4.3250   4.3308   4.3529   4.3769
  4.3884   4.4116   4.4320   4.4495   4.4764   4.4961   4.5239   4.5317
  4.5617   4.6378   4.6568   4.6907   4.7305   4.7556   4.7729   4.7924
  4.8411   4.8506   4.8853   4.9280   4.9819   5.0934   5.1763   5.1948
  5.2075   5.2141   5.2356   5.2483   5.2732   5.2828   5.2843   5.2920
  5.3070   5.3191   5.3245   5.3328   5.3490   5.3624   5.3782   5.3972
  5.3984   5.4299   5.4443   5.4473   5.4619   5.4852   5.4962   5.5286
  5.5476   5.5705   5.5763   5.5824   5.6141   5.6287   5.6488   5.6548
  5.6778   5.7014   5.7123   5.7307   5.7606   5.7745   5.8234   5.8388
  5.9264   5.9694   5.9947   6.0203   6.0535   6.0866   6.1207   6.2170
  6.3986   6.4440   6.5449   6.5941   6.6738   6.7738   6.9479   6.9939
  7.0160   7.0657   7.0682   7.1065   7.1250   7.1341   7.1661   7.2029
  7.2684   7.2947   7.3138   7.3213   7.3257   7.3324   7.3460   7.3589
  7.4116   7.4198   7.4254   7.4794   7.5113   7.5644   7.6215   7.6406
  7.6536   7.7106   7.7571   7.7627   7.7994   7.8096   7.9169   7.9615
  8.0641   8.1324  24.4172  24.7744  24.8221  24.9615  25.2461  50.4580
 50.5650  50.6162  50.6234  50.6403  50.7923
 --------------------------------------------------------------
 
          Ground-State Mulliken Net Atomic Charges

     Atom                 Charge (a.u.)    Spin (a.u.)
  --------------------------------------------------------
      1 O                    -0.446159       0.000806
      2 C                    -0.390482       0.019156
      3 C                     0.286355       0.000284
      4 O                    -0.515584       0.001452
      5 C                    -0.197721      -0.007574
      6 C                    -0.070280       0.014180
      7 C                    -0.367837      -0.002516
      8 O                    -0.445919      -0.000045
      9 O                    -0.458097      -0.000200
     10 H                     0.341736      -0.000071
     11 H                     0.225293       0.009375
     12 H                     0.215349       0.001627
     13 H                     0.297947      -0.000073
     14 H                     0.280033       0.000678
     15 H                     0.272486      -0.003818
     16 H                     0.348223       0.001678
     17 H                     0.332196      -0.000026
     18 O                     0.065481       0.619448
     19 O                    -0.100503       0.351475
     20 H                     0.327483      -0.005835
  --------------------------------------------------------
  Sum of atomic charges =    -0.000000
  Sum of spin   charges =     1.000000

 -----------------------------------------------------------------
                    Cartesian Multipole Moments
 -----------------------------------------------------------------
    Charge (ESU x 10^10)
                -0.0000
    Dipole Moment (Debye)
         X      -1.5512      Y      -2.4917      Z      -2.2022
       Tot       3.6694
    Quadrupole Moments (Debye-Ang)
        XX     -75.7169     XY     -16.6205     YY     -59.0724
        XZ     -13.1024     YZ      -4.8272     ZZ     -90.7562
    Octopole Moments (Debye-Ang^2)
       XXX    -716.8082    XXY    -207.8293    XYY    -219.7091
       YYY    -283.4811    XXZ    -166.6581    XYZ     -37.2717
       YYZ     -79.3331    XZZ    -327.7766    YZZ    -151.0295
       ZZZ    -373.0131
    Hexadecapole Moments (Debye-Ang^3)
      XXXX   -5290.2075   XXXY   -1778.0023   XXYY   -1281.5828
      XYYY   -1112.9404   YYYY   -1511.6299   XXXZ   -1486.9630
      XXYZ    -476.9457   XYYZ    -384.6694   YYYZ    -535.4236
      XXZZ   -1590.7714   XYZZ    -615.8474   YYZZ    -618.4550
      XZZZ   -1503.1241   YZZZ    -949.6185   ZZZZ   -2124.4776
 -----------------------------------------------------------------
 Calculating analytic gradient of the SCF energy
 Gradient of CDS energy
            1           2           3           4           5           6
    1  -0.0004809  -0.0001544  -0.0012640   0.0010103   0.0002097   0.0002923
    2   0.0005661  -0.0008680   0.0006630  -0.0006425  -0.0001940  -0.0000897
    3   0.0007868  -0.0010718   0.0013550  -0.0011505  -0.0001146   0.0000524
            7           8           9          10          11          12
    1   0.0019872   0.0002548  -0.0021728   0.0002317   0.0000600   0.0001775
    2   0.0029193   0.0000565  -0.0026438  -0.0003931  -0.0000658   0.0003366
    3   0.0007639  -0.0001425  -0.0006193  -0.0002748   0.0001939  -0.0000621
           13          14          15          16          17          18
    1   0.0000421   0.0001996  -0.0000823  -0.0002168   0.0000900  -0.0000722
    2  -0.0000311   0.0000761  -0.0001967  -0.0000852   0.0004925  -0.0000141
    3  -0.0000827   0.0000423  -0.0000596   0.0003277   0.0001187   0.0000082
           19          20
    1   0.0002081  -0.0003198
    2   0.0000026   0.0001115
    3  -0.0001670   0.0000960
 Gradient of SCF Energy
            1           2           3           4           5           6
    1  -0.0111042   0.0322657  -0.0074140  -0.0063403  -0.0125863  -0.0086307
    2   0.0144280   0.0440281  -0.0144581   0.0166310   0.0154493   0.0095845
    3  -0.0141466  -0.0128873  -0.0122401   0.0264909  -0.0071105   0.0031566
            7           8           9          10          11          12
    1   0.0066996   0.0027757   0.0093673   0.0098555  -0.0051530  -0.0046805
    2  -0.0030439  -0.0018611  -0.0090846  -0.0154800  -0.0062039   0.0176311
    3   0.0039217   0.0036690   0.0006948   0.0089821   0.0055573  -0.0019124
           13          14          15          16          17          18
    1   0.0058583   0.0023815  -0.0074784  -0.0034639  -0.0074028   0.0172034
    2  -0.0088264  -0.0016387   0.0011341   0.0007371   0.0084413  -0.0656319
    3  -0.0055207  -0.0005152  -0.0062103  -0.0027943  -0.0000753   0.0004588
           19          20
    1  -0.0182780   0.0061252
    2  -0.0001050  -0.0017309
    3   0.0215724  -0.0110912
 Max gradient component =       6.563E-02
 RMS gradient           =       1.461E-02
 Computing fast CPCM-SWIG gradient
 Updating gradient with PCM contributions...
 -- total gradient after adding PCM contribution --
---------------------------------------------------
  Atom         X              Y              Z     
---------------------------------------------------
   1       0.000546      -0.003404      -0.002694
   2       0.015416       0.036952      -0.010355
   3      -0.004554      -0.010189      -0.009463
   4      -0.004303       0.020870       0.019278
   5      -0.011960       0.006611      -0.009491
   6      -0.000342       0.003172       0.001367
   7      -0.000757       0.001885      -0.000899
   8      -0.000607      -0.002501      -0.002575
   9      -0.000036      -0.000705       0.000203
  10       0.000245      -0.000465      -0.000450
  11      -0.000654       0.003515       0.001821
  12       0.002917       0.012858      -0.000091
  13      -0.000668       0.000332      -0.000540
  14       0.000159       0.000097       0.000509
  15      -0.002010      -0.002326      -0.002554
  16      -0.000443       0.000808       0.000704
  17      -0.000012       0.000024      -0.000080
  18       0.014662      -0.061167       0.002064
  19      -0.016223      -0.005613       0.028561
  20       0.008626      -0.000756      -0.015315
---------------------------------------------------
 Number of fixed atoms: 0
 Gradient time:  CPU 410.12 s  wall 34.36 s
 ----------------------------------------------------------------
             Standard Nuclear Orientation (Angstroms)
    I     Atom           X                Y                Z
 ----------------------------------------------------------------
    1      O       3.3144360000    -0.4221443000    -0.9960496000
    2      C       2.3489315000    -0.0816222000    -0.0210037000
    3      C       2.8658574000     0.7440000000     1.1372957000
    4      O       2.0753089000     1.1690272000     2.0554884000
    5      C       4.3204049000     0.9184994000     1.3035078000
    6      C       4.8634098000     1.9219705000     1.9907172000
    7      C       4.1038730000     3.0231800000     2.6775300000
    8      O       3.5336183000     2.5685578000     3.8961351000
    9      O       5.0269596000     4.0348888000     2.9836044000
   10      H       3.8203457000    -1.1796868000    -0.6826920000
   11      H       1.8680891000    -0.9671889000     0.4018547000
   12      H       1.5758585000     0.5100945000    -0.5101370000
   13      H       4.9612823000     0.1972485000     0.8168494000
   14      H       5.9426711000     1.9834128000     2.0745388000
   15      H       3.3127570000     3.4132702000     2.0337115000
   16      H       2.7994680000     1.9919530000     3.6342002000
   17      H       4.5326188000     4.8228986000     3.2370310000
   18      O       2.7358365000     2.0524003000    -0.1466432000
   19      O       1.6962826000     2.7161548000     0.3154288000
   20      H       1.5435167000     2.2064130000     1.1847591000
 ----------------------------------------------------------------
 Nuclear Repulsion Energy =         696.12744574 hartrees
 There are       44 alpha and       43 beta electrons
 Discretize the solute cavity surface with Lebedev spheres
	Using 110 Lebedev grid points for each H atom
	Using 194 Lebedev grid points for other atoms
	Atomic van der Waals radii will be scaled by 1.20
 Remove points where switching function is < 1.0e-08
 Keep 1503 surface tesserae and discard 1621 interior tesserae
 Molecular Surface Area = 166.976 Angst**2
 Requested basis set is 6-311++G(2df,2p)
 There are 142 shells and 464 basis functions
 A cutoff of  1.0D-11 yielded   8685 shell pairs
 There are     92237 function pairs (    114649 Cartesian)
 Smallest overlap matrix eigenvalue = 2.99E-06

 Q-Chem warning in module stvman/mkSTV.C, line 323:

 Overlap eigenvalue is smaller than square root of threshold
 Use THRESH >= 12 to get rid of this warning

 Guess MOs from SCF MO coefficient file

 -----------------------------------------------------------------------
  General SCF calculation program by
  Eric Jon Sundstrom, Paul Horn, Yuezhi Mao, Dmitri Zuev, Alec White,
  David Stuck, Shaama M.S., Shane Yost, Joonho Lee, David Small,
  Daniel Levine, Susi Lehtola, Hugh Burton, Evgeny Epifanovsky,
  Bang C. Huynh
 -----------------------------------------------------------------------
 Exchange:     0.1500 Hartree-Fock + 1.0000 wB97M-V + LR-HF
 Correlation:  1.0000 wB97M-V
 Using SG-2 standard quadrature grid
 Nonlocal Correlation:  VV10 with C = 0.0100 and b = 6.00 and scale = 1.00000
 Grid used for NLC:  SG-1 standard quadrature
 
 Citation of the SMD model:
 Marenich, A.V.; Cramer, C.J.; Truhlar, D.G.
 J. Phys. Chem. B 2009, 113, 6378-6396.
 iSolventCode=           1
 Solvent: water                                                           
 
 vradii
            1           2           3           4           5           6
    1   1.5200000   1.8500000   1.8500000   1.5200000   1.8500000   1.8500000
            7           8           9          10          11          12
    1   1.8500000   1.5200000   1.5200000   1.2000000   1.2000000   1.2000000
           13          14          15          16          17          18
    1   1.2000000   1.2000000   1.2000000   1.2000000   1.2000000   1.5200000
           19          20
    1   1.5200000   1.2000000
 -------------------------------------------------------
 OpenMP BLAS3 based DFT computing Module                
 Release: version 1.0, May 2013, Q-Chem Inc. Pittsburgh 
 -------------------------------------------------------
 A unrestricted SCF calculation will be
 performed using Roothaan-Hall, DIIS, GDM
 SCF converges when RMS gradient is below 1.0e-06
 ---------------------------------------
  Cycle       Energy         DIIS error
 ---------------------------------------
    1    -647.0883497971      2.03e-04  Roothaan Step
 ---------------------------------------
  Cycle       Energy         DIIS error
 ---------------------------------------
    1    -647.1252158261      2.31e-04  
    2    -647.1305692656      1.91e-04  Done DIIS. Switching to GDM
 ---------------------------------------
  Cycle       Energy        RMS Gradient
 ---------------------------------------
    1    -647.1305692656      9.18e-03   Normal BFGS step
    2    -647.1302708819      1.39e-02  Line search: overstep
    3    -647.1332118138      2.51e-03   Normal BFGS step
    4    -647.1333539887      2.04e-03   Normal BFGS step
    5    -647.1333880181      1.41e-03   Normal BFGS step
    6    -647.1334006213      1.67e-04   Normal BFGS step
    7    -647.1334012910      1.91e-04   Normal BFGS step
    8    -647.1334016400      7.63e-05   Normal BFGS step
    9    -647.1334016866      4.66e-05   Normal BFGS step
   10    -647.1334017096      2.66e-05   Normal BFGS step
   11    -647.1334017173      1.89e-05   Normal BFGS step
   12    -647.1334017194      1.24e-05   Normal BFGS step
   13    -647.1334017203      7.27e-06   Normal BFGS step
   14    -647.1334017207      4.33e-06   Normal BFGS step
   15    -647.1334017210      2.59e-06   Normal BFGS step
   16    -647.1334017212      1.09e-06   Normal BFGS step
   17    -647.1334017208      4.62e-07  Convergence criterion met
 ---------------------------------------
 SCF time:   CPU 2802.80s  wall 194.00s 
<S^2> =          0.754734341
(3)  G-ENP(liq) elect-nuc-pol free energy of system     -647.133401721 a.u.
(4)  G-CDS(liq) cavity-dispersion-solvent structure 
     free energy                                                3.7676 kcal/mol
(6)  G-S(liq) free energy of system                     -647.127397723 a.u.
 SCF   energy in the final basis set =     -647.1273977226
 Total energy in the final basis set =     -647.1273977226
 
 --------------------------------------------------------------
 
                    Orbital Energies (a.u.)
 --------------------------------------------------------------
 
 Alpha MOs
 -- Occupied --
-19.4655 -19.4614 -19.3489 -19.3480 -19.3363 -19.3346 -10.4664 -10.4486
-10.3968 -10.3598 -10.3547  -1.3700  -1.2005  -1.1800  -1.1665  -1.1309
 -1.0307  -0.9299  -0.8657  -0.8077  -0.7422  -0.7245  -0.6747  -0.6546
 -0.6461  -0.6411  -0.6296  -0.6223  -0.5870  -0.5815  -0.5426  -0.5265
 -0.5126  -0.5010  -0.4924  -0.4769  -0.4597  -0.4533  -0.4303  -0.4270
 -0.4236  -0.3927  -0.3708  -0.3641
 -- Virtual --
  0.0253   0.0269   0.0345   0.0400   0.0517   0.0573   0.0608   0.0748
  0.0808   0.0857   0.1039   0.1088   0.1180   0.1250   0.1328   0.1374
  0.1443   0.1460   0.1555   0.1576   0.1618   0.1667   0.1750   0.1776
  0.1819   0.1890   0.1930   0.1995   0.2122   0.2179   0.2292   0.2375
[...]
    1   0.0001691  -0.0002956
    2   0.0000197   0.0001111
    3  -0.0001599   0.0000852
 Gradient of SCF Energy
            1           2           3           4           5           6
    1  -0.0165167   0.0091567  -0.0034158  -0.0014570   0.0009691  -0.0111191
    2   0.0141120   0.0082953   0.0048333  -0.0062588   0.0029179   0.0099639
    3  -0.0096880  -0.0083990  -0.0058925   0.0041581   0.0082887   0.0016370
            7           8           9          10          11          12
    1   0.0069972   0.0055786   0.0085539   0.0142297   0.0007609  -0.0078984
    2  -0.0072745   0.0019363  -0.0092543  -0.0118173  -0.0108658   0.0012241
    3   0.0059795   0.0065900  -0.0004277   0.0082677   0.0068634  -0.0002143
           13          14          15          16          17          18
    1   0.0083246   0.0041185  -0.0062674  -0.0050434  -0.0067785   0.0020876
    2  -0.0107050  -0.0019998   0.0034831  -0.0017611   0.0093405  -0.0014716
    3  -0.0057524  -0.0007314  -0.0050027  -0.0042977   0.0008965  -0.0008785
           19          20
    1  -0.0011309  -0.0011494
    2   0.0026963   0.0026055
    3  -0.0036380   0.0022413
 Max gradient component =       1.652E-02
 RMS gradient           =       6.800E-03
 Computing fast CPCM-SWIG gradient
 Updating gradient with PCM contributions...
 -- total gradient after adding PCM contribution --
---------------------------------------------------
  Atom         X              Y              Z     
---------------------------------------------------
   1      -0.000017       0.000002       0.000000
   2       0.000029       0.000028      -0.000063
   3      -0.000010      -0.000092       0.000111
   4      -0.000012       0.000100      -0.000045
   5       0.000005      -0.000005      -0.000028
   6      -0.000003      -0.000013       0.000016
   7       0.000001       0.000005      -0.000005
   8       0.000018       0.000003       0.000008
   9       0.000016      -0.000010       0.000006
  10      -0.000015      -0.000015       0.000009
  11      -0.000010       0.000001      -0.000001
  12      -0.000014       0.000007       0.000005
  13      -0.000009      -0.000009       0.000002
  14      -0.000000      -0.000018       0.000006
  15       0.000010      -0.000002      -0.000012
  16      -0.000012       0.000015      -0.000006
  17       0.000020      -0.000006      -0.000006
  18       0.000046      -0.000004      -0.000016
  19       0.000030       0.000107      -0.000142
  20      -0.000073      -0.000093       0.000159
---------------------------------------------------
 Number of fixed atoms: 0
 Gradient time:  CPU 461.63 s  wall 37.19 s
 Geometry Optimization Parameters
   NAtoms,    NIC,     NZ,  NCons,   NDum,   NFix, NCnnct, MaxDiis
       20     126       0       0       0       0       0       0

 Cartesian Hessian Update
 Hessian updated using Powell/Murtagh-Sargent update
  Mixing factors:     0.994580 Powell                      0.005420 Murtagh-Sargent


** GEOMETRY OPTIMIZATION IN DELOCALIZED INTERNAL COORDINATES **
   Searching for a Transition State

   Optimization Cycle:  48

                       Coordinates (Angstroms)
     ATOM                X               Y               Z
      1  O         3.1673488494   -0.4725215774   -1.0568733848
      2  C         2.3666860547   -0.2584387942    0.0894298439
      3  C         2.8383904479    0.8906443301    0.9486075881
      4  O         1.9738820930    1.3671341673    1.7859981795
      5  C         4.2862417414    1.0010956972    1.2218697178
      6  C         4.8484719131    1.9137090128    2.0088180397
      7  C         4.1359538968    3.0216577355    2.7360566688
      8  O         3.4778742489    2.5342882221    3.8975862431
      9  O         5.1169683039    3.9355996550    3.1510800769
     10  H         3.8905038961   -1.0656290127   -0.8305404046
     11  H         2.3370204806   -1.1432614651    0.7310006133
     12  H         1.3501248596   -0.0411184738   -0.2341446741
     13  H         4.9142384858    0.2612966446    0.7437504386
     14  H         5.9203952122    1.8778349323    2.1676846301
     15  H         3.4086124939    3.5178037280    2.0915001325
     16  H         2.7200708808    2.0244315813    3.5745166206
     17  H         4.6717536730    4.7375832262    3.4482054743
     18  O         2.6207309379    2.2767851841   -0.3731933682
     19  O         1.6617653276    2.9526079298    0.1403217557
     20  H         1.5344919034    2.2908244771    1.1444524088
   Point Group: c1    Number of degrees of freedom:    54


   Energy is   -647.155064031

 Hessian updated using Powell/Murtagh-Sargent update
  Mixing factors:     0.993646 Powell                      0.006354 Murtagh-Sargent

 54 Hessian modes will be used to form the next step
  Hessian Eigenvalues:
    -0.069247    0.001942    0.003299    0.004588    0.004988    0.006887
     0.009828    0.017978    0.024667    0.033350    0.042912    0.047860
     0.058893    0.068217    0.069889    0.083360    0.105239    0.108747
     0.109603    0.112217    0.117055    0.123537    0.142011    0.153270
     0.156626    0.163267    0.167495    0.175503    0.186093    0.196640
     0.210918    0.226846    0.236777    0.282564    0.309951    0.313943
     0.328825    0.331326    0.336196    0.340706    0.355038    0.360244
     0.367137    0.413962    0.471969    0.498751    0.509013    0.525949
     0.528997    0.532078    0.556718    0.590074    0.907564    1.069851

 Transition state search - taking P-RFO step
 Searching for Lamda that Maximizes Along the Lowest mode
 Value Taken    Lamda =   0.00000003
 Searching for Lamda that Minimizes Along All other modes
 Value Taken    Lamda =  -0.00000042
 Step Taken.  Stepsize is  0.004512

                             Maximum     Tolerance    Cnvgd?
         Gradient           0.000124      0.000300     YES
         Displacement       0.001768      0.001200      NO
         Energy change     -0.000000      0.000001     YES

 Final energy is   -647.155064031019     


 ******************************
 **  OPTIMIZATION CONVERGED  **
 ******************************

                       Coordinates (Angstroms)
     ATOM                X               Y               Z
      1  O         3.1673488494   -0.4725215774   -1.0568733848
      2  C         2.3666860547   -0.2584387942    0.0894298439
      3  C         2.8383904479    0.8906443301    0.9486075881
      4  O         1.9738820930    1.3671341673    1.7859981795
      5  C         4.2862417414    1.0010956972    1.2218697178
      6  C         4.8484719131    1.9137090128    2.0088180397
      7  C         4.1359538968    3.0216577355    2.7360566688
      8  O         3.4778742489    2.5342882221    3.8975862431
      9  O         5.1169683039    3.9355996550    3.1510800769
     10  H         3.8905038961   -1.0656290127   -0.8305404046
     11  H         2.3370204806   -1.1432614651    0.7310006133
     12  H         1.3501248596   -0.0411184738   -0.2341446741
     13  H         4.9142384858    0.2612966446    0.7437504386
     14  H         5.9203952122    1.8778349323    2.1676846301
     15  H         3.4086124939    3.5178037280    2.0915001325
     16  H         2.7200708808    2.0244315813    3.5745166206
     17  H         4.6717536730    4.7375832262    3.4482054743
     18  O         2.6207309379    2.2767851841   -0.3731933682
     19  O         1.6617653276    2.9526079298    0.1403217557
     20  H         1.5344919034    2.2908244771    1.1444524088

Z-matrix Print:
$molecule
0 2
O 
H  1 1.207414
O  2 1.209311 1 145.238769
O  3 1.280644 2 97.063372 1 4.376751 0
C  1 1.294465 2 100.423026 3 -8.479333 0
C  5 1.477547 1 120.482226 2 111.156720 0
H  6 1.081795 5 115.848085 1 155.222516 0
C  6 1.329757 5 125.103935 1 -23.856001 0
H  8 1.084226 6 118.817088 5 177.700590 0
C  8 1.504695 6 126.238982 5 -1.781323 0
H  10 1.091164 8 111.404556 6 -44.554783 0
O  10 1.403540 8 106.942466 6 -164.966854 0
H  12 0.964198 10 108.059169 8 168.030692 0
O  10 1.421179 8 111.208896 6 77.611246 0
H  14 0.968810 10 105.671977 8 -72.091838 0
C  5 1.510326 1 116.070377 2 -95.626318 0
H  16 1.088726 5 107.988238 1 41.434534 0
H  16 1.093345 5 106.880640 1 -74.656652 0
O  16 1.414533 5 113.538355 1 161.830792 0
H  19 0.962266 16 109.150620 5 87.976162 0
$end

 
 --------------------------------------------------------------
 
                    Orbital Energies (a.u.)
 --------------------------------------------------------------
 
 Alpha MOs
 -- Occupied --
-19.4501 -19.4470 -19.3488 -19.3465 -19.3465 -19.3390 -10.4689 -10.4505
-10.3965 -10.3642 -10.3570  -1.3625  -1.2025  -1.1916  -1.1656  -1.1332
 -0.9808  -0.9309  -0.8627  -0.8064  -0.7377  -0.7157  -0.6715  -0.6554
 -0.6392  -0.6360  -0.6299  -0.6179  -0.5964  -0.5836  -0.5488  -0.5271
 -0.5125  -0.4991  -0.4896  -0.4770  -0.4625  -0.4409  -0.4305  -0.4267
 -0.4104  -0.3938  -0.3739  -0.3663
 -- Virtual --
  0.0134   0.0270   0.0346   0.0403   0.0513   0.0568   0.0596   0.0742
  0.0849   0.0875   0.1053   0.1059   0.1208   0.1226   0.1282   0.1334
  0.1455   0.1522   0.1563   0.1597   0.1646   0.1701   0.1711   0.1792
  0.1838   0.1972   0.1990   0.2031   0.2150   0.2227   0.2359   0.2406
  0.2433   0.2530   0.2568   0.2696   0.2744   0.2867   0.2891   0.2920
  0.2994   0.3016   0.3078   0.3151   0.3224   0.3246   0.3256   0.3429
  0.3478   0.3488   0.3543   0.3547   0.3681   0.3720   0.3770   0.3792
  0.3888   0.3897   0.3974   0.4024   0.4209   0.4237   0.4296   0.4380
  0.4435   0.4516   0.4601   0.4713   0.4834   0.4941   0.5134   0.5268
  0.5367   0.5684   0.5725   0.5924   0.6029   0.6182   0.6226   0.6380
  0.6440   0.6471   0.6532   0.6656   0.6779   0.6815   0.6936   0.7010
  0.7053   0.7072   0.7251   0.7307   0.7553   0.7609   0.7798   0.7888
  0.7992   0.8137   0.8381   0.8419   0.8568   0.8651   0.8820   0.8984
  0.9064   0.9190   0.9423   0.9542   0.9862   1.0050   1.0201   1.0427
  1.0489   1.0558   1.0643   1.0830   1.0954   1.1106   1.1163   1.1248
  1.1275   1.1362   1.1429   1.1561   1.1706   1.1723   1.1834   1.1903
  1.2074   1.2180   1.2239   1.2438   1.2467   1.2528   1.2685   1.2727
  1.2828   1.2985   1.3132   1.3247   1.3357   1.3456   1.3550   1.3715
  1.3862   1.3968   1.4024   1.4136   1.4222   1.4382   1.4476   1.4610
  1.4674   1.4835   1.5028   1.5163   1.5310   1.5481   1.5643   1.5697
  1.5775   1.5942   1.6003   1.6187   1.6355   1.6376   1.6612   1.6681
  1.6893   1.7046   1.7256   1.7323   1.7432   1.7869   1.7976   1.8193
  1.8430   1.8571   1.9051   1.9309   1.9391   1.9778   1.9896   2.0367
  2.0504   2.0945   2.1047   2.1472   2.1618   2.1783   2.1925   2.2171
  2.2594   2.2803   2.3209   2.3233   2.3491   2.3641   2.3720   2.3820
  2.3905   2.4210   2.4603   2.5052   2.5599   2.5718   2.6434   2.6503
  2.6834   2.7072   2.7335   2.7689   2.7868   2.7961   2.8119   2.8226
  2.8532   2.8650   2.8888   2.9179   2.9394   2.9508   2.9678   2.9799
  3.0116   3.0266   3.0460   3.0828   3.1317   3.1475   3.1982   3.2090
  3.2186   3.2271   3.2469   3.2775   3.2958   3.2988   3.3282   3.3492
  3.3689   3.3699   3.3837   3.3920   3.4152   3.4362   3.4649   3.4757
  3.4821   3.5179   3.5247   3.5445   3.5609   3.5949   3.6178   3.6364
  3.6542   3.6716   3.6760   3.7120   3.7208   3.7267   3.7558   3.7761
  3.7895   3.8001   3.8148   3.8255   3.8580   3.8746   3.8818   3.8877
  3.9066   3.9253   3.9505   3.9605   3.9751   4.0108   4.0427   4.0734
  4.0867   4.0870   4.1411   4.1541   4.1815   4.1887   4.2100   4.2278
  4.2487   4.2713   4.2868   4.3054   4.3371   4.3439   4.3518   4.3996
  4.4110   4.4299   4.4497   4.4602   4.5036   4.5160   4.5258   4.5741
  4.5806   4.6204   4.6635   4.7096   4.7179   4.7317   4.7560   4.8239
  4.8587   4.8993   4.9147   4.9396   5.0335   5.0750   5.1187   5.1542
  5.2090   5.2153   5.2196   5.2372   5.2406   5.2682   5.2728   5.2791
  5.2894   5.2943   5.3106   5.3176   5.3234   5.3278   5.3573   5.3710
  5.3828   5.3999   5.4328   5.4406   5.4620   5.4904   5.5056   5.5184
  5.5525   5.5608   5.5729   5.5869   5.6039   5.6319   5.6395   5.6495
  5.6879   5.6969   5.7086   5.7271   5.7362   5.7643   5.8194   5.9228
  5.9521   5.9859   6.0213   6.0640   6.0778   6.1164   6.2021   6.4495
  6.5019   6.5398   6.5736   6.6562   6.7025   6.7678   6.8759   6.9583
  7.0305   7.0566   7.0651   7.1010   7.1095   7.1255   7.1347   7.1970
  7.2762   7.2934   7.3143   7.3207   7.3301   7.3335   7.3390   7.3610
  7.4112   7.4200   7.4326   7.4568   7.5282   7.5914   7.5977   7.6358
  7.6559   7.7546   7.7841   7.7945   7.8165   7.9140   8.0292   8.0833
  8.1601  24.4118  24.7480  24.8189  24.9323  25.2464  50.4917  50.5472
 50.6010  50.6120  50.6288  50.7585
 
 Beta MOs
 -- Occupied --
-19.4335 -19.4328 -19.3488 -19.3465 -19.3465 -19.3390 -10.4693 -10.4505
-10.3964 -10.3642 -10.3568  -1.3342  -1.2024  -1.1908  -1.1656  -1.1332
 -0.9525  -0.9208  -0.8596  -0.8063  -0.7371  -0.7070  -0.6698  -0.6546
 -0.6373  -0.6351  -0.6030  -0.5985  -0.5828  -0.5558  -0.5315  -0.5260
 -0.5118  -0.4967  -0.4864  -0.4758  -0.4582  -0.4383  -0.4295  -0.4178
 -0.3985  -0.3771  -0.3597
 -- Virtual --
 -0.0336   0.0161   0.0272   0.0346   0.0404   0.0515   0.0572   0.0598
  0.0746   0.0853   0.0878   0.1057   0.1064   0.1215   0.1231   0.1285
  0.1336   0.1458   0.1524   0.1566   0.1603   0.1655   0.1709   0.1719
  0.1795   0.1840   0.1977   0.1994   0.2035   0.2186   0.2232   0.2365
  0.2412   0.2482   0.2552   0.2578   0.2702   0.2754   0.2873   0.2892
  0.2961   0.3009   0.3021   0.3084   0.3168   0.3230   0.3251   0.3283
  0.3449   0.3480   0.3488   0.3550   0.3559   0.3687   0.3729   0.3775
  0.3814   0.3890   0.3903   0.3990   0.4031   0.4242   0.4247   0.4299
  0.4389   0.4442   0.4520   0.4602   0.4723   0.4843   0.4947   0.5140
  0.5278   0.5372   0.5686   0.5728   0.5925   0.6030   0.6187   0.6226
  0.6380   0.6445   0.6478   0.6534   0.6658   0.6783   0.6819   0.6939
  0.7011   0.7054   0.7073   0.7255   0.7307   0.7558   0.7615   0.7803
  0.7896   0.7996   0.8144   0.8386   0.8420   0.8582   0.8654   0.8824
  0.8988   0.9071   0.9195   0.9429   0.9559   0.9866   1.0059   1.0217
  1.0437   1.0496   1.0572   1.0659   1.0856   1.0971   1.1127   1.1178
  1.1268   1.1321   1.1370   1.1450   1.1660   1.1722   1.1741   1.1844
  1.1916   1.2106   1.2213   1.2280   1.2478   1.2512   1.2577   1.2695
  1.2755   1.2889   1.3051   1.3150   1.3275   1.3401   1.3471   1.3579
  1.3745   1.3873   1.3977   1.4036   1.4156   1.4260   1.4393   1.4504
  1.4638   1.4691   1.4860   1.5050   1.5216   1.5326   1.5503   1.5674
  1.5715   1.5788   1.5951   1.6012   1.6197   1.6368   1.6380   1.6662
  1.6704   1.6928   1.7125   1.7273   1.7385   1.7533   1.7909   1.8042
  1.8222   1.8453   1.8633   1.9076   1.9348   1.9399   1.9812   1.9967
  2.0406   2.0536   2.0969   2.1098   2.1483   2.1662   2.1793   2.1972
  2.2233   2.2603   2.2940   2.3239   2.3321   2.3498   2.3666   2.3777
  2.3860   2.3917   2.4218   2.4609   2.5054   2.5656   2.5722   2.6448
  2.6506   2.6858   2.7136   2.7348   2.7695   2.7875   2.7962   2.8118
  2.8226   2.8530   2.8651   2.8887   2.9179   2.9394   2.9506   2.9675
  2.9799   3.0112   3.0266   3.0460   3.0824   3.1307   3.1475   3.1980
  3.2090   3.2184   3.2272   3.2467   3.2774   3.2961   3.2995   3.3282
  3.3493   3.3688   3.3699   3.3838   3.3919   3.4155   3.4361   3.4647
  3.4754   3.4821   3.5178   3.5245   3.5446   3.5607   3.5951   3.6180
  3.6363   3.6543   3.6715   3.6760   3.7120   3.7207   3.7265   3.7558
  3.7758   3.7896   3.8004   3.8148   3.8254   3.8581   3.8745   3.8817
  3.8880   3.9068   3.9256   3.9499   3.9606   3.9750   4.0104   4.0427
  4.0733   4.0863   4.0868   4.1410   4.1540   4.1813   4.1887   4.2100
  4.2275   4.2487   4.2705   4.2866   4.3054   4.3370   4.3436   4.3517
  4.3995   4.4113   4.4303   4.4497   4.4601   4.5037   4.5166   4.5268
  4.5800   4.6065   4.6253   4.6646   4.7254   4.7339   4.7427   4.7651
  4.8310   4.8613   4.9032   4.9219   4.9431   5.0538   5.0946   5.1786
  5.1875   5.2114   5.2324   5.2426   5.2584   5.2688   5.2775   5.2863
  5.2965   5.3028   5.3079   5.3182   5.3246   5.3291   5.3371   5.3652
  5.3802   5.3878   5.4108   5.4338   5.4433   5.4659   5.4941   5.5062
  5.5252   5.5532   5.5642   5.5737   5.5929   5.6046   5.6458   5.6506
  5.6591   5.6887   5.7001   5.7093   5.7287   5.7512   5.7681   5.8196
  5.9228   5.9524   5.9861   6.0214   6.0642   6.0779   6.1166   6.2033
  6.4541   6.5050   6.5734   6.5900   6.6573   6.7143   6.7687   6.9263
  7.0199   7.0323   7.0652   7.1033   7.1208   7.1424   7.1576   7.1654
  7.2074   7.2897   7.3024   7.3146   7.3247   7.3309   7.3370   7.3481
  7.3930   7.4139   7.4364   7.4440   7.4695   7.5445   7.5955   7.6061
  7.6360   7.6571   7.7547   7.7842   7.7947   7.8247   7.9140   8.0317
  8.0970   8.1791  24.4118  24.7481  24.8189  24.9321  25.2464  50.5028
 50.5584  50.6020  50.6120  50.6290  50.7588
 --------------------------------------------------------------
 
          Ground-State Mulliken Net Atomic Charges

     Atom                 Charge (a.u.)    Spin (a.u.)
  --------------------------------------------------------
      1 O                    -0.424416       0.001359
      2 C                    -0.252421       0.010131
      3 C                     0.141373      -0.027803
      4 O                    -0.451852      -0.001577
      5 C                    -0.256338       0.007449
      6 C                     0.013773      -0.008567
      7 C                    -0.379833       0.003152
      8 O                    -0.444773      -0.000368
      9 O                    -0.452165      -0.000113
     10 H                     0.340272       0.000215
     11 H                     0.218158      -0.000914
     12 H                     0.220094      -0.000639
     13 H                     0.285925       0.000700
     14 H                     0.283312       0.000337
     15 H                     0.266765      -0.002245
     16 H                     0.348902       0.000703
     17 H                     0.333949       0.000034
     18 O                    -0.055174       0.550491
     19 O                    -0.102245       0.476792
     20 H                     0.366695      -0.009136
  --------------------------------------------------------
  Sum of atomic charges =     0.000000
  Sum of spin   charges =     1.000000

 -----------------------------------------------------------------
                    Cartesian Multipole Moments
 -----------------------------------------------------------------
    Charge (ESU x 10^10)
                 0.0000
    Dipole Moment (Debye)
         X      -0.3888      Y      -2.8502      Z      -0.6129
       Tot       2.9411
    Quadrupole Moments (Debye-Ang)
        XX     -67.9659     XY     -15.0229     YY     -60.6086
        XZ      -8.9550     YZ      -1.5871     ZZ     -87.2696
    Octopole Moments (Debye-Ang^2)
       XXX    -672.2782    XXY    -197.8493    XYY    -211.7887
       YYY    -291.5449    XXZ    -151.8820    XYZ     -22.9271
       YYZ     -62.4211    XZZ    -312.4298    YZZ    -143.6008
       ZZZ    -350.2895
    Hexadecapole Moments (Debye-Ang^3)
      XXXX   -5069.6856   XXXY   -1727.3841   XXYY   -1230.3062
      XYYY   -1077.8031   YYYY   -1598.4335   XXXZ   -1440.8004
      XXYZ    -411.7904   XYYZ    -315.5910   YYYZ    -477.8669
      XXZZ   -1526.6318   XYZZ    -572.0006   YYZZ    -582.6591
      XZZZ   -1444.3211   YZZZ    -895.7212   ZZZZ   -2091.6235
 -----------------------------------------------------------------
 Total job time:  12652.68s(wall), 178753.30s(cpu) 
 Fri Aug  9 19:34:48 2024

        *************************************************************
        *                                                           *
        *  Thank you very much for using Q-Chem.  Have a nice day.  *
        *                                                           *
        *************************************************************


