
Running Job 1 of 2 Q_in.in
qchem Q_in.in_189422.0 /scratch/ari.fischer/qChem2235125.hpc-mn1/qchem189422/ 0
/usr/local/qchem-5.4.1/exe/qcprog.exe_s Q_in.in_189422.0 /scratch/ari.fischer/qChem2235125.hpc-mn1/qchem189422/
                  Welcome to Q-Chem
     A Quantum Leap Into The Future Of Chemistry


 Q-Chem 5.4, Q-Chem, Inc., Pleasanton, CA (2021)

 License issued to: Nanyang Technological University (site)

 E. Epifanovsky,  A. T. B. Gilbert,  Xintian Feng,  Joonho Lee,  Yuezhi Mao,  
 N. Mardirossian,  P. Pokhilko,  A. White,  M. Wormit,  M. P. Coons,  
 A. L. Dempwolff,  Zhengting Gan,  D. Hait,  P. R. Horn,  L. D. Jacobson,  
 I. Kaliman,  J. Kussmann,  A. W. Lange,  Ka Un Lao,  D. S. Levine,  Jie Liu,  
 S. C. McKenzie,  A. F. Morrison,  K. Nanda,  F. Plasser,  D. R. Rehn,  
 M. L. Vidal,  Zhi-Qiang You,  Ying Zhu,  B. Alam,  B. Albrecht,  
 A. Aldossary,  E. Alguire,  J. H. Andersen,  D. Barton,  K. Begam,  A. Behn,  
 Y. A. Bernard,  E. J. Berquist,  H. Burton,  A. Carreras,  K. Carter-Fenk,  
 R. Chakraborty,  A. D. Chien,  K. D. Closser,  V. Cofer-Shabica,  
 S. Dasgupta,  Jia Deng,  M. de Wergifosse,  M. Diedenhofen,  Hainam Do,  
 S. Ehlert,  Po-Tung Fang,  S. Fatehi,  Qingguo Feng,  T. Friedhoff,  
 J. Gayvert,  Qinghui Ge,  G. Gidofalvi,  M. Goldey,  J. Gomes,  
 C. Gonzalez-Espinoza,  S. Gulania,  A. Gunina,  M. W. D. Hanson-Heine,  
 P. H. P. Harbach,  A. W. Hauser,  M. F. Herbst,  M. Hernandez Vera,  
 M. Hodecker,  Z. C. Holden,  S. Houck,  Xunkun Huang,  Kerwin Hui,  
 B. C. Huynh,  M. Ivanov,  Hyunjun Ji,  Hanjie Jiang,  B. Kaduk,  S. Kaehler,  
 K. Khistyaev,  Jaehoon Kim,  P. Klunzinger,  Z. Koczor-Benda,  
 Joong Hoon Koh,  D. Kosenkov,  L. Koulias,  T. Kowalczyk,  C. M. Krauter,  
 K. Kue,  A. Kunitsa,  T. Kus,  A. Landau,  K. V. Lawler,  D. Lefrancois,  
 S. Lehtola,  Rain Li,  Yi-Pei Li,  Jiashu Liang,  M. Liebenthal,  
 Hung-Hsuan Lin,  You-Sheng Lin,  Fenglai Liu,  Kuan-Yu Liu,  
 M. Loipersberger,  A. Luenser,  A. Manjanath,  P. Manohar,  E. Mansoor,  
 S. F. Manzer,  Shan-Ping Mao,  A. V. Marenich,  T. Markovich,  S. Mason,  
 S. A. Maurer,  P. F. McLaughlin,  M. F. S. J. Menger,  J.-M. Mewes,  
 S. A. Mewes,  P. Morgante,  J. W. Mullinax,  K. J. Oosterbaan,  G. Paran,  
 Alexander C. Paul,  Suranjan K. Paul,  F. Pavosevic,  Zheng Pei,  S. Prager,  
 E. I. Proynov,  E. Ramos,  B. Rana,  A. E. Rask,  A. Rettig,  R. M. Richard,  
 F. Rob,  E. Rossomme,  T. Scheele,  M. Scheurer,  M. Schneider,  
 N. Sergueev,  S. M. Sharada,  W. Skomorowski,  D. W. Small,  C. J. Stein,  
 Yu-Chuan Su,  E. J. Sundstrom,  Zhen Tao,  J. Thirman,  T. Tsuchimochi,  
 N. M. Tubman,  S. P. Veccham,  O. Vydrov,  J. Wenzel,  J. Witte,  A. Yamada,  
 Kun Yao,  S. Yeganeh,  S. R. Yost,  A. Zech,  Igor Ying Zhang,  Xing Zhang,  
 Yu Zhang,  D. Zuev,  A. Aspuru-Guzik,  A. T. Bell,  N. A. Besley,  
 K. B. Bravaya,  B. R. Brooks,  D. Casanova,  Jeng-Da Chai,  S. Coriani,  
 C. J. Cramer,  A. E. DePrince, III,  R. A. DiStasio Jr.,  A. Dreuw,  
 B. D. Dunietz,  T. R. Furlani,  W. A. Goddard III,  S. Grimme,  
 S. Hammes-Schiffer,  T. Head-Gordon,  W. J. Hehre,  Chao-Ping Hsu,  
 T.-C. Jagau,  Yousung Jung,  A. Klamt,  Jing Kong,  D. S. Lambrecht,  
 WanZhen Liang,  N. J. Mayhall,  C. W. McCurdy,  J. B. Neaton,  
 C. Ochsenfeld,  J. A. Parkhill,  R. Peverati,  V. A. Rassolov,  Yihan Shao,  
 L. V. Slipchenko,  T. Stauch,  R. P. Steele,  J. E. Subotnik,  
 A. J. W. Thom,  A. Tkatchenko,  D. G. Truhlar,  T. Van Voorhis,  
 T. A. Wesolowski,  K. B. Whaley,  H. L. Woodcock III,  P. M. Zimmerman,  
 S. Faraji,  P. M. W. Gill,  M. Head-Gordon,  J. M. Herbert,  A. I. Krylov

 Additional authors for Version 5.4.1: 
 S. Kotaru,  Shaozhi Li,  Xiangyuan Li,  F. Matz,  A. Molle,  Haisheng Ren,  
 Yingli Su,  Hung-Yi Tsai,  C. Utku,  Fang Wang

 Contributors to earlier versions of Q-Chem not listed above: 
 R. D. Adamson,  B. Austin,  R. Baer,  J. Baker,  G. J. O. Beran,  
 K. Brandhorst,  S. T. Brown,  E. F. C. Byrd,  A. K. Chakraborty,  
 G. K. L. Chan,  Chun-Min Chang,  Yunqing Chen,  C.-L. Cheng,  
 Siu Hung Chien,  D. M. Chipman,  D. L. Crittenden,  H. Dachsel,  
 R. J. Doerksen,  A. D. Dutoi,  R. G. Edgar,  J. Fosso-Tande,  
 L. Fusti-Molnar,  D. Ghosh,  A. Ghysels,  A. Golubeva-Zadorozhnaya,  
 J. Gonthier,  M. S. Gordon,  S. R. Gwaltney,  G. Hawkins,  J. E. Herr,  
 A. Heyden,  S. Hirata,  E. G. Hohenstein,  G. Kedziora,  F. J. Keil,  
 C. Kelley,  Jihan Kim,  R. A. King,  R. Z. Khaliullin,  P. P. Korambath,  
 W. Kurlancheek,  A. Laurent,  A. M. Lee,  M. S. Lee,  S. V. Levchenko,  
 Ching Yeh Lin,  D. Liotard,  E. Livshits,  R. C. Lochan,  I. Lotan,  
 L. A. Martinez-Martinez,  P. E. Maslen,  N. Nair,  D. P. O'Neill,  
 D. Neuhauser,  E. Neuscamman,  C. M. Oana,  R. Olivares-Amaya,  R. Olson,  
 T. M. Perrine,  B. Peters,  P. A. Pieniazek,  A. Prociuk,  Y. M. Rhee,  
 J. Ritchie,  M. A. Rohrdanz,  E. Rosta,  N. J. Russ,  H. F. Schaefer III,  
 M. W. Schmidt,  N. E. Schultz,  S. Sharma,  N. Shenvi,  C. D. Sherrill,  
 A. C. Simmonett,  A. Sodt,  T. Stein,  D. Stuck,  K. S. Thanthiriwatte,  
 V. Vanovschi,  L. Vogt,  Tao Wang,  A. Warshel,  M. A. Watson,  
 C. F. Williams,  Q. Wu,  X. Xu,  Jun Yang,  W. Zhang,  Yan Zhao

 Please cite Q-Chem as follows:
 Y. Shao et al., Mol. Phys. 113, 184-215 (2015)
 DOI: 10.1080/00268976.2014.952696

 Q-Chem 5.4.1 for Intel X86 EM64T Linux

 Parts of Q-Chem use Armadillo 9.800.1 (Horizon Scraper).
 http://arma.sourceforge.net/

 Q-Chem begins on Sat Jul 13 02:49:20 2024  

 Host: 
0

     Scratch files written to /scratch/ari.fischer/qChem2235125.hpc-mn1/qchem189422//
 Aug1521 |scratch|qcdevops|jenkins|workspace|build_RNUM 8249   
 Processing $rem in /usr/local/qchem-5.4.1/config/preferences:
 Processing $rem in /home/ari.fischer/.qchemrc:
 Symmetry turned off for PCM/SM12/SMD calculation


!!********************************************.
!!******************Warning*******************.
!!Desired Analytical derivatives not available.
!!Finite difference job might take a long time.
!!********************************************.
!!********************************************.


 2-order derivative to be evaluated numerically with 1-order analytical derivatives

 Checking the input file for inconsistencies... 	...done.

--------------------------------------------------------------
User input:
--------------------------------------------------------------
$molecule
0 2
O        -0.5921887758    0.6936896813   -0.3740698093
C         0.1824855854   -0.0727174748    0.4845230576
O        -0.5786650749   -1.0080553970    1.1773101025
C         1.3038082779   -0.7511859747   -0.2914248640
O         1.9195515478    0.0680267437   -1.1248918041
O         1.6011925155   -1.9079094429   -0.1015800482
H        -1.1608161461    1.2680809042    0.1543233303
H        -0.0638787065   -1.8270314328    1.2422095056
H         2.6434119606   -0.4065503710   -1.5659144707
H         0.6954520649    0.6266519764    1.2385000497
O         1.4519736508    1.5029811507    2.2341021136
H         2.2174146435    0.8870225142    2.2836774882
C         2.8785841961   -1.5703139843    2.4696195637
O         3.4364754048   -0.5163201383    2.2496577401
H         1.8402854724   -1.6037728606    2.8248659563
H         3.3984236837   -2.5255428941    2.3297838888
$end

$rem
BASIS = 6-311++G(2df,2p)
GUI = 2
JOB_TYPE = Frequency
METHOD = wB97M-V
SOLVENT_METHOD = SMD
SCF_ALGORITHM = DIIS_GDM
MAX_SCF_CYCLES = 400
SCF_CONVERGENCE = 7
THRESH = 12
$end

--------------------------------------------------------------
 ----------------------------------------------------------------
             Standard Nuclear Orientation (Angstroms)
    I     Atom           X                Y                Z
 ----------------------------------------------------------------
    1      O      -0.5921887758     0.6936896813    -0.3740698093
    2      C       0.1824855854    -0.0727174748     0.4845230576
    3      O      -0.5786650749    -1.0080553970     1.1773101025
    4      C       1.3038082779    -0.7511859747    -0.2914248640
    5      O       1.9195515478     0.0680267437    -1.1248918041
    6      O       1.6011925155    -1.9079094429    -0.1015800482
    7      H      -1.1608161461     1.2680809042     0.1543233303
    8      H      -0.0638787065    -1.8270314328     1.2422095056
    9      H       2.6434119606    -0.4065503710    -1.5659144707
   10      H       0.6954520649     0.6266519764     1.2385000497
   11      O       1.4519736508     1.5029811507     2.2341021136
   12      H       2.2174146435     0.8870225142     2.2836774882
   13      C       2.8785841961    -1.5703139843     2.4696195637
   14      O       3.4364754048    -0.5163201383     2.2496577401
   15      H       1.8402854724    -1.6037728606     2.8248659563
   16      H       3.3984236837    -2.5255428941     2.3297838888
 ----------------------------------------------------------------
 Nuclear Repulsion Energy =         488.75455864 hartrees
 There are       37 alpha and       36 beta electrons
 Requested basis set is 6-311++G(2df,2p)
 There are 114 shells and 376 basis functions

 Total QAlloc Memory Limit 288000 MB
 Mega-Array Size       188 MB
 MEM_STATIC part       192 MB
 
 Citation of the SMD model:
 Marenich, A.V.; Cramer, C.J.; Truhlar, D.G.
 J. Phys. Chem. B 2009, 113, 6378-6396.
 iSolventCode=           1
 Solvent: water                                                           
 
 vradii
            1           2           3           4           5           6
    1   1.5200000   1.8500000   1.5200000   1.8500000   1.5200000   1.5200000
            7           8           9          10          11          12
    1   1.2000000   1.2000000   1.2000000   1.2000000   1.5200000   1.2000000
           13          14          15          16
    1   1.8500000   1.5200000   1.2000000   1.2000000
 Changing PCM_VDW_RADII to SMD_RADIUS
 Discretize the solute cavity surface with Lebedev spheres
	Using 110 Lebedev grid points for each H atom
	Using 194 Lebedev grid points for other atoms
	Atomic van der Waals radii will be scaled by 1.20
 Remove points where switching function is < 1.0e-08
 Keep 1403 surface tesserae and discard 1113 interior tesserae
 Molecular Surface Area = 162.449 Angst**2
 A cutoff of  1.0D-12 yielded   5777 shell pairs
 There are     62655 function pairs (     78065 Cartesian)
 Smallest overlap matrix eigenvalue = 2.88E-05
 Guess from superposition of atomic densities
 Warning:  Energy on first SCF cycle will be non-variational
 SAD guess density has 73.000000 electrons

 -----------------------------------------------------------------------
  General SCF calculation program by
  Eric Jon Sundstrom, Paul Horn, Yuezhi Mao, Dmitri Zuev, Alec White,
  David Stuck, Shaama M.S., Shane Yost, Joonho Lee, David Small,
  Daniel Levine, Susi Lehtola, Hugh Burton, Evgeny Epifanovsky,
  Bang C. Huynh
 -----------------------------------------------------------------------
 Exchange:     0.1500 Hartree-Fock + 1.0000 wB97M-V + LR-HF
 Correlation:  1.0000 wB97M-V
 Using SG-2 standard quadrature grid
 Nonlocal Correlation:  VV10 with C = 0.0100 and b = 6.00 and scale = 1.00000
 Grid used for NLC:  SG-1 standard quadrature
 using 16 threads for integral computing
 -------------------------------------------------------
 OpenMP Integral computing Module                
 Release: version 1.0, May 2013, Q-Chem Inc. Pittsburgh 
 -------------------------------------------------------
 
 Citation of the SMD model:
 Marenich, A.V.; Cramer, C.J.; Truhlar, D.G.
 J. Phys. Chem. B 2009, 113, 6378-6396.
 iSolventCode=           1
 Solvent: water                                                           
 
 vradii
            1           2           3           4           5           6
    1   1.5200000   1.8500000   1.5200000   1.8500000   1.5200000   1.5200000
            7           8           9          10          11          12
    1   1.2000000   1.2000000   1.2000000   1.2000000   1.5200000   1.2000000
           13          14          15          16
    1   1.8500000   1.5200000   1.2000000   1.2000000
 -------------------------------------------------------
 OpenMP BLAS3 based DFT computing Module                
 Release: version 1.0, May 2013, Q-Chem Inc. Pittsburgh 
 -------------------------------------------------------
 A unrestricted SCF calculation will be
 performed using DIIS, GDM
 SCF converges when RMS gradient is below 1.0e-07
 ---------------------------------------
  Cycle       Energy         DIIS error
 ---------------------------------------
    1    -571.0969000264      1.28e-02  
    2    -569.5097918399      2.28e-03  Done DIIS. Switching to GDM
 ---------------------------------------
  Cycle       Energy        RMS Gradient
 ---------------------------------------
    1    -569.5097918399      3.27e-01   Descent step
    2    -569.7697745623      8.91e-02   Descent step
    3    -569.8076164371      3.86e-02   Normal BFGS step
    4    -569.8301468003      3.46e-02   Normal BFGS step
    5    -569.8339336586      3.73e-02   Normal BFGS step
    6    -569.8360098629      1.03e-02   Normal BFGS step
    7    -569.8367674815      5.67e-03   Normal BFGS step
    8    -569.8369277319      2.32e-03   Normal BFGS step
    9    -569.8369598739      9.53e-04   Normal BFGS step
   10    -569.8369661252      6.99e-04   Normal BFGS step
   11    -569.8369674034      3.41e-04   Normal BFGS step
   12    -569.8369677919      1.71e-04   Normal BFGS step
   13    -569.8369679409      1.43e-04   Normal BFGS step
   14    -569.8369680022      1.19e-04   Normal BFGS step
   15    -569.8369680340      1.00e-04   Normal BFGS step
   16    -569.8369680785      6.66e-05   Normal BFGS step
   17    -569.8369681107      5.30e-05   Normal BFGS step
   18    -569.8369681276      2.87e-05   Normal BFGS step
   19    -569.8369681312      5.56e-06   Normal BFGS step
   20    -569.8369681315      3.14e-06   Normal BFGS step
   21    -569.8369681316      7.81e-07   Normal BFGS step
   22    -569.8369681316      4.46e-07   Normal BFGS step
   23    -569.8369681316      1.42e-07   Normal BFGS step
   24    -569.8369681316      5.98e-08  Convergence criterion met
 ---------------------------------------
 SCF time:   CPU 2032.09s  wall 140.00s 
<S^2> =          0.756799368
(3)  G-ENP(liq) elect-nuc-pol free energy of system     -569.836968132 a.u.
(4)  G-CDS(liq) cavity-dispersion-solvent structure 
     free energy                                                6.5031 kcal/mol
(6)  G-S(liq) free energy of system                     -569.826604729 a.u.
 SCF   energy in the final basis set =     -569.8266047291
 Total energy in the final basis set =     -569.8266047291
 
 --------------------------------------------------------------
 
                    Orbital Energies (a.u.)
 --------------------------------------------------------------
 
 Alpha MOs
 -- Occupied --
-19.3987 -19.3740 -19.3660 -19.3613 -19.3598 -19.3520 -10.5044 -10.4797
-10.4426  -1.2700  -1.2212  -1.2018  -1.1814  -1.1535  -1.1228  -0.8653
 -0.7529  -0.7490  -0.6845  -0.6748  -0.6468  -0.6206  -0.6162  -0.5897
 -0.5740  -0.5546  -0.5471  -0.5289  -0.5162  -0.5012  -0.4929  -0.4539
 -0.4480  -0.4402  -0.4232  -0.3861  -0.3795
 -- Virtual --
  0.0272   0.0311   0.0404   0.0439   0.0569   0.0622   0.0734   0.0832
  0.0903   0.0970   0.0988   0.1133   0.1215   0.1308   0.1456   0.1481
  0.1582   0.1629   0.1689   0.1765   0.2010   0.2131   0.2207   0.2317
  0.2413   0.2568   0.2613   0.2639   0.2787   0.2858   0.2982   0.2989
  0.3028   0.3041   0.3130   0.3185   0.3238   0.3284   0.3351   0.3457
  0.3522   0.3551   0.3608   0.3671   0.3693   0.3799   0.3864   0.3899
  0.4054   0.4236   0.4301   0.4308   0.4546   0.4605   0.4723   0.4927
  0.5028   0.5141   0.5584   0.5805   0.5891   0.6044   0.6138   0.6357
  0.6423   0.6444   0.6676   0.6748   0.6814   0.7083   0.7176   0.7246
  0.7370   0.7668   0.7835   0.7899   0.7951   0.8115   0.8531   0.8580
  0.8677   0.8757   0.9086   0.9333   0.9446   0.9518   0.9836   1.0069
  1.0221   1.0323   1.0414   1.0553   1.0788   1.0827   1.1055   1.1171
  1.1248   1.1431   1.1480   1.1539   1.1680   1.1856   1.1905   1.2062
  1.2129   1.2200   1.2241   1.2304   1.2484   1.2628   1.2726   1.2919
  1.3118   1.3198   1.3296   1.3652   1.3845   1.4012   1.4141   1.4269
  1.4390   1.4935   1.5044   1.5181   1.5363   1.5646   1.5691   1.5821
  1.6173   1.6324   1.6658   1.6935   1.6957   1.7145   1.7212   1.7441
  1.7450   1.7738   1.7922   1.8249   1.8540   1.8939   1.9317   1.9504
  1.9714   1.9873   2.0060   2.0519   2.1168   2.1492   2.1572   2.2627
  2.2718   2.2847   2.3066   2.3315   2.3727   2.4007   2.4253   2.4442
  2.4553   2.4783   2.5174   2.5240   2.5677   2.5860   2.6272   2.6531
  2.6918   2.7269   2.7764   2.8028   2.8584   2.8887   2.9204   2.9342
  2.9403   3.0185   3.0327   3.0542   3.1067   3.1331   3.1346   3.1575
  3.1772   3.2050   3.2398   3.2571   3.2872   3.3214   3.3380   3.3573
  3.3719   3.3977   3.4210   3.4719   3.4844   3.5305   3.5634   3.5943
  3.6149   3.6290   3.6382   3.6781   3.6984   3.7552   3.7748   3.7980
  3.8055   3.8298   3.8395   3.8479   3.8611   3.9028   3.9072   3.9294
  3.9663   3.9955   4.0229   4.0960   4.1065   4.1384   4.1767   4.1841
  4.2094   4.2167   4.2326   4.2663   4.2981   4.3183   4.3858   4.3941
  4.4030   4.4810   4.5376   4.6432   4.7731   5.0302   5.0569   5.0837
  5.1021   5.1324   5.1454   5.1536   5.1605   5.1718   5.1921   5.2030
  5.2094   5.2131   5.2399   5.2517   5.2544   5.2686   5.2752   5.2930
  5.3049   5.3183   5.3204   5.3479   5.3584   5.3773   5.4229   5.4439
  5.4636   5.4982   5.5047   5.5193   5.5444   5.5570   5.5860   5.6016
  5.6052   5.6091   5.6168   5.6475   5.6601   5.6908   5.7313   5.7721
  5.9130   5.9284   5.9446   6.0069   6.1032   6.1595   6.1898   6.3057
  6.4717   6.5069   6.5774   6.7343   6.8005   6.8937   6.9144   6.9251
  7.0039   7.0102   7.0337   7.0451   7.0616   7.0771   7.0776   7.0878
  7.1382   7.2070   7.2344   7.2431   7.2546   7.2806   7.2982   7.3058
  7.3135   7.3292   7.3578   7.3688   7.4374   7.4443   7.4587   7.4994
  7.6335   7.6553   7.6739   7.7397   7.7574   7.7687   7.7739   7.8171
  7.8931   7.9071  24.7904  24.9118  25.1596  50.4778  50.5835  50.5879
 50.6248  50.6908  50.7370
 
 Beta MOs
 -- Occupied --
-19.3986 -19.3652 -19.3602 -19.3599 -19.3533 -19.3517 -10.5043 -10.4758
-10.4426  -1.2695  -1.2187  -1.2017  -1.1806  -1.1515  -1.0688  -0.8603
 -0.7527  -0.7453  -0.6804  -0.6678  -0.6406  -0.6172  -0.6123  -0.5862
 -0.5705  -0.5465  -0.5370  -0.5200  -0.5154  -0.4912  -0.4522  -0.4402
 -0.4289  -0.4190  -0.4033  -0.3845
 -- Virtual --
 -0.0763   0.0276   0.0313   0.0407   0.0440   0.0571   0.0627   0.0780
  0.0835   0.0909   0.0973   0.0995   0.1134   0.1220   0.1309   0.1462
  0.1482   0.1585   0.1631   0.1702   0.1776   0.2023   0.2151   0.2233
  0.2328   0.2429   0.2580   0.2631   0.2648   0.2795   0.2870   0.2991
  0.3002   0.3055   0.3069   0.3143   0.3190   0.3244   0.3288   0.3366
  0.3469   0.3547   0.3558   0.3621   0.3688   0.3700   0.3816   0.3894
  0.3921   0.4092   0.4249   0.4307   0.4428   0.4597   0.4641   0.4735
  0.4939   0.5041   0.5150   0.5596   0.5812   0.5912   0.6050   0.6146
  0.6366   0.6439   0.6455   0.6683   0.6757   0.6832   0.7094   0.7191
  0.7268   0.7380   0.7691   0.7842   0.7920   0.7970   0.8127   0.8538
  0.8586   0.8690   0.8765   0.9105   0.9343   0.9463   0.9538   0.9848
  1.0087   1.0239   1.0342   1.0429   1.0584   1.0793   1.0863   1.1089
  1.1187   1.1264   1.1450   1.1507   1.1556   1.1704   1.1900   1.1961
  1.2079   1.2160   1.2218   1.2300   1.2375   1.2640   1.2649   1.2770
  1.2950   1.3151   1.3214   1.3309   1.3665   1.3877   1.4042   1.4163
  1.4295   1.4400   1.4941   1.5050   1.5190   1.5387   1.5659   1.5724
  1.5869   1.6351   1.6380   1.6682   1.6963   1.7001   1.7235   1.7355
  1.7466   1.7524   1.7779   1.7971   1.8290   1.8569   1.8968   1.9374
  1.9595   1.9753   1.9925   2.0223   2.0535   2.1185   2.1528   2.1586
  2.2660   2.2731   2.2923   2.3104   2.3321   2.3755   2.4040   2.4266
  2.4460   2.4618   2.4923   2.5212   2.5241   2.5733   2.5874   2.6279
  2.6545   2.6971   2.7289   2.7780   2.8038   2.8604   2.8931   2.9216
  2.9357   2.9457   3.0187   3.0340   3.0550   3.1068   3.1333   3.1379
  3.1576   3.1801   3.2061   3.2413   3.2577   3.2892   3.3217   3.3387
  3.3592   3.3741   3.4005   3.4227   3.4740   3.4869   3.5326   3.5644
  3.6023   3.6154   3.6301   3.6404   3.6818   3.7021   3.7610   3.7813
  3.8025   3.8067   3.8325   3.8431   3.8499   3.8645   3.9078   3.9106
  3.9338   3.9719   4.0037   4.0262   4.0981   4.1066   4.1410   4.1769
  4.1854   4.2097   4.2178   4.2335   4.2665   4.2988   4.3198   4.3847
  4.3954   4.4106   4.4693   4.5326   4.6431   4.7764   5.0310   5.0715
  5.1302   5.1346   5.1412   5.1526   5.1590   5.1730   5.1910   5.1961
  5.2131   5.2187   5.2284   5.2439   5.2570   5.2679   5.2782   5.2861
  5.3023   5.3078   5.3256   5.3427   5.3522   5.3677   5.4236   5.4350
  5.4590   5.4883   5.5020   5.5061   5.5238   5.5487   5.5621   5.5957
  5.6032   5.6077   5.6159   5.6294   5.6491   5.6892   5.6982   5.7401
  5.7785   5.9139   5.9288   5.9455   6.0081   6.1051   6.1609   6.1916
  6.3057   6.4729   6.5129   6.5773   6.7360   6.8033   6.9171   6.9329
  6.9852   7.0062   7.0337   7.0459   7.0643   7.0754   7.0801   7.0821
  7.1150   7.1725   7.2087   7.2388   7.2513   7.2568   7.2989   7.3071
  7.3157   7.3207   7.3597   7.3658   7.3887   7.4431   7.4466   7.4743
  7.5024   7.6475   7.6752   7.6955   7.7438   7.7598   7.7738   7.7760
  7.8184   7.8952   7.9083  24.7937  24.9118  25.1600  50.4921  50.5841
 50.5883  50.6256  50.6908  50.7373
 --------------------------------------------------------------
 
          Ground-State Mulliken Net Atomic Charges

     Atom                 Charge (a.u.)    Spin (a.u.)
  --------------------------------------------------------
      1 O                    -0.366244       0.026985
      2 C                    -0.322243       0.180677
      3 O                    -0.353386       0.036503
      4 C                     0.331340      -0.004548
      5 O                    -0.249892       0.001248
      6 O                    -0.429354       0.010884
      7 H                     0.347152      -0.000131
      8 H                     0.321527       0.001293
      9 H                     0.362431       0.000152
     10 H                     0.478821      -0.036409
     11 O                    -0.495751       0.792905
     12 H                     0.322860      -0.008040
     13 C                    -0.066992      -0.000357
     14 O                    -0.282726      -0.000459
     15 H                     0.217330      -0.000624
     16 H                     0.185127      -0.000080
  --------------------------------------------------------
  Sum of atomic charges =     0.000000
  Sum of spin   charges =     1.000000

 -----------------------------------------------------------------
                    Cartesian Multipole Moments
 -----------------------------------------------------------------
    Charge (ESU x 10^10)
                 0.0000
    Dipole Moment (Debye)
         X       1.4059      Y      -3.6260      Z       0.1591
       Tot       3.8923
    Quadrupole Moments (Debye-Ang)
        XX     -51.2470     XY     -11.9537     YY     -52.7546
        XZ      -2.5257     YZ     -10.4491     ZZ     -50.2986
    Octopole Moments (Debye-Ang^2)
       XXX    -211.2047    XXY       4.0362    XYY     -68.2494
       YYY      48.3443    XXZ     -59.9847    XYZ     -23.5607
       YYZ     -27.3139    XZZ     -46.6627    YZZ     -15.4925
       ZZZ    -127.6525
    Hexadecapole Moments (Debye-Ang^3)
      XXXX   -1222.0133   XXXY      74.1592   XXYY    -228.7941
      XYYY     105.1031   YYYY    -456.9208   XXXZ    -359.6579
      XXYZ     -26.3687   XYYZ     -49.2175   YYYZ     -10.5315
      XXZZ    -278.0965   XYZZ     -22.9329   YYZZ    -173.3724
      XZZZ    -252.8618   YZZZ     -19.3037   ZZZZ    -741.1292
 -----------------------------------------------------------------
 Calculating analytic gradient of the SCF energy
 Gradient of CDS energy
            1           2           3           4           5           6
    1   0.0029240  -0.0060446   0.0030015   0.0018121  -0.0016082  -0.0004153
    2  -0.0029481  -0.0004874   0.0037178   0.0005179  -0.0018339   0.0010712
    3   0.0032471  -0.0002746  -0.0026750  -0.0023452   0.0020144  -0.0003878
            7           8           9          10          11          12
    1  -0.0003350  -0.0002505   0.0003153   0.0001229  -0.0003063   0.0001741
    2   0.0003635  -0.0003036   0.0000389  -0.0001287   0.0000697   0.0002212
    3  -0.0000587   0.0001181  -0.0002839  -0.0000133  -0.0000442   0.0001082
           13          14          15          16
    1   0.0013304  -0.0006015  -0.0000689  -0.0000501
    2   0.0001886  -0.0008728   0.0003429   0.0000427
    3   0.0009096   0.0001556  -0.0004302  -0.0000401
 Gradient of SCF Energy
            1           2           3           4           5           6
    1   0.0063654  -0.0016898  -0.0106223  -0.0012789  -0.0131775   0.0019710
    2  -0.0060376   0.0018672   0.0100386   0.0039486   0.0122348  -0.0109978
    3  -0.0092889  -0.0035917  -0.0004920   0.0034942   0.0061318  -0.0013487
            7           8           9          10          11          12
    1  -0.0063584   0.0084136   0.0140447   0.0025908  -0.0035207   0.0021043
    2   0.0065770  -0.0104590  -0.0081355  -0.0014048   0.0079798  -0.0062756
    3   0.0069568   0.0042707  -0.0088771   0.0017820   0.0020067  -0.0011809
           13          14          15          16
    1   0.0053330   0.0053127  -0.0143098   0.0048220
    2   0.0083817   0.0063446  -0.0019199  -0.0121422
    3  -0.0017247  -0.0010911   0.0037428  -0.0007902
 Max gradient component =       1.431E-02
 RMS gradient           =       6.905E-03
 Computing fast CPCM-SWIG gradient
 Updating gradient with PCM contributions...
 -- total gradient after adding PCM contribution --
---------------------------------------------------
  Atom         X              Y              Z     
---------------------------------------------------
   1      -0.000017      -0.000004       0.000002
   2       0.000015       0.000043       0.000009
   3      -0.000007      -0.000017      -0.000034
   4      -0.000003       0.000021      -0.000038
   5      -0.000024      -0.000012      -0.000008
   6       0.000043      -0.000018       0.000043
   7       0.000005      -0.000001      -0.000012
   8       0.000006       0.000001       0.000008
   9       0.000007      -0.000003       0.000007
  10       0.000028      -0.000029      -0.000053
  11      -0.000107      -0.000050       0.000192
  12       0.000130       0.000097      -0.000257
  13       0.000006       0.000015       0.000063
  14      -0.000055      -0.000036       0.000122
  15      -0.000006       0.000003      -0.000003
  16      -0.000020      -0.000009      -0.000042
---------------------------------------------------
 Number of fixed atoms: 0
 Gradient time:  CPU 198.16 s  wall 18.04 s
 ######################################################
 ######################################################
 # Starting finite difference calculation for IDERIV  #
 Finite diff step size:  1.88973e-03 a.u.
 ----------------------------------------------------------------
             Standard Nuclear Orientation (Angstroms)
    I     Atom           X                Y                Z
 ----------------------------------------------------------------
    1      O      -0.5911887758     0.6936896813    -0.3740698093
    2      C       0.1824855854    -0.0727174748     0.4845230576
    3      O      -0.5786650749    -1.0080553970     1.1773101025
    4      C       1.3038082779    -0.7511859747    -0.2914248640
    5      O       1.9195515478     0.0680267437    -1.1248918041
    6      O       1.6011925155    -1.9079094429    -0.1015800482
    7      H      -1.1608161461     1.2680809042     0.1543233303
    8      H      -0.0638787065    -1.8270314328     1.2422095056
    9      H       2.6434119606    -0.4065503710    -1.5659144707
   10      H       0.6954520649     0.6266519764     1.2385000497
   11      O       1.4519736508     1.5029811507     2.2341021136
   12      H       2.2174146435     0.8870225142     2.2836774882
   13      C       2.8785841961    -1.5703139843     2.4696195637
   14      O       3.4364754048    -0.5163201383     2.2496577401
   15      H       1.8402854724    -1.6037728606     2.8248659563
   16      H       3.3984236837    -2.5255428941     2.3297838888
 ----------------------------------------------------------------
 Nuclear Repulsion Energy =         488.77399567 hartrees
 There are       37 alpha and       36 beta electrons
 Discretize the solute cavity surface with Lebedev spheres
	Using 110 Lebedev grid points for each H atom
	Using 194 Lebedev grid points for other atoms
	Atomic van der Waals radii will be scaled by 1.20
 Remove points where switching function is < 1.0e-08
 Keep 1403 surface tesserae and discard 1113 interior tesserae
 Molecular Surface Area = 162.445 Angst**2
 Requested basis set is 6-311++G(2df,2p)
 There are 114 shells and 376 basis functions
 A cutoff of  1.0D-12 yielded   5777 shell pairs
 There are     62655 function pairs (     78065 Cartesian)
 Smallest overlap matrix eigenvalue = 2.88E-05
 Guess MOs from SCF MO coefficient file

 -----------------------------------------------------------------------
  General SCF calculation program by
  Eric Jon Sundstrom, Paul Horn, Yuezhi Mao, Dmitri Zuev, Alec White,
  David Stuck, Shaama M.S., Shane Yost, Joonho Lee, David Small,
  Daniel Levine, Susi Lehtola, Hugh Burton, Evgeny Epifanovsky,
  Bang C. Huynh
 -----------------------------------------------------------------------
 Exchange:     0.1500 Hartree-Fock + 1.0000 wB97M-V + LR-HF
 Correlation:  1.0000 wB97M-V
 Using SG-2 standard quadrature grid
 Nonlocal Correlation:  VV10 with C = 0.0100 and b = 6.00 and scale = 1.00000
 Grid used for NLC:  SG-1 standard quadrature
 
 Citation of the SMD model:
 Marenich, A.V.; Cramer, C.J.; Truhlar, D.G.
 J. Phys. Chem. B 2009, 113, 6378-6396.
 iSolventCode=           1
 Solvent: water                                                           
 
 vradii
            1           2           3           4           5           6
    1   1.5200000   1.8500000   1.5200000   1.8500000   1.5200000   1.5200000
            7           8           9          10          11          12
    1   1.2000000   1.2000000   1.2000000   1.2000000   1.5200000   1.2000000
           13          14          15          16
    1   1.8500000   1.5200000   1.2000000   1.2000000
 -------------------------------------------------------
 OpenMP BLAS3 based DFT computing Module                
 Release: version 1.0, May 2013, Q-Chem Inc. Pittsburgh 
 -------------------------------------------------------
 A unrestricted SCF calculation will be
 performed using Roothaan-Hall, DIIS, GDM
 SCF converges when RMS gradient is below 1.0e-07
 ---------------------------------------
  Cycle       Energy         DIIS error
 ---------------------------------------
    1    -569.7877724823      2.45e-04  Roothaan Step
 ---------------------------------------
  Cycle       Energy         DIIS error
 ---------------------------------------
    1    -569.8291404554      2.84e-04  
    2    -569.8338385942      2.55e-04  Done DIIS. Switching to GDM
 ---------------------------------------
  Cycle       Energy        RMS Gradient
 ---------------------------------------
    1    -569.8338385942      2.08e-02   Normal BFGS step
    2    -569.8330357367      3.10e-02  Line search: overstep
    3    -569.8367880066      3.64e-03   Normal BFGS step
    4    -569.8369381951      1.89e-03   Normal BFGS step
    5    -569.8369628001      6.61e-04   Normal BFGS step
    6    -569.8369712351      6.51e-04   Normal BFGS step
    7    -569.8369723446      4.06e-04   Normal BFGS step
    8    -569.8369729190      1.70e-04   Normal BFGS step
    9    -569.8369730716      3.75e-05   Normal BFGS step
   10    -569.8369730929      2.33e-05   Normal BFGS step
   11    -569.8369731000      9.88e-06   Normal BFGS step
   12    -569.8369731008      9.78e-06   Normal BFGS step
   13    -569.8369731011      8.60e-06   Normal BFGS step
   14    -569.8369731013      7.48e-06   Normal BFGS step
   15    -569.8369731015      5.16e-06   Normal BFGS step
   16    -569.8369731016      4.29e-06   Normal BFGS step
   17    -569.8369731017      3.61e-06   Normal BFGS step
   18    -569.8369731018      1.74e-06   Normal BFGS step
   19    -569.8369731018      3.85e-07   Normal BFGS step
   20    -569.8369731018      1.58e-07   Normal BFGS step
   21    -569.8369731018      7.94e-08  Convergence criterion met
 ---------------------------------------
 SCF time:   CPU 1849.85s  wall 128.00s 
<S^2> =          0.756803692
(3)  G-ENP(liq) elect-nuc-pol free energy of system     -569.836973102 a.u.
(4)  G-CDS(liq) cavity-dispersion-solvent structure 
     free energy                                                6.5066 kcal/mol
(6)  G-S(liq) free energy of system                     -569.826604167 a.u.
 SCF   energy in the final basis set =     -569.8266041666
 Total energy in the final basis set =     -569.8266041666
 
 --------------------------------------------------------------
 
                    Orbital Energies (a.u.)
 --------------------------------------------------------------
 
 Alpha MOs
 -- Occupied --
-19.3987 -19.3740 -19.3661 -19.3613 -19.3598 -19.3519 -10.5044 -10.4797
-10.4426  -1.2700  -1.2213  -1.2018  -1.1814  -1.1536  -1.1228  -0.8652
 -0.7529  -0.7490  -0.6846  -0.6748  -0.6468  -0.6206  -0.6163  -0.5897
 -0.5739  -0.5546  -0.5471  -0.5289  -0.5162  -0.5012  -0.4928  -0.4539
 -0.4479  -0.4402  -0.4232  -0.3861  -0.3794
 -- Virtual --
  0.0272   0.0311   0.0404   0.0439   0.0569   0.0622   0.0734   0.0832
  0.0903   0.0970   0.0988   0.1133   0.1215   0.1308   0.1456   0.1480
  0.1582   0.1629   0.1689   0.1764   0.2010   0.2131   0.2207   0.2318
  0.2414   0.2568   0.2613   0.2639   0.2787   0.2858   0.2982   0.2989
  0.3028   0.3041   0.3130   0.3185   0.3238   0.3284   0.3351   0.3457
  0.3522   0.3551   0.3608   0.3671   0.3693   0.3799   0.3864   0.3900
  0.4055   0.4236   0.4301   0.4308   0.4546   0.4605   0.4723   0.4927
  0.5029   0.5141   0.5584   0.5805   0.5892   0.6044   0.6138   0.6357
  0.6423   0.6443   0.6675   0.6748   0.6813   0.7084   0.7176   0.7246
  0.7370   0.7667   0.7835   0.7900   0.7952   0.8115   0.8532   0.8580
  0.8677   0.8757   0.9085   0.9333   0.9446   0.9518   0.9836   1.0069
  1.0221   1.0322   1.0414   1.0553   1.0788   1.0827   1.1055   1.1171
  1.1248   1.1431   1.1480   1.1540   1.1680   1.1856   1.1905   1.2062
  1.2129   1.2200   1.2241   1.2304   1.2484   1.2629   1.2726   1.2920
  1.3118   1.3198   1.3296   1.3653   1.3845   1.4012   1.4141   1.4269
  1.4390   1.4934   1.5043   1.5181   1.5363   1.5645   1.5692   1.5822
  1.6173   1.6324   1.6659   1.6936   1.6957   1.7146   1.7212   1.7442
  1.7450   1.7738   1.7922   1.8248   1.8540   1.8939   1.9318   1.9504
  1.9714   1.9873   2.0060   2.0519   2.1169   2.1493   2.1572   2.2628
  2.2718   2.2847   2.3067   2.3317   2.3731   2.4008   2.4253   2.4442
  2.4554   2.4784   2.5175   2.5240   2.5677   2.5861   2.6272   2.6532
  2.6919   2.7269   2.7763   2.8028   2.8584   2.8887   2.9204   2.9342
  2.9403   3.0185   3.0327   3.0542   3.1067   3.1331   3.1347   3.1575
  3.1773   3.2050   3.2399   3.2571   3.2874   3.3214   3.3380   3.3573
  3.3719   3.3977   3.4211   3.4720   3.4844   3.5305   3.5634   3.5941
  3.6148   3.6290   3.6382   3.6781   3.6985   3.7552   3.7748   3.7981
  3.8056   3.8298   3.8396   3.8479   3.8611   3.9028   3.9073   3.9296
  3.9663   3.9956   4.0229   4.0960   4.1065   4.1382   4.1767   4.1841
  4.2093   4.2167   4.2326   4.2662   4.2981   4.3181   4.3857   4.3938
  4.4031   4.4811   4.5376   4.6432   4.7731   5.0302   5.0569   5.0838
  5.1022   5.1324   5.1455   5.1536   5.1605   5.1719   5.1921   5.2031
  5.2095   5.2132   5.2399   5.2518   5.2545   5.2686   5.2752   5.2931
  5.3049   5.3184   5.3203   5.3480   5.3584   5.3773   5.4228   5.4439
  5.4636   5.4983   5.5047   5.5193   5.5445   5.5571   5.5860   5.6009
  5.6053   5.6090   5.6166   5.6475   5.6602   5.6908   5.7313   5.7721
  5.9129   5.9284   5.9445   6.0072   6.1038   6.1599   6.1905   6.3057
  6.4719   6.5074   6.5774   6.7349   6.8008   6.8937   6.9144   6.9251
  7.0039   7.0103   7.0337   7.0451   7.0616   7.0771   7.0776   7.0879
  7.1382   7.2070   7.2344   7.2419   7.2545   7.2806   7.2979   7.3056
  7.3134   7.3289   7.3577   7.3688   7.4372   7.4443   7.4587   7.4995
  7.6335   7.6554   7.6740   7.7396   7.7574   7.7688   7.7739   7.8171
  7.8932   7.9074  24.7913  24.9118  25.1597  50.4779  50.5834  50.5878
 50.6249  50.6908  50.7371
 
 Beta MOs
 -- Occupied --
-19.3986 -19.3652 -19.3602 -19.3599 -19.3533 -19.3517 -10.5043 -10.4757
-10.4426  -1.2695  -1.2188  -1.2017  -1.1807  -1.1515  -1.0688  -0.8603
 -0.7527  -0.7453  -0.6805  -0.6678  -0.6406  -0.6172  -0.6123  -0.5862
 -0.5705  -0.5465  -0.5370  -0.5201  -0.5154  -0.4912  -0.4522  -0.4402
 -0.4289  -0.4189  -0.4033  -0.3845
 -- Virtual --
 -0.0763   0.0276   0.0313   0.0407   0.0440   0.0571   0.0627   0.0781
  0.0835   0.0909   0.0973   0.0995   0.1134   0.1220   0.1309   0.1462
  0.1482   0.1585   0.1631   0.1702   0.1776   0.2023   0.2151   0.2233
  0.2328   0.2429   0.2581   0.2631   0.2647   0.2795   0.2870   0.2991
  0.3002   0.3055   0.3069   0.3143   0.3190   0.3244   0.3288   0.3366
  0.3469   0.3547   0.3558   0.3621   0.3688   0.3700   0.3815   0.3895
  0.3921   0.4092   0.4249   0.4307   0.4428   0.4597   0.4641   0.4735
  0.4939   0.5042   0.5151   0.5596   0.5812   0.5912   0.6049   0.6146
  0.6367   0.6439   0.6454   0.6683   0.6757   0.6832   0.7094   0.7191
  0.7268   0.7380   0.7691   0.7842   0.7920   0.7970   0.8127   0.8538
  0.8586   0.8690   0.8765   0.9104   0.9343   0.9463   0.9538   0.9849
  1.0088   1.0240   1.0341   1.0429   1.0584   1.0793   1.0863   1.1089
  1.1187   1.1264   1.1450   1.1507   1.1556   1.1704   1.1900   1.1961
  1.2079   1.2160   1.2218   1.2300   1.2376   1.2640   1.2649   1.2771
  1.2951   1.3152   1.3214   1.3309   1.3665   1.3877   1.4043   1.4163
  1.4295   1.4400   1.4940   1.5050   1.5189   1.5387   1.5659   1.5724
  1.5870   1.6351   1.6380   1.6682   1.6964   1.7001   1.7236   1.7355
  1.7466   1.7524   1.7779   1.7970   1.8289   1.8569   1.8968   1.9375
  1.9595   1.9753   1.9925   2.0223   2.0535   2.1186   2.1528   2.1586
  2.2661   2.2731   2.2923   2.3105   2.3323   2.3759   2.4041   2.4267
  2.4460   2.4619   2.4924   2.5213   2.5242   2.5734   2.5875   2.6279
  2.6545   2.6971   2.7290   2.7778   2.8038   2.8604   2.8931   2.9216
  2.9358   2.9457   3.0187   3.0340   3.0550   3.1068   3.1333   3.1379
  3.1576   3.1802   3.2061   3.2414   3.2577   3.2894   3.3217   3.3387
  3.3592   3.3741   3.4005   3.4228   3.4741   3.4869   3.5326   3.5644
  3.6021   3.6154   3.6301   3.6404   3.6818   3.7022   3.7609   3.7813
  3.8026   3.8068   3.8325   3.8432   3.8499   3.8645   3.9077   3.9107
  3.9340   3.9719   4.0038   4.0262   4.0981   4.1066   4.1408   4.1769
  4.1854   4.2097   4.2178   4.2334   4.2665   4.2987   4.3196   4.3845
  4.3951   4.4106   4.4694   4.5326   4.6431   4.7764   5.0310   5.0715
  5.1302   5.1346   5.1413   5.1527   5.1590   5.1730   5.1910   5.1961
  5.2131   5.2187   5.2284   5.2440   5.2571   5.2680   5.2782   5.2861
  5.3024   5.3078   5.3256   5.3427   5.3523   5.3677   5.4235   5.4350
  5.4591   5.4884   5.5020   5.5061   5.5238   5.5487   5.5622   5.5957
  5.6025   5.6077   5.6157   5.6294   5.6491   5.6892   5.6983   5.7401
  5.7784   5.9139   5.9288   5.9454   6.0085   6.1057   6.1612   6.1923
  6.3057   6.4731   6.5133   6.5773   6.7365   6.8036   6.9171   6.9329
  6.9852   7.0062   7.0337   7.0459   7.0643   7.0754   7.0801   7.0821
  7.1150   7.1725   7.2087   7.2388   7.2499   7.2567   7.2987   7.3071
  7.3154   7.3207   7.3596   7.3659   7.3887   7.4429   7.4464   7.4743
  7.5025   7.6476   7.6753   7.6955   7.7437   7.7598   7.7739   7.7760
  7.8184   7.8952   7.9087  24.7946  24.9118  25.1601  50.4922  50.5841
 50.5882  50.6256  50.6908  50.7373
 --------------------------------------------------------------
 
          Ground-State Mulliken Net Atomic Charges

     Atom                 Charge (a.u.)    Spin (a.u.)
  --------------------------------------------------------
      1 O                    -0.366093       0.027078
      2 C                    -0.322101       0.180752
      3 O                    -0.353458       0.036533
      4 C                     0.331259      -0.004557
      5 O                    -0.249926       0.001248
      6 O                    -0.429390       0.010891
      7 H                     0.347360      -0.000124
      8 H                     0.321547       0.001295
      9 H                     0.362419       0.000153
     10 H                     0.478755      -0.036399
     11 O                    -0.495958       0.792688
     12 H                     0.322850      -0.008038
     13 C                    -0.066991      -0.000358
     14 O                    -0.282728      -0.000458
     15 H                     0.217328      -0.000624
     16 H                     0.185126      -0.000080
  --------------------------------------------------------
  Sum of atomic charges =     0.000000
  Sum of spin   charges =     1.000000

 -----------------------------------------------------------------
                    Cartesian Multipole Moments
 -----------------------------------------------------------------
    Charge (ESU x 10^10)
                 0.0000
    Dipole Moment (Debye)
         X       1.4000      Y      -3.6258      Z       0.1558
       Tot       3.8898
    Quadrupole Moments (Debye-Ang)
        XX     -51.2471     XY     -11.9579     YY     -52.7575
        XZ      -2.5283     YZ     -10.4534     ZZ     -50.3054
    Octopole Moments (Debye-Ang^2)
       XXX    -211.2375    XXY       4.0368    XYY     -68.2639
       YYY      48.3428    XXZ     -59.9940    XYZ     -23.5657
       YYZ     -27.3219    XZZ     -46.6809    YZZ     -15.5011
       ZZZ    -127.6731
    Hexadecapole Moments (Debye-Ang^3)
      XXXX   -1221.9942   XXXY      74.1417   XXYY    -228.7996
      XYYY     105.0855   YYYY    -456.9422   XXXZ    -359.6651
      XXYZ     -26.3791   XYYZ     -49.2253   YYYZ     -10.5484
      XXZZ    -278.1121   XYZZ     -22.9517   YYZZ    -173.3926
      XZZZ    -252.8836   YZZZ     -19.3336   ZZZZ    -741.1885
 -----------------------------------------------------------------
 Calculating analytic gradient of the SCF energy
 Gradient of CDS energy
            1           2           3           4           5           6
    1   0.0029313  -0.0060533   0.0030021   0.0018120  -0.0016078  -0.0004153
    2  -0.0029585  -0.0004764   0.0037180   0.0005177  -0.0018339   0.0010712
    3   0.0032592  -0.0002876  -0.0026749  -0.0023448   0.0020143  -0.0003878
            7           8           9          10          11          12
    1  -0.0003346  -0.0002505   0.0003153   0.0001229  -0.0003063   0.0001741
    2   0.0003628  -0.0003036   0.0000389  -0.0001286   0.0000697   0.0002212
    3  -0.0000581   0.0001181  -0.0002839  -0.0000134  -0.0000442   0.0001082
           13          14          15          16
    1   0.0013304  -0.0006015  -0.0000689  -0.0000501
    2   0.0001886  -0.0008728   0.0003429   0.0000427
    3   0.0009096   0.0001556  -0.0004302  -0.0000401
 Gradient of SCF Energy
            1           2           3           4           5           6
    1   0.0070221  -0.0019461  -0.0105799  -0.0013151  -0.0131793   0.0019633
    2  -0.0065657   0.0020161   0.0100249   0.0039729   0.0122352  -0.0109794
    3  -0.0094250  -0.0037021  -0.0004796   0.0034412   0.0061392  -0.0013400
            7           8           9          10          11          12
    1  -0.0067074   0.0084082   0.0140424   0.0025351  -0.0035030   0.0021052
    2   0.0069172  -0.0104609  -0.0081331  -0.0014077   0.0079899  -0.0062750
    3   0.0072831   0.0042712  -0.0088771   0.0017094   0.0020231  -0.0011809
           13          14          15          16
    1   0.0053325   0.0053065  -0.0143041   0.0048194
    2   0.0083810   0.0063438  -0.0019215  -0.0121377
    3  -0.0017244  -0.0010895   0.0037409  -0.0007893
 Max gradient component =       1.430E-02
 RMS gradient           =       6.952E-03
 Computing fast CPCM-SWIG gradient
 Updating gradient with PCM contributions...
 -- total gradient after adding PCM contribution --
---------------------------------------------------
  Atom         X              Y              Z     
---------------------------------------------------
   1       0.000612      -0.000527      -0.000132
   2      -0.000247       0.000187      -0.000108
   3       0.000030      -0.000026      -0.000026
   4      -0.000036       0.000047      -0.000086
   5      -0.000029      -0.000009      -0.000002
   6       0.000035      -0.000005       0.000052
   7      -0.000322       0.000332       0.000312
   8       0.000004      -0.000002       0.000010
   9       0.000009      -0.000003       0.000007
  10      -0.000019      -0.000028      -0.000118
  11      -0.000099      -0.000034       0.000208
  12       0.000138       0.000092      -0.000256
  13       0.000006       0.000014       0.000063
  14      -0.000057      -0.000033       0.000122
  15      -0.000006       0.000003      -0.000003
  16      -0.000020      -0.000009      -0.000042
---------------------------------------------------
 Number of fixed atoms: 0
 Gradient time:  CPU 195.25 s  wall 17.41 s
 ----------------------------------------------------------------
             Standard Nuclear Orientation (Angstroms)
    I     Atom           X                Y                Z
 ----------------------------------------------------------------
    1      O      -0.5931887758     0.6936896813    -0.3740698093
    2      C       0.1824855854    -0.0727174748     0.4845230576
    3      O      -0.5786650749    -1.0080553970     1.1773101025
    4      C       1.3038082779    -0.7511859747    -0.2914248640
    5      O       1.9195515478     0.0680267437    -1.1248918041
    6      O       1.6011925155    -1.9079094429    -0.1015800482
    7      H      -1.1608161461     1.2680809042     0.1543233303
    8      H      -0.0638787065    -1.8270314328     1.2422095056
    9      H       2.6434119606    -0.4065503710    -1.5659144707
   10      H       0.6954520649     0.6266519764     1.2385000497
   11      O       1.4519736508     1.5029811507     2.2341021136
   12      H       2.2174146435     0.8870225142     2.2836774882
   13      C       2.8785841961    -1.5703139843     2.4696195637
   14      O       3.4364754048    -0.5163201383     2.2496577401
   15      H       1.8402854724    -1.6037728606     2.8248659563
   16      H       3.3984236837    -2.5255428941     2.3297838888
 ----------------------------------------------------------------
 Nuclear Repulsion Energy =         488.73512362 hartrees
 There are       37 alpha and       36 beta electrons
 Discretize the solute cavity surface with Lebedev spheres
	Using 110 Lebedev grid points for each H atom
	Using 194 Lebedev grid points for other atoms
	Atomic van der Waals radii will be scaled by 1.20
 Remove points where switching function is < 1.0e-08
 Keep 1403 surface tesserae and discard 1113 interior tesserae
 Molecular Surface Area = 162.454 Angst**2
 Requested basis set is 6-311++G(2df,2p)
 There are 114 shells and 376 basis functions
 A cutoff of  1.0D-12 yielded   5777 shell pairs
 There are     62655 function pairs (     78065 Cartesian)
 Smallest overlap matrix eigenvalue = 2.89E-05
 Guess MOs from SCF MO coefficient file

 -----------------------------------------------------------------------
  General SCF calculation program by
  Eric Jon Sundstrom, Paul Horn, Yuezhi Mao, Dmitri Zuev, Alec White,
  David Stuck, Shaama M.S., Shane Yost, Joonho Lee, David Small,
  Daniel Levine, Susi Lehtola, Hugh Burton, Evgeny Epifanovsky,
  Bang C. Huynh
 -----------------------------------------------------------------------
 Exchange:     0.1500 Hartree-Fock + 1.0000 wB97M-V + LR-HF
 Correlation:  1.0000 wB97M-V
 Using SG-2 standard quadrature grid
 Nonlocal Correlation:  VV10 with C = 0.0100 and b = 6.00 and scale = 1.00000
 Grid used for NLC:  SG-1 standard quadrature
 
 Citation of the SMD model:
 Marenich, A.V.; Cramer, C.J.; Truhlar, D.G.
 J. Phys. Chem. B 2009, 113, 6378-6396.
 iSolventCode=           1
 Solvent: water                                                           
 
 vradii
            1           2           3           4           5           6
    1   1.5200000   1.8500000   1.5200000   1.8500000   1.5200000   1.5200000
            7           8           9          10          11          12
    1   1.2000000   1.2000000   1.2000000   1.2000000   1.5200000   1.2000000
           13          14          15          16
    1   1.8500000   1.5200000   1.2000000   1.2000000
 -------------------------------------------------------
 OpenMP BLAS3 based DFT computing Module                
 Release: version 1.0, May 2013, Q-Chem Inc. Pittsburgh 
 -------------------------------------------------------
 A unrestricted SCF calculation will be
 performed using Roothaan-Hall, DIIS, GDM
 SCF converges when RMS gradient is below 1.0e-07
 ---------------------------------------
  Cycle       Energy         DIIS error
 ---------------------------------------
    1    -569.7877622392      2.45e-04  Roothaan Step
 ---------------------------------------
  Cycle       Energy         DIIS error
 ---------------------------------------
    1    -569.8291327457      2.84e-04  
    2    -569.8338361327      2.55e-04  Done DIIS. Switching to GDM
 ---------------------------------------
  Cycle       Energy        RMS Gradient
 ---------------------------------------
    1    -569.8338361327      2.08e-02   Normal BFGS step
    2    -569.8330346627      3.10e-02  Line search: overstep
    3    -569.8367775136      3.64e-03   Normal BFGS step
    4    -569.8369275074      1.85e-03   Normal BFGS step
    5    -569.8369518887      6.60e-04   Normal BFGS step
    6    -569.8369602100      6.33e-04   Normal BFGS step
    7    -569.8369612691      3.93e-04   Normal BFGS step
    8    -569.8369618052      1.70e-04   Normal BFGS step
    9    -569.8369619574      3.64e-05   Normal BFGS step
   10    -569.8369619775      2.33e-05   Normal BFGS step
   11    -569.8369619846      9.42e-06   Normal BFGS step
   12    -569.8369619851      6.81e-06   Normal BFGS step
   13    -569.8369619854      3.43e-06   Normal BFGS step
   14    -569.8369619855      1.99e-06   Normal BFGS step
   15    -569.8369619855      1.64e-06   Normal BFGS step
   16    -569.8369619855      1.45e-06   Normal BFGS step
   17    -569.8369619855      1.18e-06   Normal BFGS step
   18    -569.8369619855      7.73e-07   Normal BFGS step
   19    -569.8369619855      2.97e-07   Normal BFGS step
   20    -569.8369619855      1.82e-07   Normal BFGS step
   21    -569.8369619855      8.46e-08  Convergence criterion met
 ---------------------------------------
 SCF time:   CPU 1842.31s  wall 128.00s 
<S^2> =          0.756795048
(3)  G-ENP(liq) elect-nuc-pol free energy of system     -569.836961986 a.u.
(4)  G-CDS(liq) cavity-dispersion-solvent structure 
     free energy                                                6.4997 kcal/mol
(6)  G-S(liq) free energy of system                     -569.826604101 a.u.
 SCF   energy in the final basis set =     -569.8266041008
 Total energy in the final basis set =     -569.8266041008
 
 --------------------------------------------------------------
 
                    Orbital Energies (a.u.)
 --------------------------------------------------------------
 
 Alpha MOs
 -- Occupied --
-19.3987 -19.3741 -19.3660 -19.3613 -19.3598 -19.3520 -10.5045 -10.4798
-10.4426  -1.2700  -1.2212  -1.2018  -1.1814  -1.1535  -1.1229  -0.8653
 -0.7529  -0.7490  -0.6845  -0.6749  -0.6468  -0.6206  -0.6162  -0.5897
 -0.5740  -0.5546  -0.5471  -0.5289  -0.5162  -0.5012  -0.4929  -0.4539
 -0.4480  -0.4402  -0.4232  -0.3861  -0.3795
 -- Virtual --
  0.0272   0.0311   0.0404   0.0439   0.0569   0.0622   0.0733   0.0832
  0.0903   0.0970   0.0988   0.1133   0.1215   0.1308   0.1456   0.1481
  0.1582   0.1629   0.1689   0.1765   0.2010   0.2131   0.2207   0.2317
  0.2413   0.2567   0.2613   0.2639   0.2787   0.2858   0.2981   0.2990
  0.3028   0.3042   0.3130   0.3185   0.3238   0.3283   0.3351   0.3456
  0.3522   0.3551   0.3608   0.3671   0.3693   0.3799   0.3864   0.3899
  0.4054   0.4236   0.4301   0.4307   0.4546   0.4606   0.4723   0.4927
  0.5028   0.5141   0.5584   0.5805   0.5891   0.6045   0.6138   0.6356
  0.6422   0.6445   0.6676   0.6748   0.6814   0.7083   0.7175   0.7246
  0.7370   0.7668   0.7835   0.7899   0.7951   0.8115   0.8531   0.8580
  0.8676   0.8757   0.9087   0.9333   0.9446   0.9518   0.9836   1.0069
  1.0220   1.0323   1.0413   1.0553   1.0788   1.0827   1.1056   1.1171
  1.1247   1.1431   1.1480   1.1539   1.1680   1.1856   1.1905   1.2063
  1.2129   1.2199   1.2240   1.2304   1.2484   1.2628   1.2725   1.2918
  1.3117   1.3198   1.3296   1.3652   1.3845   1.4012   1.4141   1.4269
  1.4390   1.4936   1.5044   1.5182   1.5363   1.5646   1.5691   1.5821
  1.6174   1.6324   1.6658   1.6934   1.6957   1.7144   1.7212   1.7441
  1.7450   1.7738   1.7922   1.8249   1.8540   1.8939   1.9317   1.9504
  1.9714   1.9872   2.0060   2.0520   2.1168   2.1492   2.1572   2.2626
  2.2717   2.2846   2.3065   2.3313   2.3723   2.4006   2.4252   2.4442
  2.4552   2.4782   2.5172   2.5239   2.5676   2.5859   2.6272   2.6531
  2.6918   2.7268   2.7766   2.8029   2.8584   2.8887   2.9204   2.9341
  2.9402   3.0185   3.0327   3.0542   3.1067   3.1331   3.1346   3.1575
  3.1772   3.2049   3.2398   3.2570   3.2870   3.3214   3.3380   3.3573
  3.3719   3.3977   3.4209   3.4717   3.4844   3.5305   3.5634   3.5944
  3.6149   3.6290   3.6382   3.6781   3.6983   3.7553   3.7747   3.7979
  3.8055   3.8298   3.8394   3.8479   3.8611   3.9029   3.9071   3.9292
  3.9663   3.9954   4.0229   4.0960   4.1065   4.1385   4.1767   4.1841
  4.2094   4.2168   4.2327   4.2663   4.2982   4.3185   4.3859   4.3944
  4.4030   4.4809   4.5376   4.6432   4.7731   5.0302   5.0568   5.0837
  5.1021   5.1324   5.1454   5.1536   5.1604   5.1718   5.1921   5.2030
  5.2094   5.2131   5.2399   5.2516   5.2544   5.2686   5.2752   5.2928
  5.3049   5.3183   5.3204   5.3478   5.3584   5.3773   5.4230   5.4439
  5.4636   5.4982   5.5046   5.5192   5.5444   5.5570   5.5859   5.6022
  5.6052   5.6091   5.6170   5.6475   5.6601   5.6907   5.7314   5.7721
  5.9130   5.9284   5.9447   6.0065   6.1026   6.1592   6.1890   6.3057
  6.4715   6.5064   6.5774   6.7337   6.8001   6.8936   6.9143   6.9250
  7.0039   7.0102   7.0337   7.0450   7.0616   7.0770   7.0776   7.0878
  7.1382   7.2070   7.2343   7.2442   7.2548   7.2806   7.2984   7.3060
  7.3135   7.3294   7.3579   7.3687   7.4376   7.4444   7.4587   7.4993
  7.6334   7.6552   7.6738   7.7397   7.7574   7.7686   7.7738   7.8171
  7.8931   7.9067  24.7894  24.9118  25.1595  50.4778  50.5836  50.5879
 50.6248  50.6908  50.7370
 
 Beta MOs
 -- Occupied --
-19.3986 -19.3651 -19.3602 -19.3599 -19.3534 -19.3517 -10.5044 -10.4758
-10.4426  -1.2695  -1.2187  -1.2017  -1.1806  -1.1515  -1.0689  -0.8603
 -0.7527  -0.7453  -0.6804  -0.6678  -0.6406  -0.6172  -0.6123  -0.5862
 -0.5705  -0.5465  -0.5370  -0.5200  -0.5154  -0.4913  -0.4523  -0.4402
 -0.4290  -0.4190  -0.4033  -0.3845
 -- Virtual --
 -0.0763   0.0276   0.0313   0.0407   0.0440   0.0571   0.0627   0.0780
  0.0835   0.0909   0.0973   0.0995   0.1134   0.1220   0.1309   0.1462
  0.1482   0.1585   0.1631   0.1702   0.1776   0.2023   0.2151   0.2233
  0.2327   0.2428   0.2580   0.2631   0.2648   0.2795   0.2870   0.2991
  0.3002   0.3055   0.3069   0.3143   0.3190   0.3243   0.3287   0.3366
  0.3468   0.3547   0.3558   0.3620   0.3688   0.3700   0.3816   0.3894
  0.3921   0.4092   0.4248   0.4306   0.4428   0.4597   0.4641   0.4734
  0.4938   0.5041   0.5150   0.5596   0.5812   0.5911   0.6050   0.6146
  0.6366   0.6439   0.6456   0.6683   0.6757   0.6832   0.7094   0.7190
  0.7268   0.7380   0.7691   0.7842   0.7919   0.7969   0.8126   0.8538
  0.8586   0.8690   0.8766   0.9105   0.9343   0.9463   0.9538   0.9848
  1.0087   1.0239   1.0342   1.0428   1.0584   1.0792   1.0863   1.1089
  1.1187   1.1264   1.1450   1.1507   1.1555   1.1704   1.1900   1.1961
  1.2079   1.2160   1.2218   1.2300   1.2374   1.2640   1.2648   1.2770
  1.2950   1.3151   1.3215   1.3309   1.3665   1.3877   1.4042   1.4163
  1.4295   1.4400   1.4942   1.5050   1.5190   1.5387   1.5660   1.5723
  1.5869   1.6351   1.6380   1.6682   1.6962   1.7001   1.7234   1.7355
  1.7465   1.7524   1.7779   1.7971   1.8290   1.8569   1.8968   1.9374
  1.9595   1.9753   1.9924   2.0223   2.0535   2.1185   2.1528   2.1587
  2.2658   2.2730   2.2922   2.3103   2.3319   2.3751   2.4039   2.4266
  2.4459   2.4617   2.4923   2.5210   2.5241   2.5732   2.5874   2.6279
  2.6544   2.6970   2.7289   2.7781   2.8039   2.8604   2.8931   2.9216
  2.9357   2.9457   3.0187   3.0340   3.0551   3.1068   3.1333   3.1378
  3.1576   3.1801   3.2060   3.2413   3.2576   3.2889   3.3217   3.3387
  3.3592   3.3741   3.4005   3.4226   3.4738   3.4869   3.5325   3.5644
  3.6024   3.6154   3.6301   3.6404   3.6818   3.7020   3.7611   3.7813
  3.8024   3.8067   3.8325   3.8430   3.8499   3.8645   3.9078   3.9105
  3.9337   3.9720   4.0036   4.0262   4.0981   4.1067   4.1412   4.1769
  4.1854   4.2097   4.2179   4.2335   4.2666   4.2989   4.3200   4.3848
  4.3957   4.4106   4.4692   4.5326   4.6431   4.7764   5.0310   5.0714
  5.1301   5.1346   5.1412   5.1526   5.1590   5.1730   5.1909   5.1960
  5.2131   5.2187   5.2283   5.2439   5.2569   5.2677   5.2782   5.2860
  5.3022   5.3078   5.3256   5.3427   5.3521   5.3677   5.4237   5.4349
  5.4590   5.4882   5.5019   5.5061   5.5238   5.5487   5.5621   5.5957
  5.6039   5.6077   5.6161   5.6294   5.6492   5.6892   5.6982   5.7401
  5.7785   5.9140   5.9288   5.9456   6.0078   6.1045   6.1605   6.1908
  6.3057   6.4727   6.5124   6.5773   6.7354   6.8029   6.9171   6.9329
  6.9852   7.0062   7.0337   7.0459   7.0643   7.0753   7.0801   7.0821
  7.1150   7.1724   7.2087   7.2388   7.2526   7.2569   7.2991   7.3071
  7.3160   7.3208   7.3598   7.3658   7.3887   7.4432   7.4467   7.4743
  7.5022   7.6473   7.6751   7.6954   7.7438   7.7597   7.7737   7.7760
  7.8184   7.8951   7.9079  24.7927  24.9118  25.1599  50.4921  50.5842
 50.5883  50.6256  50.6907  50.7372
 --------------------------------------------------------------
 
          Ground-State Mulliken Net Atomic Charges

     Atom                 Charge (a.u.)    Spin (a.u.)
  --------------------------------------------------------
      1 O                    -0.366396       0.026893
      2 C                    -0.322385       0.180602
      3 O                    -0.353315       0.036473
      4 C                     0.331420      -0.004539
      5 O                    -0.249858       0.001248
      6 O                    -0.429318       0.010877
      7 H                     0.346943      -0.000137
      8 H                     0.321507       0.001291
      9 H                     0.362444       0.000152
     10 H                     0.478888      -0.036419
     11 O                    -0.495544       0.793120
     12 H                     0.322871      -0.008042
     13 C                    -0.066993      -0.000356
     14 O                    -0.282724      -0.000459
     15 H                     0.217331      -0.000624
     16 H                     0.185128      -0.000080
  --------------------------------------------------------
  Sum of atomic charges =     0.000000
  Sum of spin   charges =     1.000000

 -----------------------------------------------------------------
                    Cartesian Multipole Moments
 -----------------------------------------------------------------
    Charge (ESU x 10^10)
                 0.0000
    Dipole Moment (Debye)
         X       1.4119      Y      -3.6262      Z       0.1623
       Tot       3.8948
    Quadrupole Moments (Debye-Ang)
        XX     -51.2470     XY     -11.9496     YY     -52.7518
        XZ      -2.5231     YZ     -10.4448     ZZ     -50.2919
    Octopole Moments (Debye-Ang^2)
       XXX    -211.1720    XXY       4.0356    XYY     -68.2350
       YYY      48.3459    XXZ     -59.9754    XYZ     -23.5557
       YYZ     -27.3058    XZZ     -46.6445    YZZ     -15.4840
       ZZZ    -127.6319
    Hexadecapole Moments (Debye-Ang^3)
      XXXX   -1222.0324   XXXY      74.1768   XXYY    -228.7887
      XYYY     105.1206   YYYY    -456.8994   XXXZ    -359.6508
      XXYZ     -26.3583   XYYZ     -49.2097   YYYZ     -10.5147
      XXZZ    -278.0809   XYZZ     -22.9142   YYZZ    -173.3522
      XZZZ    -252.8401   YZZZ     -19.2739   ZZZZ    -741.0701
 -----------------------------------------------------------------
 Calculating analytic gradient of the SCF energy
 Gradient of CDS energy
            1           2           3           4           5           6
    1   0.0029154  -0.0060346   0.0030010   0.0018121  -0.0016087  -0.0004153
    2  -0.0029365  -0.0004997   0.0037177   0.0005182  -0.0018339   0.0010712
    3   0.0032336  -0.0002602  -0.0026752  -0.0023456   0.0020145  -0.0003878
            7           8           9          10          11          12
    1  -0.0003355  -0.0002505   0.0003153   0.0001229  -0.0003063   0.0001741
    2   0.0003642  -0.0003036   0.0000389  -0.0001289   0.0000697   0.0002212
    3  -0.0000593   0.0001181  -0.0002839  -0.0000131  -0.0000442   0.0001082
           13          14          15          16
    1   0.0013304  -0.0006015  -0.0000689  -0.0000501
    2   0.0001886  -0.0008728   0.0003429   0.0000427
    3   0.0009096   0.0001556  -0.0004302  -0.0000401
 Gradient of SCF Energy
            1           2           3           4           5           6
    1   0.0057076  -0.0014326  -0.0106647  -0.0012429  -0.0131757   0.0019787
    2  -0.0055074   0.0017179   0.0100522   0.0039245   0.0122344  -0.0110161
    3  -0.0091522  -0.0034805  -0.0005042   0.0035472   0.0061245  -0.0013574
            7           8           9          10          11          12
    1  -0.0060091   0.0084189   0.0140470   0.0026464  -0.0035385   0.0021034
    2   0.0062353  -0.0104570  -0.0081380  -0.0014021   0.0079697  -0.0062762
    3   0.0066294   0.0042702  -0.0088771   0.0018545   0.0019904  -0.0011809
           13          14          15          16
    1   0.0053335   0.0053188  -0.0143154   0.0048245
    2   0.0083824   0.0063454  -0.0019183  -0.0121466
    3  -0.0017250  -0.0010927   0.0037447  -0.0007911
 Max gradient component =       1.432E-02
 RMS gradient           =       6.860E-03
 Computing fast CPCM-SWIG gradient
 Updating gradient with PCM contributions...
 -- total gradient after adding PCM contribution --
---------------------------------------------------
  Atom         X              Y              Z     
---------------------------------------------------
   1      -0.000648       0.000520       0.000136
   2       0.000278      -0.000102       0.000127
   3      -0.000044      -0.000008      -0.000041
   4       0.000031      -0.000004       0.000009
   5      -0.000019      -0.000015      -0.000013
   6       0.000050      -0.000032       0.000035
   7       0.000331      -0.000337      -0.000338
   8       0.000007       0.000004       0.000006
   9       0.000006      -0.000004       0.000008
  10       0.000074      -0.000029       0.000012
  11      -0.000114      -0.000066       0.000177
  12       0.000122       0.000101      -0.000258
  13       0.000006       0.000017       0.000062
  14      -0.000054      -0.000038       0.000122
  15      -0.000006       0.000003      -0.000003
  16      -0.000020      -0.000010      -0.000042
---------------------------------------------------
 Number of fixed atoms: 0
 Gradient time:  CPU 202.06 s  wall 18.14 s
 ----------------------------------------------------------------
             Standard Nuclear Orientation (Angstroms)
    I     Atom           X                Y                Z
 ----------------------------------------------------------------
    1      O      -0.5921887758     0.6946896813    -0.3740698093
    2      C       0.1824855854    -0.0727174748     0.4845230576
    3      O      -0.5786650749    -1.0080553970     1.1773101025
    4      C       1.3038082779    -0.7511859747    -0.2914248640
    5      O       1.9195515478     0.0680267437    -1.1248918041
    6      O       1.6011925155    -1.9079094429    -0.1015800482
    7      H      -1.1608161461     1.2680809042     0.1543233303
    8      H      -0.0638787065    -1.8270314328     1.2422095056
    9      H       2.6434119606    -0.4065503710    -1.5659144707
   10      H       0.6954520649     0.6266519764     1.2385000497
   11      O       1.4519736508     1.5029811507     2.2341021136
   12      H       2.2174146435     0.8870225142     2.2836774882
   13      C       2.8785841961    -1.5703139843     2.4696195637
   14      O       3.4364754048    -0.5163201383     2.2496577401
   15      H       1.8402854724    -1.6037728606     2.8248659563
   16      H       3.3984236837    -2.5255428941     2.3297838888
 ----------------------------------------------------------------
 Nuclear Repulsion Energy =         488.73848413 hartrees
 There are       37 alpha and       36 beta electrons
 Discretize the solute cavity surface with Lebedev spheres
	Using 110 Lebedev grid points for each H atom
	Using 194 Lebedev grid points for other atoms
	Atomic van der Waals radii will be scaled by 1.20
 Remove points where switching function is < 1.0e-08
 Keep 1403 surface tesserae and discard 1113 interior tesserae
 Molecular Surface Area = 162.452 Angst**2
 Requested basis set is 6-311++G(2df,2p)
 There are 114 shells and 376 basis functions
 A cutoff of  1.0D-12 yielded   5777 shell pairs
 There are     62655 function pairs (     78065 Cartesian)
 Smallest overlap matrix eigenvalue = 2.88E-05
 Guess MOs from SCF MO coefficient file

 -----------------------------------------------------------------------
  General SCF calculation program by
  Eric Jon Sundstrom, Paul Horn, Yuezhi Mao, Dmitri Zuev, Alec White,
  David Stuck, Shaama M.S., Shane Yost, Joonho Lee, David Small,
  Daniel Levine, Susi Lehtola, Hugh Burton, Evgeny Epifanovsky,
  Bang C. Huynh
 -----------------------------------------------------------------------
 Exchange:     0.1500 Hartree-Fock + 1.0000 wB97M-V + LR-HF
 Correlation:  1.0000 wB97M-V
 Using SG-2 standard quadrature grid
 Nonlocal Correlation:  VV10 with C = 0.0100 and b = 6.00 and scale = 1.00000
 Grid used for NLC:  SG-1 standard quadrature
 
 Citation of the SMD model:
 Marenich, A.V.; Cramer, C.J.; Truhlar, D.G.
 J. Phys. Chem. B 2009, 113, 6378-6396.
 iSolventCode=           1
 Solvent: water                                                           
 
 vradii
            1           2           3           4           5           6
    1   1.5200000   1.8500000   1.5200000   1.8500000   1.5200000   1.5200000
            7           8           9          10          11          12
    1   1.2000000   1.2000000   1.2000000   1.2000000   1.5200000   1.2000000
           13          14          15          16
    1   1.8500000   1.5200000   1.2000000   1.2000000
 -------------------------------------------------------
 OpenMP BLAS3 based DFT computing Module                
 Release: version 1.0, May 2013, Q-Chem Inc. Pittsburgh 
 -------------------------------------------------------
 A unrestricted SCF calculation will be
 performed using Roothaan-Hall, DIIS, GDM
 SCF converges when RMS gradient is below 1.0e-07
 ---------------------------------------
  Cycle       Energy         DIIS error
 ---------------------------------------
    1    -569.7877674104      2.45e-04  Roothaan Step
 ---------------------------------------
  Cycle       Energy         DIIS error
 ---------------------------------------
    1    -569.8291287725      2.84e-04  
    2    -569.8338312051      2.55e-04  Done DIIS. Switching to GDM
 ---------------------------------------
  Cycle       Energy        RMS Gradient
 ---------------------------------------
    1    -569.8338312051      2.08e-02   Normal BFGS step
    2    -569.8330290600      3.10e-02  Line search: overstep
    3    -569.8367768718      3.64e-03   Normal BFGS step
    4    -569.8369271250      1.89e-03   Normal BFGS step
    5    -569.8369516978      6.60e-04   Normal BFGS step
    6    -569.8369601095      6.49e-04   Normal BFGS step
    7    -569.8369612136      4.05e-04   Normal BFGS step
    8    -569.8369617827      1.70e-04   Normal BFGS step
    9    -569.8369619357      3.73e-05   Normal BFGS step
   10    -569.8369619568      2.34e-05   Normal BFGS step
   11    -569.8369619640      1.04e-05   Normal BFGS step
   12    -569.8369619647      1.02e-05   Normal BFGS step
   13    -569.8369619651      8.98e-06   Normal BFGS step
   14    -569.8369619653      7.78e-06   Normal BFGS step
   15    -569.8369619655      5.28e-06   Normal BFGS step
   16    -569.8369619657      4.53e-06   Normal BFGS step
   17    -569.8369619658      3.70e-06   Normal BFGS step
   18    -569.8369619658      1.73e-06   Normal BFGS step
   19    -569.8369619658      3.88e-07   Normal BFGS step
   20    -569.8369619659      1.58e-07   Normal BFGS step
   21    -569.8369619659      7.90e-08  Convergence criterion met
 ---------------------------------------
 SCF time:   CPU 1843.77s  wall 127.00s 
<S^2> =          0.756799670
(3)  G-ENP(liq) elect-nuc-pol free energy of system     -569.836961966 a.u.
(4)  G-CDS(liq) cavity-dispersion-solvent structure 
     free energy                                                6.4996 kcal/mol
(6)  G-S(liq) free energy of system                     -569.826604126 a.u.
 SCF   energy in the final basis set =     -569.8266041265
 Total energy in the final basis set =     -569.8266041265
 
 --------------------------------------------------------------
 
                    Orbital Energies (a.u.)
 --------------------------------------------------------------
 
 Alpha MOs
 -- Occupied --
-19.3987 -19.3741 -19.3660 -19.3614 -19.3598 -19.3520 -10.5045 -10.4798
-10.4426  -1.2700  -1.2212  -1.2018  -1.1814  -1.1536  -1.1228  -0.8653
 -0.7529  -0.7490  -0.6845  -0.6748  -0.6468  -0.6206  -0.6163  -0.5897
 -0.5740  -0.5546  -0.5471  -0.5289  -0.5162  -0.5012  -0.4929  -0.4539
 -0.4480  -0.4402  -0.4232  -0.3861  -0.3795
 -- Virtual --
  0.0272   0.0311   0.0404   0.0439   0.0569   0.0622   0.0733   0.0832
  0.0903   0.0970   0.0988   0.1133   0.1215   0.1308   0.1456   0.1481
  0.1582   0.1629   0.1689   0.1765   0.2010   0.2131   0.2207   0.2317
  0.2413   0.2568   0.2613   0.2639   0.2787   0.2858   0.2982   0.2989
  0.3028   0.3042   0.3130   0.3185   0.3238   0.3283   0.3351   0.3456
  0.3522   0.3551   0.3607   0.3671   0.3693   0.3799   0.3864   0.3898
  0.4054   0.4236   0.4301   0.4307   0.4546   0.4605   0.4722   0.4927
  0.5027   0.5141   0.5584   0.5805   0.5891   0.6044   0.6138   0.6357
  0.6423   0.6445   0.6676   0.6748   0.6814   0.7083   0.7176   0.7246
  0.7369   0.7667   0.7835   0.7899   0.7951   0.8115   0.8531   0.8580
  0.8677   0.8756   0.9086   0.9333   0.9446   0.9518   0.9836   1.0069
  1.0221   1.0323   1.0414   1.0553   1.0788   1.0827   1.1055   1.1171
  1.1247   1.1431   1.1480   1.1539   1.1681   1.1856   1.1905   1.2062
  1.2129   1.2200   1.2241   1.2304   1.2484   1.2628   1.2725   1.2919
  1.3118   1.3198   1.3296   1.3653   1.3845   1.4011   1.4141   1.4269
  1.4389   1.4936   1.5044   1.5182   1.5364   1.5646   1.5692   1.5821
  1.6173   1.6325   1.6658   1.6936   1.6957   1.7146   1.7212   1.7441
  1.7450   1.7738   1.7920   1.8248   1.8539   1.8938   1.9319   1.9504
  1.9713   1.9872   2.0059   2.0519   2.1167   2.1492   2.1570   2.2627
  2.2718   2.2847   2.3065   2.3314   2.3723   2.4006   2.4252   2.4442
  2.4552   2.4782   2.5174   2.5240   2.5677   2.5860   2.6272   2.6531
  2.6918   2.7268   2.7766   2.8028   2.8584   2.8887   2.9204   2.9341
  2.9402   3.0185   3.0326   3.0541   3.1067   3.1330   3.1346   3.1575
  3.1772   3.2049   3.2398   3.2570   3.2870   3.3214   3.3380   3.3573
  3.3719   3.3976   3.4209   3.4717   3.4843   3.5305   3.5634   3.5943
  3.6149   3.6290   3.6382   3.6781   3.6984   3.7553   3.7748   3.7980
  3.8055   3.8298   3.8394   3.8479   3.8611   3.9027   3.9071   3.9291
  3.9663   3.9954   4.0229   4.0960   4.1065   4.1385   4.1767   4.1841
  4.2094   4.2168   4.2327   4.2663   4.2980   4.3187   4.3859   4.3943
  4.4030   4.4810   4.5375   4.6432   4.7731   5.0302   5.0569   5.0837
  5.1021   5.1324   5.1454   5.1536   5.1605   5.1718   5.1921   5.2030
  5.2095   5.2131   5.2399   5.2516   5.2544   5.2686   5.2750   5.2929
  5.3049   5.3183   5.3204   5.3479   5.3584   5.3773   5.4229   5.4439
  5.4636   5.4982   5.5046   5.5193   5.5444   5.5569   5.5860   5.6021
  5.6052   5.6092   5.6170   5.6475   5.6599   5.6907   5.7315   5.7721
  5.9126   5.9283   5.9444   6.0065   6.1030   6.1591   6.1896   6.3057
  6.4716   6.5065   6.5774   6.7337   6.8000   6.8936   6.9143   6.9250
  7.0039   7.0102   7.0337   7.0450   7.0616   7.0770   7.0776   7.0878
  7.1382   7.2069   7.2344   7.2442   7.2548   7.2807   7.2983   7.3062
  7.3135   7.3294   7.3578   7.3686   7.4376   7.4444   7.4587   7.4991
  7.6334   7.6552   7.6738   7.7396   7.7574   7.7686   7.7737   7.8171
  7.8931   7.9068  24.7894  24.9118  25.1595  50.4778  50.5837  50.5878
 50.6248  50.6908  50.7370
 
 Beta MOs
 -- Occupied --
-19.3986 -19.3651 -19.3602 -19.3599 -19.3533 -19.3517 -10.5044 -10.4758
-10.4426  -1.2695  -1.2187  -1.2017  -1.1807  -1.1515  -1.0688  -0.8604
 -0.7527  -0.7453  -0.6804  -0.6678  -0.6406  -0.6172  -0.6123  -0.5862
 -0.5705  -0.5465  -0.5370  -0.5201  -0.5154  -0.4913  -0.4523  -0.4402
 -0.4289  -0.4190  -0.4033  -0.3845
 -- Virtual --
 -0.0763   0.0276   0.0313   0.0407   0.0440   0.0571   0.0627   0.0780
  0.0835   0.0909   0.0973   0.0995   0.1134   0.1220   0.1309   0.1462
  0.1482   0.1585   0.1631   0.1702   0.1776   0.2023   0.2151   0.2233
  0.2327   0.2428   0.2581   0.2631   0.2648   0.2795   0.2870   0.2991
  0.3002   0.3055   0.3069   0.3143   0.3190   0.3244   0.3287   0.3366
  0.3468   0.3547   0.3558   0.3620   0.3688   0.3699   0.3815   0.3894
  0.3920   0.4092   0.4249   0.4306   0.4428   0.4597   0.4641   0.4734
  0.4939   0.5041   0.5150   0.5596   0.5812   0.5912   0.6050   0.6146
  0.6367   0.6439   0.6456   0.6684   0.6757   0.6832   0.7094   0.7191
  0.7268   0.7379   0.7691   0.7842   0.7919   0.7969   0.8126   0.8538
  0.8586   0.8690   0.8765   0.9105   0.9343   0.9462   0.9538   0.9849
  1.0088   1.0240   1.0342   1.0429   1.0584   1.0792   1.0863   1.1089
  1.1187   1.1264   1.1450   1.1506   1.1555   1.1705   1.1900   1.1961
  1.2079   1.2160   1.2218   1.2300   1.2375   1.2640   1.2649   1.2770
  1.2950   1.3152   1.3214   1.3309   1.3665   1.3876   1.4042   1.4163
  1.4295   1.4399   1.4942   1.5050   1.5190   1.5387   1.5660   1.5724
  1.5869   1.6351   1.6381   1.6682   1.6964   1.7001   1.7236   1.7355
  1.7465   1.7524   1.7779   1.7969   1.8289   1.8568   1.8967   1.9376
  1.9595   1.9752   1.9924   2.0223   2.0535   2.1184   2.1528   2.1584
  2.2660   2.2731   2.2923   2.3103   2.3320   2.3751   2.4039   2.4266
  2.4460   2.4617   2.4924   2.5212   2.5241   2.5733   2.5874   2.6279
  2.6545   2.6970   2.7289   2.7782   2.8038   2.8604   2.8931   2.9216
  2.9357   2.9457   3.0187   3.0339   3.0549   3.1068   3.1333   3.1378
  3.1576   3.1801   3.2060   3.2413   3.2576   3.2890   3.3217   3.3387
  3.3592   3.3740   3.4005   3.4226   3.4739   3.4868   3.5325   3.5644
  3.6023   3.6154   3.6301   3.6404   3.6818   3.7021   3.7611   3.7813
  3.8025   3.8067   3.8325   3.8430   3.8499   3.8645   3.9077   3.9105
  3.9336   3.9719   4.0035   4.0262   4.0981   4.1067   4.1411   4.1769
  4.1854   4.2097   4.2179   4.2335   4.2665   4.2987   4.3202   4.3847
  4.3957   4.4106   4.4693   4.5325   4.6431   4.7764   5.0310   5.0714
  5.1302   5.1346   5.1412   5.1527   5.1590   5.1730   5.1910   5.1961
  5.2131   5.2187   5.2284   5.2439   5.2569   5.2678   5.2781   5.2860
  5.3023   5.3078   5.3256   5.3427   5.3521   5.3677   5.4236   5.4350
  5.4590   5.4883   5.5020   5.5061   5.5238   5.5487   5.5620   5.5957
  5.6038   5.6076   5.6161   5.6294   5.6491   5.6891   5.6982   5.7402
  5.7784   5.9136   5.9287   5.9453   6.0078   6.1050   6.1604   6.1914
  6.3057   6.4728   6.5124   6.5773   6.7354   6.8027   6.9171   6.9329
  6.9852   7.0062   7.0337   7.0459   7.0643   7.0753   7.0801   7.0821
  7.1150   7.1724   7.2086   7.2388   7.2526   7.2569   7.2991   7.3071
  7.3161   7.3208   7.3597   7.3658   7.3887   7.4432   7.4467   7.4743
  7.5020   7.6473   7.6752   7.6954   7.7437   7.7597   7.7737   7.7759
  7.8184   7.8951   7.9081  24.7927  24.9118  25.1599  50.4921  50.5843
 50.5882  50.6255  50.6907  50.7372
 --------------------------------------------------------------
 
          Ground-State Mulliken Net Atomic Charges

     Atom                 Charge (a.u.)    Spin (a.u.)
  --------------------------------------------------------
      1 O                    -0.366286       0.026973
      2 C                    -0.322471       0.180676
      3 O                    -0.353191       0.036513
      4 C                     0.331460      -0.004547
      5 O                    -0.249861       0.001250
      6 O                    -0.429335       0.010888
      7 H                     0.346947      -0.000143
      8 H                     0.321548       0.001291
      9 H                     0.362439       0.000152
     10 H                     0.478865      -0.036417
     11 O                    -0.495724       0.792924
     12 H                     0.322863      -0.008041
     13 C                    -0.066999      -0.000357
     14 O                    -0.282715      -0.000459
     15 H                     0.217333      -0.000624
     16 H                     0.185129      -0.000080
  --------------------------------------------------------
  Sum of atomic charges =     0.000000
  Sum of spin   charges =     1.000000

 -----------------------------------------------------------------
                    Cartesian Multipole Moments
 -----------------------------------------------------------------
    Charge (ESU x 10^10)
                 0.0000
    Dipole Moment (Debye)
         X       1.4069      Y      -3.6305      Z       0.1606
       Tot       3.8969
    Quadrupole Moments (Debye-Ang)
        XX     -51.2454     XY     -11.9517     YY     -52.7569
        XZ      -2.5264     YZ     -10.4487     ZZ     -50.2961
    Octopole Moments (Debye-Ang^2)
       XXX    -211.2015    XXY       4.0275    XYY     -68.2454
       YYY      48.3164    XXZ     -59.9830    XYZ     -23.5601
       YYZ     -27.3092    XZZ     -46.6612    YZZ     -15.5006
       ZZZ    -127.6465
    Hexadecapole Moments (Debye-Ang^3)
      XXXX   -1222.0000   XXXY      74.1683   XXYY    -228.7970
      XYYY     105.1131   YYYY    -456.9610   XXXZ    -359.6593
      XXYZ     -26.3649   XYYZ     -49.2178   YYYZ     -10.5247
      XXZZ    -278.0910   XYZZ     -22.9273   YYZZ    -173.3737
      XZZZ    -252.8624   YZZZ     -19.2980   ZZZZ    -741.1145
 -----------------------------------------------------------------
[...]
   13      C       2.8845163815    -1.5688573613     2.4605996683
   14      O       3.4743525962    -0.5250300797     2.2793722262
   15      H       1.8422871451    -1.5865069729     2.8054913926
   16      H       3.3834382479    -2.5340168869     2.3128289715
 ----------------------------------------------------------------
 Nuclear Repulsion Energy =         485.25040392 hartrees
 There are       37 alpha and       36 beta electrons
 Discretize the solute cavity surface with Lebedev spheres
	Using 110 Lebedev grid points for each H atom
	Using 194 Lebedev grid points for other atoms
	Atomic van der Waals radii will be scaled by 1.20
 Remove points where switching function is < 1.0e-08
 Keep 1425 surface tesserae and discard 1091 interior tesserae
 Molecular Surface Area = 165.224 Angst**2
 Applying Cartesian multipole field
    Component          Value
    ---------          -----
     (2,0,0)        1.00000E-11
     (0,2,0)        2.00000E-11
     (0,0,2)       -3.00000E-11
 Nucleus-field energy     =    -0.0000000015 hartrees
 Requested basis set is 6-311++G(2df,2p)
 There are 114 shells and 376 basis functions
 A cutoff of  1.0D-12 yielded   5743 shell pairs
 There are     62016 function pairs (     77137 Cartesian)
 Smallest overlap matrix eigenvalue = 1.85E-05
 Guess MOs from SCF MO coefficient file

 -----------------------------------------------------------------------
  General SCF calculation program by
  Eric Jon Sundstrom, Paul Horn, Yuezhi Mao, Dmitri Zuev, Alec White,
  David Stuck, Shaama M.S., Shane Yost, Joonho Lee, David Small,
  Daniel Levine, Susi Lehtola, Hugh Burton, Evgeny Epifanovsky,
  Bang C. Huynh
 -----------------------------------------------------------------------
 Exchange:     0.1500 Hartree-Fock + 1.0000 wB97M-V + LR-HF
 Correlation:  1.0000 wB97M-V
 Using SG-2 standard quadrature grid
 Nonlocal Correlation:  VV10 with C = 0.0100 and b = 6.00 and scale = 1.00000
 Grid used for NLC:  SG-1 standard quadrature
 
 Citation of the SMD model:
 Marenich, A.V.; Cramer, C.J.; Truhlar, D.G.
 J. Phys. Chem. B 2009, 113, 6378-6396.
 iSolventCode=           1
 Solvent: water                                                           
 
 vradii
            1           2           3           4           5           6
    1   1.5200000   1.8500000   1.5200000   1.8500000   1.5200000   1.5200000
            7           8           9          10          11          12
    1   1.2000000   1.2000000   1.2000000   1.2000000   1.5200000   1.2000000
           13          14          15          16
    1   1.8500000   1.5200000   1.2000000   1.2000000
 -------------------------------------------------------
 OpenMP BLAS3 based DFT computing Module                
 Release: version 1.0, May 2013, Q-Chem Inc. Pittsburgh 
 -------------------------------------------------------
 A unrestricted SCF calculation will be
 performed using Roothaan-Hall, DIIS, GDM
 SCF converges when RMS gradient is below 1.0e-07
 ---------------------------------------
  Cycle       Energy         DIIS error
 ---------------------------------------
    1    -569.8450737702      2.75e-04  Roothaan Step
 ---------------------------------------
  Cycle       Energy         DIIS error
 ---------------------------------------
    1    -569.8923589253      3.19e-04  
    2    -569.8981396094      3.02e-04  Done DIIS. Switching to GDM
 ---------------------------------------
  Cycle       Energy        RMS Gradient
 ---------------------------------------
    1    -569.8981396094      1.59e-02   Normal BFGS step
    2    -569.8968917471      2.44e-02  Line search: overstep
    3    -569.9022260125      2.57e-03   Normal BFGS step
    4    -569.9024322225      1.51e-03   Normal BFGS step
    5    -569.9024618555      5.11e-04   Normal BFGS step
    6    -569.9024747720      2.99e-04   Normal BFGS step
    7    -569.9024755982      2.51e-04   Normal BFGS step
    8    -569.9024758284      7.65e-05   Normal BFGS step
    9    -569.9024758803      3.08e-05   Normal BFGS step
   10    -569.9024758911      1.02e-05   Normal BFGS step
   11    -569.9024758924      4.28e-06   Normal BFGS step
   12    -569.9024758927      3.20e-06   Normal BFGS step
   13    -569.9024758927      9.97e-07   Normal BFGS step
   14    -569.9024758928      4.70e-07   Normal BFGS step
   15    -569.9024758927      3.25e-07   Normal BFGS step
   16    -569.9024758928      1.21e-07   Normal BFGS step
   17    -569.9024758927      4.67e-08  Convergence criterion met
 ---------------------------------------
 SCF time:   CPU 1529.70s  wall 106.00s 
<S^2> =          0.753599716
(3)  G-ENP(liq) elect-nuc-pol free energy of system     -569.902475893 a.u.
(4)  G-CDS(liq) cavity-dispersion-solvent structure 
     free energy                                                7.2150 kcal/mol
(6)  G-S(liq) free energy of system                     -569.890978060 a.u.
 SCF   energy in the final basis set =     -569.8909780603
 Total energy in the final basis set =     -569.8909780603
 
 --------------------------------------------------------------
 
                    Orbital Energies (a.u.)
 --------------------------------------------------------------
 
 Alpha MOs
 -- Occupied --
-19.3987 -19.3982 -19.3799 -19.3557 -19.3289 -19.3254 -10.4873 -10.4828
-10.4404  -1.2745  -1.2328  -1.2009  -1.1982  -1.1481  -1.1326  -0.8795
 -0.7547  -0.7503  -0.7021  -0.6813  -0.6433  -0.6221  -0.6100  -0.5982
 -0.5721  -0.5516  -0.5465  -0.5363  -0.5194  -0.5107  -0.5004  -0.4886
 -0.4456  -0.4259  -0.4116  -0.3822  -0.2796
 -- Virtual --
  0.0262   0.0365   0.0404   0.0451   0.0578   0.0624   0.0808   0.0892
  0.0963   0.1011   0.1099   0.1186   0.1274   0.1365   0.1410   0.1459
  0.1546   0.1616   0.1687   0.1748   0.1920   0.2088   0.2172   0.2314
  0.2402   0.2406   0.2594   0.2694   0.2786   0.2877   0.2932   0.2956
  0.2989   0.3014   0.3100   0.3124   0.3198   0.3249   0.3318   0.3414
  0.3506   0.3578   0.3604   0.3680   0.3743   0.3853   0.3920   0.4019
  0.4109   0.4209   0.4263   0.4410   0.4466   0.4624   0.4849   0.5075
  0.5216   0.5383   0.5703   0.5892   0.5994   0.6309   0.6449   0.6488
  0.6534   0.6647   0.6819   0.6858   0.6892   0.7016   0.7201   0.7408
  0.7568   0.7636   0.7682   0.7983   0.8052   0.8181   0.8287   0.8454
  0.8516   0.8740   0.8824   0.8979   0.9136   0.9378   0.9627   0.9816
  0.9995   1.0021   1.0190   1.0496   1.0630   1.0687   1.0775   1.0860
  1.1053   1.1201   1.1321   1.1437   1.1531   1.1576   1.1688   1.1798
  1.1926   1.1992   1.2018   1.2093   1.2326   1.2397   1.2458   1.2720
  1.2952   1.3118   1.3217   1.3424   1.3440   1.3839   1.4020   1.4199
  1.4494   1.4706   1.5090   1.5164   1.5278   1.5547   1.5670   1.5810
  1.6510   1.6683   1.6826   1.6963   1.7052   1.7167   1.7451   1.7722
  1.7923   1.8225   1.8491   1.8551   1.9023   1.9103   1.9462   1.9651
  2.0013   2.0241   2.0434   2.0780   2.1192   2.1570   2.2041   2.2739
  2.2767   2.2898   2.3206   2.3616   2.3840   2.4011   2.4158   2.4633
  2.4721   2.4846   2.5299   2.5508   2.6074   2.6257   2.6439   2.6759
  2.7184   2.7388   2.7692   2.7782   2.8385   2.8680   2.8761   2.9132
  2.9714   2.9972   3.0133   3.0205   3.0917   3.1053   3.1438   3.1523
  3.1589   3.1688   3.1953   3.2653   3.2817   3.2902   3.3027   3.3186
  3.3341   3.3448   3.3730   3.3973   3.4315   3.4552   3.5031   3.5559
  3.5767   3.5910   3.6095   3.6300   3.6477   3.6699   3.7102   3.7541
  3.7703   3.7749   3.7922   3.8166   3.8425   3.8527   3.8620   3.8845
  3.9236   3.9922   3.9967   4.0373   4.1023   4.1098   4.1143   4.1568
  4.1787   4.2051   4.2306   4.2631   4.2890   4.3008   4.3131   4.3586
  4.4072   4.4453   4.5234   4.5656   4.6413   4.9281   5.0310   5.1106
  5.1181   5.1480   5.1552   5.1643   5.1741   5.1819   5.1896   5.1981
  5.2125   5.2245   5.2325   5.2611   5.2712   5.2800   5.2896   5.3271
  5.3336   5.3486   5.3622   5.3978   5.4330   5.4380   5.5002   5.5123
  5.5217   5.5398   5.5635   5.5696   5.5876   5.5934   5.6021   5.6144
  5.6224   5.6716   5.6973   5.7304   5.8013   5.8488   5.8549   5.8982
  5.9254   5.9487   5.9762   6.0317   6.1319   6.3112   6.3826   6.4873
  6.5825   6.6127   6.8441   6.9260   6.9324   6.9418   6.9871   7.0236
  7.0308   7.0371   7.0631   7.0758   7.0831   7.1250   7.1371   7.1968
  7.2380   7.2419   7.2657   7.2799   7.2887   7.3157   7.3292   7.3304
  7.3638   7.3734   7.4120   7.4320   7.4368   7.4864   7.5145   7.5474
  7.6302   7.6744   7.7199   7.7435   7.7738   7.7845   7.8329   7.8748
  7.8938   7.9759  24.8985  24.9186  25.2597  50.5189  50.5474  50.6307
 50.6500  50.6946  50.7450
 
 Beta MOs
 -- Occupied --
-19.3954 -19.3949 -19.3787 -19.3556 -19.3252 -19.3239 -10.4813 -10.4794
-10.4404  -1.2665  -1.2283  -1.1982  -1.1936  -1.1408  -1.1322  -0.8621
 -0.7504  -0.7483  -0.6965  -0.6756  -0.6397  -0.6091  -0.6054  -0.5888
 -0.5704  -0.5422  -0.5388  -0.5265  -0.5160  -0.5064  -0.4983  -0.4627
 -0.4258  -0.4215  -0.4052  -0.3821
 -- Virtual --
 -0.0071   0.0263   0.0377   0.0405   0.0453   0.0583   0.0624   0.0810
  0.0894   0.0961   0.1013   0.1104   0.1185   0.1275   0.1392   0.1462
  0.1539   0.1618   0.1683   0.1745   0.1839   0.1934   0.2111   0.2182
  0.2327   0.2409   0.2425   0.2597   0.2701   0.2793   0.2880   0.2932
  0.2984   0.3006   0.3041   0.3131   0.3141   0.3213   0.3267   0.3332
  0.3431   0.3527   0.3587   0.3609   0.3682   0.3761   0.3871   0.3936
  0.4061   0.4129   0.4254   0.4309   0.4438   0.4483   0.4631   0.4887
  0.5092   0.5230   0.5408   0.5710   0.5902   0.6022   0.6317   0.6487
  0.6501   0.6564   0.6667   0.6864   0.6913   0.6924   0.7075   0.7207
  0.7457   0.7607   0.7668   0.7718   0.8030   0.8069   0.8207   0.8307
  0.8470   0.8541   0.8754   0.8868   0.9017   0.9157   0.9460   0.9673
  0.9851   1.0018   1.0045   1.0199   1.0509   1.0648   1.0698   1.0798
  1.0885   1.1074   1.1224   1.1333   1.1461   1.1545   1.1599   1.1725
  1.1830   1.1944   1.2016   1.2040   1.2118   1.2338   1.2413   1.2500
  1.2746   1.2975   1.3138   1.3250   1.3437   1.3470   1.3908   1.4047
  1.4234   1.4554   1.4751   1.5096   1.5181   1.5297   1.5575   1.5675
  1.5864   1.6567   1.6721   1.6870   1.6991   1.7094   1.7204   1.7483
  1.7770   1.7940   1.8302   1.8540   1.8617   1.9069   1.9169   1.9498
  1.9661   2.0058   2.0283   2.0472   2.0836   2.1250   2.1613   2.2100
  2.2747   2.2824   2.2923   2.3230   2.3649   2.3869   2.4062   2.4248
  2.4688   2.4737   2.4923   2.5304   2.5559   2.6132   2.6272   2.6448
  2.6814   2.7291   2.7555   2.7810   2.7883   2.8538   2.8736   2.8933
  2.9267   2.9880   3.0075   3.0195   3.0401   3.0960   3.1098   3.1506
  3.1549   3.1660   3.1835   3.2131   3.2689   3.2905   3.3041   3.3137
  3.3344   3.3395   3.3555   3.3917   3.4140   3.4501   3.4698   3.5179
  3.5750   3.5931   3.6062   3.6170   3.6359   3.6586   3.6881   3.7217
  3.7602   3.7719   3.7803   3.8122   3.8216   3.8451   3.8556   3.8710
  3.8883   3.9297   3.9949   4.0015   4.0382   4.1067   4.1110   4.1171
  4.1627   4.1790   4.2057   4.2325   4.2700   4.2936   4.3058   4.3507
  4.3722   4.4120   4.4484   4.5313   4.5719   4.6414   4.9575   5.0311
  5.1111   5.1247   5.1542   5.1624   5.1731   5.1794   5.1900   5.1955
  5.2090   5.2217   5.2301   5.2395   5.2659   5.2795   5.2837   5.2971
  5.3346   5.3538   5.3565   5.3630   5.4040   5.4365   5.4418   5.5085
  5.5129   5.5282   5.5404   5.5646   5.5767   5.5891   5.5997   5.6043
  5.6186   5.6296   5.6798   5.7033   5.7306   5.8095   5.8504   5.8613
  5.9064   5.9257   5.9577   5.9891   6.0353   6.1431   6.3114   6.3969
  6.4929   6.5825   6.6205   6.8493   6.9313   6.9400   6.9555   7.0008
  7.0344   7.0389   7.0433   7.0740   7.0796   7.0894   7.1278   7.1418
  7.1996   7.2457   7.2500   7.2754   7.2855   7.2937   7.3217   7.3344
  7.3378   7.3733   7.3816   7.4244   7.4344   7.4444   7.4947   7.5157
  7.5479   7.6371   7.6797   7.7207   7.7491   7.7750   7.7912   7.8405
  7.8786   7.8969   7.9809  24.8999  24.9212  25.2646  50.5192  50.5495
 50.6329  50.6525  50.6946  50.7487
 --------------------------------------------------------------
 
          Ground-State Mulliken Net Atomic Charges

     Atom                 Charge (a.u.)    Spin (a.u.)
  --------------------------------------------------------
      1 O                    -0.309660       0.090460
      2 C                    -0.049096       0.483452
      3 O                    -0.293732       0.095724
      4 C                     0.361828       0.113354
      5 O                    -0.318459       0.037986
      6 O                    -0.533466       0.172847
      7 H                     0.375068       0.001306
      8 H                     0.346856      -0.002118
      9 H                     0.354705      -0.000515
     10 H                     0.431273      -0.003971
     11 O                    -0.726438       0.008708
     12 H                     0.327636      -0.000177
     13 C                    -0.062088       0.000473
     14 O                    -0.293368       0.002356
     15 H                     0.206002       0.000266
     16 H                     0.182939      -0.000149
  --------------------------------------------------------
  Sum of atomic charges =     0.000000
  Sum of spin   charges =     1.000000

 -----------------------------------------------------------------
                    Cartesian Multipole Moments
 -----------------------------------------------------------------
    Charge (ESU x 10^10)
                 0.0000
    Dipole Moment (Debye)
         X      -2.9583      Y      -4.0928      Z       0.2620
       Tot       5.0568
    Quadrupole Moments (Debye-Ang)
        XX     -56.4781     XY     -10.2594     YY     -56.5627
        XZ      -5.6411     YZ     -13.3913     ZZ     -53.4675
    Octopole Moments (Debye-Ang^2)
       XXX    -230.4350    XXY       8.7343    XYY     -77.0733
       YYY      52.1398    XXZ     -64.2059    XYZ     -26.2033
       YYZ     -28.9996    XZZ     -61.4615    YZZ     -22.1013
       ZZZ    -124.7924
    Hexadecapole Moments (Debye-Ang^3)
      XXXX   -1285.6348   XXXY      90.6480   XXYY    -254.0503
      XYYY     116.0497   YYYY    -497.1491   XXXZ    -384.8308
      XXYZ     -31.4683   XYYZ     -63.1634   YYYZ     -26.1306
      XXZZ    -310.9473   XYZZ     -28.6358   YYZZ    -189.8993
      XZZZ    -277.5996   YZZZ     -47.6666   ZZZZ    -778.6379
 -----------------------------------------------------------------
 Calculating analytic gradient of the SCF energy
 Gradient of CDS energy
            1           2           3           4           5           6
    1   0.0014279  -0.0037286   0.0018304   0.0027960  -0.0021935  -0.0006248
    2  -0.0027575   0.0009064   0.0019099   0.0011716  -0.0026979   0.0012150
    3   0.0010400   0.0013028  -0.0024648  -0.0028739   0.0028496  -0.0005663
            7           8           9          10          11          12
    1  -0.0003519  -0.0001533   0.0003549  -0.0001194  -0.0000421   0.0001781
    2   0.0002473  -0.0002443   0.0000749   0.0001702   0.0000858   0.0002287
    3   0.0000059   0.0001422  -0.0002674   0.0000224   0.0001309   0.0001056
           13          14          15          16
    1   0.0013443  -0.0006299   0.0000074  -0.0000956
    2   0.0002428  -0.0008892   0.0003192   0.0000170
    3   0.0010137   0.0001055  -0.0003922  -0.0001539
 Gradient of SCF Energy
            1           2           3           4           5           6
    1   0.0164599  -0.0019861  -0.0108401   0.0010166  -0.0099685   0.0048644
    2  -0.0024329   0.0027814   0.0106612   0.0005720   0.0100686  -0.0075645
    3  -0.0151254  -0.0057360  -0.0015160   0.0035612   0.0039682  -0.0032653
            7           8           9          10          11          12
    1  -0.0147067   0.0097253   0.0096909  -0.0064698   0.0057919  -0.0029660
    2   0.0074533  -0.0133565  -0.0046784  -0.0120039   0.0134491  -0.0057625
    3   0.0127031   0.0111698  -0.0049973  -0.0062414   0.0070252  -0.0023672
           13          14          15          16
    1   0.0084761   0.0030560  -0.0147364   0.0025927
    2   0.0082093   0.0039256  -0.0021140  -0.0092077
    3  -0.0027114  -0.0008159   0.0038784   0.0004700
 Max gradient component =       1.646E-02
 RMS gradient           =       8.055E-03
 Computing fast CPCM-SWIG gradient
 Updating gradient with PCM contributions...
 -- total gradient after adding PCM contribution --
---------------------------------------------------
  Atom         X              Y              Z     
---------------------------------------------------
   1      -0.000316       0.000044      -0.000362
   2       0.000036       0.000340       0.000294
   3       0.000452       0.000437       0.000768
   4       0.000080       0.000279       0.000322
   5       0.000377       0.000675       0.000883
   6      -0.000222       0.000090      -0.000027
   7       0.000878       0.001279       0.000514
   8       0.000683       0.000382       0.000353
   9      -0.000279       0.000219      -0.000145
  10       0.000050      -0.002825      -0.001325
  11      -0.001287      -0.001072      -0.001545
  12      -0.000462       0.000354      -0.000216
  13       0.000037       0.000008       0.000123
  14      -0.000317       0.000006      -0.000335
  15       0.000076      -0.000227       0.000400
  16       0.000215       0.000011       0.000297
---------------------------------------------------
 Number of fixed atoms: 0
 Gradient time:  CPU 197.14 s  wall 17.57 s
rPathMan2.  file_steps = 952
 IRC --- Status = 4.  Checking bisector search.
 IRC --- Bisector search finished successfully.
 ------------------------------------------------------------------------
 Reaction path following.  The coordinates are cartesian              
 Step  20 E=    -569.890978 |G|=  0.004743 S_lin= 1.6433 S_tot= 2.1318
 ------------------------------------------------------------------------
  IRC -- convergence criterion reached.
 ----------------------------------------------------------------
             Standard Nuclear Orientation (Angstroms)
    I     Atom           X                Y                Z
 ----------------------------------------------------------------
    1      O      -0.5921887758     0.6936896813    -0.3740698093
    2      C       0.1824855854    -0.0727174748     0.4845230576
    3      O      -0.5786650749    -1.0080553970     1.1773101025
    4      C       1.3038082779    -0.7511859747    -0.2914248640
    5      O       1.9195515478     0.0680267437    -1.1248918041
    6      O       1.6011925155    -1.9079094429    -0.1015800482
    7      H      -1.1608161461     1.2680809042     0.1543233303
    8      H      -0.0638787065    -1.8270314328     1.2422095056
    9      H       2.6434119606    -0.4065503710    -1.5659144707
   10      H       0.6954520649     0.6266519764     1.2385000497
   11      O       1.4519736508     1.5029811507     2.2341021136
   12      H       2.2174146435     0.8870225142     2.2836774882
   13      C       2.8785841961    -1.5703139843     2.4696195637
   14      O       3.4364754048    -0.5163201383     2.2496577401
   15      H       1.8402854724    -1.6037728606     2.8248659563
   16      H       3.3984236837    -2.5255428941     2.3297838888
 ----------------------------------------------------------------
 Nuclear Repulsion Energy =         488.75455864 hartrees
 There are       37 alpha and       36 beta electrons
 Here is where we should summarize the reaction path
 Total job time:  9147.35s(wall), 128180.02s(cpu) 
 Sat Jul 13 09:19:13 2024

        *************************************************************
        *                                                           *
        *  Thank you very much for using Q-Chem.  Have a nice day.  *
        *                                                           *
        *************************************************************


