
Running Job 1 of 2 Q_in.in
qchem Q_in.in_220772.0 /scratch/ari.fischer/qChem2234599.hpc-mn1/qchem220772/ 0
/usr/local/qchem-5.4.1/exe/qcprog.exe_s Q_in.in_220772.0 /scratch/ari.fischer/qChem2234599.hpc-mn1/qchem220772/
                  Welcome to Q-Chem
     A Quantum Leap Into The Future Of Chemistry


 Q-Chem 5.4, Q-Chem, Inc., Pleasanton, CA (2021)

 License issued to: Nanyang Technological University (site)

 E. Epifanovsky,  A. T. B. Gilbert,  Xintian Feng,  Joonho Lee,  Yuezhi Mao,  
 N. Mardirossian,  P. Pokhilko,  A. White,  M. Wormit,  M. P. Coons,  
 A. L. Dempwolff,  Zhengting Gan,  D. Hait,  P. R. Horn,  L. D. Jacobson,  
 I. Kaliman,  J. Kussmann,  A. W. Lange,  Ka Un Lao,  D. S. Levine,  Jie Liu,  
 S. C. McKenzie,  A. F. Morrison,  K. Nanda,  F. Plasser,  D. R. Rehn,  
 M. L. Vidal,  Zhi-Qiang You,  Ying Zhu,  B. Alam,  B. Albrecht,  
 A. Aldossary,  E. Alguire,  J. H. Andersen,  D. Barton,  K. Begam,  A. Behn,  
 Y. A. Bernard,  E. J. Berquist,  H. Burton,  A. Carreras,  K. Carter-Fenk,  
 R. Chakraborty,  A. D. Chien,  K. D. Closser,  V. Cofer-Shabica,  
 S. Dasgupta,  Jia Deng,  M. de Wergifosse,  M. Diedenhofen,  Hainam Do,  
 S. Ehlert,  Po-Tung Fang,  S. Fatehi,  Qingguo Feng,  T. Friedhoff,  
 J. Gayvert,  Qinghui Ge,  G. Gidofalvi,  M. Goldey,  J. Gomes,  
 C. Gonzalez-Espinoza,  S. Gulania,  A. Gunina,  M. W. D. Hanson-Heine,  
 P. H. P. Harbach,  A. W. Hauser,  M. F. Herbst,  M. Hernandez Vera,  
 M. Hodecker,  Z. C. Holden,  S. Houck,  Xunkun Huang,  Kerwin Hui,  
 B. C. Huynh,  M. Ivanov,  Hyunjun Ji,  Hanjie Jiang,  B. Kaduk,  S. Kaehler,  
 K. Khistyaev,  Jaehoon Kim,  P. Klunzinger,  Z. Koczor-Benda,  
 Joong Hoon Koh,  D. Kosenkov,  L. Koulias,  T. Kowalczyk,  C. M. Krauter,  
 K. Kue,  A. Kunitsa,  T. Kus,  A. Landau,  K. V. Lawler,  D. Lefrancois,  
 S. Lehtola,  Rain Li,  Yi-Pei Li,  Jiashu Liang,  M. Liebenthal,  
 Hung-Hsuan Lin,  You-Sheng Lin,  Fenglai Liu,  Kuan-Yu Liu,  
 M. Loipersberger,  A. Luenser,  A. Manjanath,  P. Manohar,  E. Mansoor,  
 S. F. Manzer,  Shan-Ping Mao,  A. V. Marenich,  T. Markovich,  S. Mason,  
 S. A. Maurer,  P. F. McLaughlin,  M. F. S. J. Menger,  J.-M. Mewes,  
 S. A. Mewes,  P. Morgante,  J. W. Mullinax,  K. J. Oosterbaan,  G. Paran,  
 Alexander C. Paul,  Suranjan K. Paul,  F. Pavosevic,  Zheng Pei,  S. Prager,  
 E. I. Proynov,  E. Ramos,  B. Rana,  A. E. Rask,  A. Rettig,  R. M. Richard,  
 F. Rob,  E. Rossomme,  T. Scheele,  M. Scheurer,  M. Schneider,  
 N. Sergueev,  S. M. Sharada,  W. Skomorowski,  D. W. Small,  C. J. Stein,  
 Yu-Chuan Su,  E. J. Sundstrom,  Zhen Tao,  J. Thirman,  T. Tsuchimochi,  
 N. M. Tubman,  S. P. Veccham,  O. Vydrov,  J. Wenzel,  J. Witte,  A. Yamada,  
 Kun Yao,  S. Yeganeh,  S. R. Yost,  A. Zech,  Igor Ying Zhang,  Xing Zhang,  
 Yu Zhang,  D. Zuev,  A. Aspuru-Guzik,  A. T. Bell,  N. A. Besley,  
 K. B. Bravaya,  B. R. Brooks,  D. Casanova,  Jeng-Da Chai,  S. Coriani,  
 C. J. Cramer,  A. E. DePrince, III,  R. A. DiStasio Jr.,  A. Dreuw,  
 B. D. Dunietz,  T. R. Furlani,  W. A. Goddard III,  S. Grimme,  
 S. Hammes-Schiffer,  T. Head-Gordon,  W. J. Hehre,  Chao-Ping Hsu,  
 T.-C. Jagau,  Yousung Jung,  A. Klamt,  Jing Kong,  D. S. Lambrecht,  
 WanZhen Liang,  N. J. Mayhall,  C. W. McCurdy,  J. B. Neaton,  
 C. Ochsenfeld,  J. A. Parkhill,  R. Peverati,  V. A. Rassolov,  Yihan Shao,  
 L. V. Slipchenko,  T. Stauch,  R. P. Steele,  J. E. Subotnik,  
 A. J. W. Thom,  A. Tkatchenko,  D. G. Truhlar,  T. Van Voorhis,  
 T. A. Wesolowski,  K. B. Whaley,  H. L. Woodcock III,  P. M. Zimmerman,  
 S. Faraji,  P. M. W. Gill,  M. Head-Gordon,  J. M. Herbert,  A. I. Krylov

 Additional authors for Version 5.4.1: 
 S. Kotaru,  Shaozhi Li,  Xiangyuan Li,  F. Matz,  A. Molle,  Haisheng Ren,  
 Yingli Su,  Hung-Yi Tsai,  C. Utku,  Fang Wang

 Contributors to earlier versions of Q-Chem not listed above: 
 R. D. Adamson,  B. Austin,  R. Baer,  J. Baker,  G. J. O. Beran,  
 K. Brandhorst,  S. T. Brown,  E. F. C. Byrd,  A. K. Chakraborty,  
 G. K. L. Chan,  Chun-Min Chang,  Yunqing Chen,  C.-L. Cheng,  
 Siu Hung Chien,  D. M. Chipman,  D. L. Crittenden,  H. Dachsel,  
 R. J. Doerksen,  A. D. Dutoi,  R. G. Edgar,  J. Fosso-Tande,  
 L. Fusti-Molnar,  D. Ghosh,  A. Ghysels,  A. Golubeva-Zadorozhnaya,  
 J. Gonthier,  M. S. Gordon,  S. R. Gwaltney,  G. Hawkins,  J. E. Herr,  
 A. Heyden,  S. Hirata,  E. G. Hohenstein,  G. Kedziora,  F. J. Keil,  
 C. Kelley,  Jihan Kim,  R. A. King,  R. Z. Khaliullin,  P. P. Korambath,  
 W. Kurlancheek,  A. Laurent,  A. M. Lee,  M. S. Lee,  S. V. Levchenko,  
 Ching Yeh Lin,  D. Liotard,  E. Livshits,  R. C. Lochan,  I. Lotan,  
 L. A. Martinez-Martinez,  P. E. Maslen,  N. Nair,  D. P. O'Neill,  
 D. Neuhauser,  E. Neuscamman,  C. M. Oana,  R. Olivares-Amaya,  R. Olson,  
 T. M. Perrine,  B. Peters,  P. A. Pieniazek,  A. Prociuk,  Y. M. Rhee,  
 J. Ritchie,  M. A. Rohrdanz,  E. Rosta,  N. J. Russ,  H. F. Schaefer III,  
 M. W. Schmidt,  N. E. Schultz,  S. Sharma,  N. Shenvi,  C. D. Sherrill,  
 A. C. Simmonett,  A. Sodt,  T. Stein,  D. Stuck,  K. S. Thanthiriwatte,  
 V. Vanovschi,  L. Vogt,  Tao Wang,  A. Warshel,  M. A. Watson,  
 C. F. Williams,  Q. Wu,  X. Xu,  Jun Yang,  W. Zhang,  Yan Zhao

 Please cite Q-Chem as follows:
 Y. Shao et al., Mol. Phys. 113, 184-215 (2015)
 DOI: 10.1080/00268976.2014.952696

 Q-Chem 5.4.1 for Intel X86 EM64T Linux

 Parts of Q-Chem use Armadillo 9.800.1 (Horizon Scraper).
 http://arma.sourceforge.net/

 Q-Chem begins on Fri Jul 12 17:47:24 2024  

 Host: 
0

     Scratch files written to /scratch/ari.fischer/qChem2234599.hpc-mn1/qchem220772//
 Aug1521 |scratch|qcdevops|jenkins|workspace|build_RNUM 8249   
 Processing $rem in /usr/local/qchem-5.4.1/config/preferences:
 Processing $rem in /home/ari.fischer/.qchemrc:
 Symmetry turned off for PCM/SM12/SMD calculation


!!********************************************.
!!******************Warning*******************.
!!Desired Analytical derivatives not available.
!!Finite difference job might take a long time.
!!********************************************.
!!********************************************.


 2-order derivative to be evaluated numerically with 1-order analytical derivatives

 Checking the input file for inconsistencies... 	...done.

--------------------------------------------------------------
User input:
--------------------------------------------------------------
$molecule
0 2
O   -0.4162773    0.8544182   -0.3866292
C    0.0467450   -0.0942186    0.5171860
O   -0.9525514   -0.9618692    0.9417596
C    1.2051058   -0.8642346   -0.1028035
O    2.1159958   -0.0695234   -0.6373704
O    1.2683001   -2.0699360   -0.0539652
H   -1.0030840    1.4642517    0.0779213
H   -0.6183844   -1.8683932    0.8534628
H    2.8605395   -0.6196527   -0.9555190
H    0.4796439    0.4391967    1.4329344
O    1.3338375    1.1011110    2.5376360
H    2.1145466    1.2334192    1.9718453
C    3.1770415   -1.4338796    2.2639867
O    3.7111515   -0.4557031    1.7774824
H    2.2181908   -1.3626210    2.8032803
H    3.6327094   -2.4353124    2.1894843
$end

$rem
BASIS = 6-311++G(2df,2p)
GUI = 2
JOB_TYPE = Frequency
METHOD = wB97M-V
SCF_ALGORITHM = DIIS_GDM
MAX_SCF_CYCLES = 400
SCF_CONVERGENCE = 6
THRESH = 11
solvent_method = SMD
$end

--------------------------------------------------------------
 ----------------------------------------------------------------
             Standard Nuclear Orientation (Angstroms)
    I     Atom           X                Y                Z
 ----------------------------------------------------------------
    1      O      -0.4162773000     0.8544182000    -0.3866292000
    2      C       0.0467450000    -0.0942186000     0.5171860000
    3      O      -0.9525514000    -0.9618692000     0.9417596000
    4      C       1.2051058000    -0.8642346000    -0.1028035000
    5      O       2.1159958000    -0.0695234000    -0.6373704000
    6      O       1.2683001000    -2.0699360000    -0.0539652000
    7      H      -1.0030840000     1.4642517000     0.0779213000
    8      H      -0.6183844000    -1.8683932000     0.8534628000
    9      H       2.8605395000    -0.6196527000    -0.9555190000
   10      H       0.4796439000     0.4391967000     1.4329344000
   11      O       1.3338375000     1.1011110000     2.5376360000
   12      H       2.1145466000     1.2334192000     1.9718453000
   13      C       3.1770415000    -1.4338796000     2.2639867000
   14      O       3.7111515000    -0.4557031000     1.7774824000
   15      H       2.2181908000    -1.3626210000     2.8032803000
   16      H       3.6327094000    -2.4353124000     2.1894843000
 ----------------------------------------------------------------
 Nuclear Repulsion Energy =         490.45899214 hartrees
 There are       37 alpha and       36 beta electrons
 Requested basis set is 6-311++G(2df,2p)
 There are 114 shells and 376 basis functions

 Total QAlloc Memory Limit 288000 MB
 Mega-Array Size       188 MB
 MEM_STATIC part       192 MB
 
 Citation of the SMD model:
 Marenich, A.V.; Cramer, C.J.; Truhlar, D.G.
 J. Phys. Chem. B 2009, 113, 6378-6396.
 iSolventCode=           1
 Solvent: water                                                           
 
 vradii
            1           2           3           4           5           6
    1   1.5200000   1.8500000   1.5200000   1.8500000   1.5200000   1.5200000
            7           8           9          10          11          12
    1   1.2000000   1.2000000   1.2000000   1.2000000   1.5200000   1.2000000
           13          14          15          16
    1   1.8500000   1.5200000   1.2000000   1.2000000
 Changing PCM_VDW_RADII to SMD_RADIUS
 Discretize the solute cavity surface with Lebedev spheres
	Using 110 Lebedev grid points for each H atom
	Using 194 Lebedev grid points for other atoms
	Atomic van der Waals radii will be scaled by 1.20
 Remove points where switching function is < 1.0e-08
 Keep 1418 surface tesserae and discard 1098 interior tesserae
 Molecular Surface Area = 163.220 Angst**2
 A cutoff of  1.0D-11 yielded   5677 shell pairs
 There are     61422 function pairs (     76434 Cartesian)
 Smallest overlap matrix eigenvalue = 2.91E-05
 Guess from superposition of atomic densities
 Warning:  Energy on first SCF cycle will be non-variational
 SAD guess density has 73.000000 electrons

 -----------------------------------------------------------------------
  General SCF calculation program by
  Eric Jon Sundstrom, Paul Horn, Yuezhi Mao, Dmitri Zuev, Alec White,
  David Stuck, Shaama M.S., Shane Yost, Joonho Lee, David Small,
  Daniel Levine, Susi Lehtola, Hugh Burton, Evgeny Epifanovsky,
  Bang C. Huynh
 -----------------------------------------------------------------------
 Exchange:     0.1500 Hartree-Fock + 1.0000 wB97M-V + LR-HF
 Correlation:  1.0000 wB97M-V
 Using SG-2 standard quadrature grid
 Nonlocal Correlation:  VV10 with C = 0.0100 and b = 6.00 and scale = 1.00000
 Grid used for NLC:  SG-1 standard quadrature
 using 16 threads for integral computing
 -------------------------------------------------------
 OpenMP Integral computing Module                
 Release: version 1.0, May 2013, Q-Chem Inc. Pittsburgh 
 -------------------------------------------------------
 
 Citation of the SMD model:
 Marenich, A.V.; Cramer, C.J.; Truhlar, D.G.
 J. Phys. Chem. B 2009, 113, 6378-6396.
 iSolventCode=           1
 Solvent: water                                                           
 
 vradii
            1           2           3           4           5           6
    1   1.5200000   1.8500000   1.5200000   1.8500000   1.5200000   1.5200000
            7           8           9          10          11          12
    1   1.2000000   1.2000000   1.2000000   1.2000000   1.5200000   1.2000000
           13          14          15          16
    1   1.8500000   1.5200000   1.2000000   1.2000000
 -------------------------------------------------------
 OpenMP BLAS3 based DFT computing Module                
 Release: version 1.0, May 2013, Q-Chem Inc. Pittsburgh 
 -------------------------------------------------------
 A unrestricted SCF calculation will be
 performed using DIIS, GDM
 SCF converges when RMS gradient is below 1.0e-06
 ---------------------------------------
  Cycle       Energy         DIIS error
 ---------------------------------------
    1    -571.0528741225      1.27e-02  
    2    -569.5049177956      2.28e-03  Done DIIS. Switching to GDM
 ---------------------------------------
  Cycle       Energy        RMS Gradient
 ---------------------------------------
    1    -569.5049177956      3.33e-01   Descent step
    2    -569.7644259522      9.01e-02   Descent step
    3    -569.8021894921      3.38e-02   Normal BFGS step
    4    -569.8251869517      3.75e-02   Normal BFGS step
    5    -569.8294055592      3.71e-02   Normal BFGS step
    6    -569.8316169556      1.09e-02   Normal BFGS step
    7    -569.8324555091      6.21e-03   Normal BFGS step
    8    -569.8326254995      2.64e-03   Normal BFGS step
    9    -569.8326587430      9.51e-04   Normal BFGS step
   10    -569.8326654392      6.84e-04   Normal BFGS step
   11    -569.8326668656      3.08e-04   Normal BFGS step
   12    -569.8326673706      2.98e-04   Normal BFGS step
   13    -569.8326676686      2.75e-04   Normal BFGS step
   14    -569.8326678583      2.37e-04   Normal BFGS step
   15    -569.8326680593      1.64e-04   Normal BFGS step
   16    -569.8326682742      1.22e-04   Normal BFGS step
   17    -569.8326683575      5.69e-05   Normal BFGS step
   18    -569.8326683835      2.51e-05   Normal BFGS step
   19    -569.8326683866      4.19e-06   Normal BFGS step
   20    -569.8326683869      2.99e-06   Normal BFGS step
   21    -569.8326683870      7.04e-07  Convergence criterion met
 ---------------------------------------
 SCF time:   CPU 1736.17s  wall 119.00s 
<S^2> =          0.756410288
(3)  G-ENP(liq) elect-nuc-pol free energy of system     -569.832668387 a.u.
(4)  G-CDS(liq) cavity-dispersion-solvent structure 
     free energy                                                6.6474 kcal/mol
(6)  G-S(liq) free energy of system                     -569.822075101 a.u.
 SCF   energy in the final basis set =     -569.8220751011
 Total energy in the final basis set =     -569.8220751011
 
 --------------------------------------------------------------
 
                    Orbital Energies (a.u.)
 --------------------------------------------------------------
 
 Alpha MOs
 -- Occupied --
-19.3986 -19.3820 -19.3648 -19.3607 -19.3535 -19.3532 -10.5040 -10.4788
-10.4375  -1.2698  -1.2199  -1.1916  -1.1816  -1.1531  -1.1314  -0.8647
 -0.7477  -0.7464  -0.6869  -0.6715  -0.6458  -0.6163  -0.6065  -0.5877
 -0.5696  -0.5669  -0.5475  -0.5305  -0.5100  -0.5027  -0.4889  -0.4538
 -0.4512  -0.4396  -0.4237  -0.3848  -0.3782
 -- Virtual --
  0.0264   0.0351   0.0392   0.0437   0.0562   0.0607   0.0699   0.0791
  0.0873   0.0941   0.0974   0.1152   0.1232   0.1332   0.1461   0.1523
  0.1550   0.1617   0.1737   0.1765   0.1929   0.2060   0.2143   0.2338
  0.2376   0.2523   0.2578   0.2672   0.2718   0.2831   0.2928   0.2951
  0.2992   0.3048   0.3125   0.3151   0.3256   0.3325   0.3368   0.3450
  0.3479   0.3548   0.3586   0.3723   0.3770   0.3834   0.3914   0.3993
  0.4048   0.4181   0.4325   0.4403   0.4478   0.4566   0.4804   0.4873
  0.4894   0.5445   0.5647   0.5778   0.6013   0.6082   0.6164   0.6233
  0.6372   0.6407   0.6555   0.6636   0.6727   0.6969   0.7098   0.7214
  0.7375   0.7409   0.7836   0.7987   0.8116   0.8258   0.8352   0.8502
  0.8928   0.9063   0.9241   0.9322   0.9441   0.9547   0.9826   1.0048
  1.0159   1.0338   1.0535   1.0636   1.0820   1.0909   1.1117   1.1200
  1.1293   1.1371   1.1479   1.1573   1.1755   1.1795   1.1905   1.1934
  1.2092   1.2380   1.2406   1.2466   1.2605   1.2734   1.2763   1.2934
  1.3190   1.3255   1.3310   1.3523   1.3828   1.4120   1.4153   1.4218
  1.4719   1.4866   1.4909   1.5113   1.5225   1.5373   1.5487   1.5632
  1.5945   1.6145   1.6496   1.6717   1.6843   1.7022   1.7246   1.7436
  1.7504   1.7820   1.7938   1.8218   1.8564   1.8686   1.8947   1.9070
  1.9562   2.0068   2.0335   2.0429   2.0973   2.1178   2.1624   2.1805
  2.2571   2.2751   2.2915   2.3290   2.3652   2.3843   2.4067   2.4320
  2.4507   2.4712   2.5008   2.5326   2.5509   2.5720   2.6184   2.6661
  2.7302   2.7386   2.7731   2.8011   2.8139   2.8791   2.8929   2.9050
  2.9459   3.0225   3.0317   3.0430   3.1255   3.1259   3.1320   3.1500
  3.1776   3.2095   3.2280   3.2426   3.2941   3.3114   3.3532   3.3654
  3.3833   3.4045   3.4290   3.4755   3.5041   3.5073   3.5420   3.5930
  3.6107   3.6228   3.6769   3.6826   3.7060   3.7582   3.7671   3.7902
  3.8055   3.8268   3.8363   3.8587   3.8879   3.8923   3.9211   3.9273
  3.9622   3.9834   4.0381   4.0805   4.1212   4.1342   4.1719   4.1797
  4.2061   4.2173   4.2349   4.2415   4.2647   4.2933   4.3150   4.3775
  4.3864   4.4590   4.5240   4.6287   4.7745   5.0049   5.0752   5.0877
  5.1311   5.1332   5.1464   5.1501   5.1581   5.1671   5.1789   5.1952
  5.2112   5.2248   5.2354   5.2470   5.2578   5.2667   5.2757   5.2842
  5.2884   5.3067   5.3230   5.3338   5.3437   5.3561   5.3866   5.4298
  5.4492   5.5002   5.5118   5.5176   5.5255   5.5403   5.5693   5.5849
  5.5938   5.6134   5.6339   5.6520   5.6632   5.6851   5.7226   5.7737
  5.8980   5.9125   5.9455   6.0020   6.1012   6.1595   6.2066   6.3011
  6.4771   6.5013   6.5726   6.7253   6.8037   6.8831   6.9130   6.9325
  6.9535   7.0042   7.0143   7.0392   7.0479   7.0738   7.0765   7.0945
  7.1025   7.1855   7.2047   7.2440   7.2484   7.2719   7.2912   7.3027
  7.3164   7.3259   7.3583   7.3783   7.4370   7.4552   7.4718   7.5120
  7.5619   7.6447   7.6683   7.7279   7.7449   7.7607   7.7883   7.8271
  7.8979   7.9035  24.7909  24.9014  25.1764  50.4771  50.5788  50.5958
 50.6279  50.6704  50.7494
 
 Beta MOs
 -- Occupied --
-19.3985 -19.3640 -19.3609 -19.3597 -19.3533 -19.3532 -10.5040 -10.4751
-10.4375  -1.2693  -1.2175  -1.1915  -1.1810  -1.1511  -1.0762  -0.8599
 -0.7465  -0.7436  -0.6824  -0.6658  -0.6401  -0.6110  -0.6047  -0.5810
 -0.5658  -0.5512  -0.5463  -0.5232  -0.5055  -0.4875  -0.4537  -0.4373
 -0.4303  -0.4229  -0.4046  -0.3782
 -- Virtual --
 -0.0791   0.0270   0.0352   0.0395   0.0439   0.0567   0.0614   0.0729
  0.0799   0.0876   0.0946   0.0977   0.1153   0.1235   0.1336   0.1473
  0.1526   0.1554   0.1619   0.1749   0.1775   0.1934   0.2101   0.2150
  0.2348   0.2394   0.2549   0.2590   0.2692   0.2727   0.2832   0.2936
  0.2966   0.3000   0.3067   0.3131   0.3167   0.3266   0.3328   0.3378
  0.3482   0.3483   0.3562   0.3599   0.3758   0.3778   0.3865   0.3940
  0.4009   0.4071   0.4225   0.4391   0.4425   0.4487   0.4580   0.4834
  0.4882   0.4910   0.5455   0.5660   0.5803   0.6023   0.6095   0.6178
  0.6253   0.6391   0.6445   0.6560   0.6650   0.6741   0.6979   0.7110
  0.7235   0.7388   0.7416   0.7847   0.7991   0.8129   0.8266   0.8359
  0.8508   0.8958   0.9074   0.9252   0.9350   0.9480   0.9572   0.9832
  1.0056   1.0190   1.0359   1.0584   1.0650   1.0831   1.0923   1.1131
  1.1222   1.1308   1.1380   1.1499   1.1607   1.1790   1.1805   1.1921
  1.1958   1.2145   1.2413   1.2461   1.2593   1.2629   1.2785   1.2796
  1.2956   1.3214   1.3294   1.3343   1.3539   1.3841   1.4148   1.4177
  1.4264   1.4745   1.4916   1.4931   1.5123   1.5241   1.5391   1.5528
  1.5652   1.6000   1.6273   1.6517   1.6744   1.6987   1.7067   1.7300
  1.7493   1.7568   1.7900   1.8016   1.8252   1.8619   1.8753   1.9003
  1.9102   1.9598   2.0083   2.0350   2.0623   2.0996   2.1224   2.1647
  2.1817   2.2593   2.2776   2.2941   2.3302   2.3720   2.3881   2.4107
  2.4334   2.4626   2.4749   2.5046   2.5329   2.5538   2.5733   2.6185
  2.6670   2.7320   2.7418   2.7810   2.8098   2.8160   2.8800   2.8953
  2.9058   2.9479   3.0224   3.0316   3.0432   3.1256   3.1287   3.1329
  3.1502   3.1797   3.2101   3.2299   3.2439   3.2959   3.3118   3.3535
  3.3668   3.3856   3.4062   3.4319   3.4772   3.5063   3.5104   3.5437
  3.5976   3.6133   3.6236   3.6794   3.6881   3.7087   3.7623   3.7721
  3.7943   3.8076   3.8295   3.8375   3.8614   3.8922   3.8973   3.9259
  3.9319   3.9723   3.9887   4.0400   4.0824   4.1214   4.1368   4.1719
  4.1811   4.2063   4.2178   4.2356   4.2461   4.2682   4.2947   4.3149
  4.3760   4.3872   4.4499   4.5191   4.6289   4.7775   5.0052   5.0969
  5.1265   5.1352   5.1456   5.1554   5.1665   5.1770   5.1856   5.1970
  5.2118   5.2209   5.2381   5.2400   5.2538   5.2692   5.2796   5.2845
  5.2925   5.2985   5.3268   5.3306   5.3512   5.3572   5.3820   5.4300
  5.4333   5.4667   5.5020   5.5122   5.5193   5.5263   5.5416   5.5713
  5.5876   5.5951   5.6160   5.6503   5.6594   5.6869   5.7036   5.7253
  5.7788   5.8991   5.9125   5.9459   6.0035   6.1030   6.1607   6.2084
  6.3011   6.4783   6.5068   6.5726   6.7275   6.8051   6.9140   6.9364
  6.9588   6.9802   7.0063   7.0397   7.0524   7.0655   7.0782   7.0965
  7.1081   7.1367   7.2083   7.2233   7.2488   7.2515   7.2738   7.2939
  7.3094   7.3201   7.3600   7.3754   7.3978   7.4387   7.4589   7.4765
  7.5152   7.6232   7.6543   7.6708   7.7289   7.7460   7.7642   7.7890
  7.8285   7.9000   7.9045  24.7941  24.9014  25.1767  50.4917  50.5794
 50.5962  50.6287  50.6705  50.7496
 --------------------------------------------------------------
 
          Ground-State Mulliken Net Atomic Charges

     Atom                 Charge (a.u.)    Spin (a.u.)
  --------------------------------------------------------
      1 O                    -0.366043       0.026023
      2 C                    -0.285519       0.174272
      3 O                    -0.359740       0.032093
      4 C                     0.359068      -0.008884
      5 O                    -0.266617       0.001038
      6 O                    -0.407203       0.008818
      7 H                     0.351998       0.000437
      8 H                     0.316540       0.002190
      9 H                     0.372431      -0.000194
     10 H                     0.392038      -0.030495
     11 O                    -0.422551       0.805930
     12 H                     0.323747      -0.010801
     13 C                    -0.106163       0.000221
     14 O                    -0.298975       0.000010
     15 H                     0.204363      -0.000529
     16 H                     0.192626      -0.000126
  --------------------------------------------------------
  Sum of atomic charges =     0.000000
  Sum of spin   charges =     1.000000

 -----------------------------------------------------------------
                    Cartesian Multipole Moments
 -----------------------------------------------------------------
    Charge (ESU x 10^10)
                -0.0000
    Dipole Moment (Debye)
         X       1.4944      Y      -1.5981      Z      -0.0054
       Tot       2.1880
    Quadrupole Moments (Debye-Ang)
        XX     -51.4808     XY      -8.9059     YY     -49.7506
        XZ      -0.4663     YZ      -6.4267     ZZ     -55.3834
    Octopole Moments (Debye-Ang^2)
       XXX    -208.6517    XXY       4.6821    XYY     -63.2053
       YYY      71.0168    XXZ     -52.5879    XYZ     -16.1298
       YYZ     -28.0183    XZZ     -52.5184    YZZ      -2.9376
       ZZZ    -138.0472
    Hexadecapole Moments (Debye-Ang^3)
      XXXX   -1383.1664   XXXY      61.9729   XXYY    -220.2835
      XYYY     136.2542   YYYY    -439.5419   XXXZ    -328.8930
      XXYZ     -23.2631   XYYZ     -49.0884   YYYZ       6.4819
      XXZZ    -281.3419   XYZZ      -6.5526   YYZZ    -162.0062
      XZZZ    -247.4711   YZZZ     -14.5000   ZZZZ    -692.9639
 -----------------------------------------------------------------
 Calculating analytic gradient of the SCF energy
 Gradient of CDS energy
            1           2           3           4           5           6
    1   0.0017073  -0.0060574   0.0040411   0.0018534  -0.0017888  -0.0001917
    2  -0.0035671   0.0000800   0.0036931  -0.0000300  -0.0014619   0.0011710
    3   0.0033500  -0.0012551  -0.0018141  -0.0014905   0.0010886  -0.0002733
            7           8           9          10          11          12
    1  -0.0002635  -0.0002577   0.0002320   0.0001550  -0.0002293   0.0001095
    2   0.0004173  -0.0003105   0.0000617  -0.0000521  -0.0001764   0.0004172
    3  -0.0000877   0.0001415  -0.0003599  -0.0000602   0.0000293   0.0000583
           13          14          15          16
    1   0.0014484  -0.0006437  -0.0000950  -0.0000196
    2   0.0000636  -0.0007533   0.0004044   0.0000431
    3   0.0005822   0.0003997  -0.0003120   0.0000032
 Gradient of SCF Energy
            1           2           3           4           5           6
    1   0.0078695  -0.0036172  -0.0060617   0.0002774  -0.0142016  -0.0013710
    2  -0.0074366  -0.0026010   0.0074726   0.0010765   0.0185344  -0.0092426
    3  -0.0087941  -0.0043718   0.0008761   0.0049955   0.0058114  -0.0029297
            7           8           9          10          11          12
    1  -0.0070230   0.0031012   0.0175126   0.0037168  -0.0029758   0.0028415
    2   0.0082900  -0.0074821  -0.0134672   0.0028248  -0.0019058   0.0030544
    3   0.0068516   0.0006053  -0.0078516   0.0031041   0.0072319  -0.0059601
           13          14          15          16
    1  -0.0021800   0.0077561  -0.0097699   0.0041251
    2   0.0045916   0.0124041  -0.0026708  -0.0134422
    3  -0.0002935  -0.0048427   0.0050805   0.0004869
 Max gradient component =       1.853E-02
 RMS gradient           =       7.285E-03
 Computing fast CPCM-SWIG gradient
 Updating gradient with PCM contributions...
 -- total gradient after adding PCM contribution --
---------------------------------------------------
  Atom         X              Y              Z     
---------------------------------------------------
   1       0.000190       0.000006       0.000373
   2      -0.000789      -0.000485      -0.000503
   3       0.000248       0.000409      -0.000220
   4       0.001311      -0.003463       0.002063
   5      -0.003324       0.006368       0.002450
   6      -0.001379       0.001264      -0.001250
   7      -0.000127      -0.000038      -0.000005
   8       0.000150      -0.000029       0.000115
   9       0.004292      -0.004751      -0.001603
  10       0.000302       0.000645       0.000498
  11       0.003461      -0.003656      -0.001313
  12      -0.002078       0.002506      -0.000249
  13      -0.003277      -0.003647       0.002325
  14       0.003054       0.008773      -0.004724
  15      -0.002553      -0.000845       0.001557
  16       0.000521      -0.003057       0.000487
---------------------------------------------------
 Number of fixed atoms: 0
 Gradient time:  CPU 182.92 s  wall 16.35 s
 ######################################################
 ######################################################
 # Starting finite difference calculation for IDERIV  #
 Finite diff step size:  1.88973e-03 a.u.
 ----------------------------------------------------------------
             Standard Nuclear Orientation (Angstroms)
    I     Atom           X                Y                Z
 ----------------------------------------------------------------
    1      O      -0.4152773000     0.8544182000    -0.3866292000
    2      C       0.0467450000    -0.0942186000     0.5171860000
    3      O      -0.9525514000    -0.9618692000     0.9417596000
    4      C       1.2051058000    -0.8642346000    -0.1028035000
    5      O       2.1159958000    -0.0695234000    -0.6373704000
    6      O       1.2683001000    -2.0699360000    -0.0539652000
    7      H      -1.0030840000     1.4642517000     0.0779213000
    8      H      -0.6183844000    -1.8683932000     0.8534628000
    9      H       2.8605395000    -0.6196527000    -0.9555190000
   10      H       0.4796439000     0.4391967000     1.4329344000
   11      O       1.3338375000     1.1011110000     2.5376360000
   12      H       2.1145466000     1.2334192000     1.9718453000
   13      C       3.1770415000    -1.4338796000     2.2639867000
   14      O       3.7111515000    -0.4557031000     1.7774824000
   15      H       2.2181908000    -1.3626210000     2.8032803000
   16      H       3.6327094000    -2.4353124000     2.1894843000
 ----------------------------------------------------------------
 Nuclear Repulsion Energy =         490.47255880 hartrees
 There are       37 alpha and       36 beta electrons
 Discretize the solute cavity surface with Lebedev spheres
	Using 110 Lebedev grid points for each H atom
	Using 194 Lebedev grid points for other atoms
	Atomic van der Waals radii will be scaled by 1.20
 Remove points where switching function is < 1.0e-08
 Keep 1418 surface tesserae and discard 1098 interior tesserae
 Molecular Surface Area = 163.218 Angst**2
 Requested basis set is 6-311++G(2df,2p)
 There are 114 shells and 376 basis functions
 A cutoff of  1.0D-11 yielded   5677 shell pairs
 There are     61422 function pairs (     76434 Cartesian)
 Smallest overlap matrix eigenvalue = 2.91E-05
 Guess MOs from SCF MO coefficient file

 -----------------------------------------------------------------------
  General SCF calculation program by
  Eric Jon Sundstrom, Paul Horn, Yuezhi Mao, Dmitri Zuev, Alec White,
  David Stuck, Shaama M.S., Shane Yost, Joonho Lee, David Small,
  Daniel Levine, Susi Lehtola, Hugh Burton, Evgeny Epifanovsky,
  Bang C. Huynh
 -----------------------------------------------------------------------
 Exchange:     0.1500 Hartree-Fock + 1.0000 wB97M-V + LR-HF
 Correlation:  1.0000 wB97M-V
 Using SG-2 standard quadrature grid
 Nonlocal Correlation:  VV10 with C = 0.0100 and b = 6.00 and scale = 1.00000
 Grid used for NLC:  SG-1 standard quadrature
 
 Citation of the SMD model:
 Marenich, A.V.; Cramer, C.J.; Truhlar, D.G.
 J. Phys. Chem. B 2009, 113, 6378-6396.
 iSolventCode=           1
 Solvent: water                                                           
 
 vradii
            1           2           3           4           5           6
    1   1.5200000   1.8500000   1.5200000   1.8500000   1.5200000   1.5200000
            7           8           9          10          11          12
    1   1.2000000   1.2000000   1.2000000   1.2000000   1.5200000   1.2000000
           13          14          15          16
    1   1.8500000   1.5200000   1.2000000   1.2000000
 -------------------------------------------------------
 OpenMP BLAS3 based DFT computing Module                
 Release: version 1.0, May 2013, Q-Chem Inc. Pittsburgh 
 -------------------------------------------------------
 A unrestricted SCF calculation will be
 performed using Roothaan-Hall, DIIS, GDM
 SCF converges when RMS gradient is below 1.0e-06
 ---------------------------------------
  Cycle       Energy         DIIS error
 ---------------------------------------
    1    -569.7890576603      2.15e-04  Roothaan Step
 ---------------------------------------
  Cycle       Energy         DIIS error
 ---------------------------------------
    1    -569.8265930087      2.54e-04  
    2    -569.8299439471      2.40e-04  Done DIIS. Switching to GDM
 ---------------------------------------
  Cycle       Energy        RMS Gradient
 ---------------------------------------
    1    -569.8299439471      1.89e-02   Normal BFGS step
    2    -569.8290059869      2.74e-02  Line search: overstep
    3    -569.8325390221      2.86e-03   Normal BFGS step
    4    -569.8326477857      6.82e-04   Normal BFGS step
    5    -569.8326648118      4.99e-04   Normal BFGS step
    6    -569.8326702603      1.93e-04   Normal BFGS step
    7    -569.8326705859      1.34e-04   Normal BFGS step
    8    -569.8326706808      8.76e-05   Normal BFGS step
    9    -569.8326707219      3.14e-05   Normal BFGS step
   10    -569.8326707310      2.34e-05   Normal BFGS step
   11    -569.8326707340      1.05e-05   Normal BFGS step
   12    -569.8326707343      1.04e-05   Normal BFGS step
   13    -569.8326707347      9.28e-06   Normal BFGS step
   14    -569.8326707350      7.47e-06   Normal BFGS step
   15    -569.8326707354      3.45e-06   Normal BFGS step
   16    -569.8326707355      3.51e-06   Normal BFGS step
   17    -569.8326707355      1.27e-06   Normal BFGS step
   18    -569.8326707353      8.00e-07  Convergence criterion met
 ---------------------------------------
 SCF time:   CPU 1528.98s  wall 105.00s 
<S^2> =          0.756413323
(3)  G-ENP(liq) elect-nuc-pol free energy of system     -569.832670735 a.u.
(4)  G-CDS(liq) cavity-dispersion-solvent structure 
     free energy                                                6.6494 kcal/mol
(6)  G-S(liq) free energy of system                     -569.822074221 a.u.
 SCF   energy in the final basis set =     -569.8220742206
 Total energy in the final basis set =     -569.8220742206
 
 --------------------------------------------------------------
 
                    Orbital Energies (a.u.)
 --------------------------------------------------------------
 
 Alpha MOs
 -- Occupied --
-19.3985 -19.3820 -19.3649 -19.3608 -19.3535 -19.3532 -10.5040 -10.4788
-10.4375  -1.2698  -1.2199  -1.1916  -1.1816  -1.1531  -1.1314  -0.8646
 -0.7476  -0.7464  -0.6869  -0.6714  -0.6458  -0.6164  -0.6065  -0.5877
 -0.5695  -0.5669  -0.5475  -0.5306  -0.5100  -0.5027  -0.4889  -0.4538
 -0.4511  -0.4396  -0.4237  -0.3847  -0.3782
 -- Virtual --
  0.0264   0.0351   0.0392   0.0437   0.0562   0.0606   0.0699   0.0791
  0.0873   0.0941   0.0974   0.1152   0.1232   0.1332   0.1461   0.1523
  0.1550   0.1617   0.1737   0.1765   0.1929   0.2060   0.2143   0.2338
  0.2376   0.2523   0.2578   0.2672   0.2718   0.2831   0.2928   0.2951
  0.2992   0.3048   0.3125   0.3151   0.3256   0.3325   0.3368   0.3450
  0.3479   0.3548   0.3586   0.3723   0.3770   0.3835   0.3914   0.3993
  0.4048   0.4181   0.4325   0.4403   0.4479   0.4566   0.4804   0.4873
  0.4894   0.5445   0.5647   0.5778   0.6013   0.6082   0.6163   0.6233
  0.6371   0.6407   0.6555   0.6636   0.6727   0.6969   0.7098   0.7214
  0.7375   0.7409   0.7837   0.7987   0.8116   0.8258   0.8352   0.8502
  0.8928   0.9063   0.9241   0.9321   0.9441   0.9547   0.9826   1.0048
  1.0159   1.0338   1.0535   1.0636   1.0820   1.0909   1.1117   1.1200
  1.1293   1.1372   1.1479   1.1573   1.1755   1.1796   1.1905   1.1934
  1.2092   1.2380   1.2406   1.2466   1.2605   1.2734   1.2763   1.2934
  1.3190   1.3255   1.3310   1.3523   1.3828   1.4119   1.4153   1.4218
  1.4719   1.4866   1.4908   1.5112   1.5225   1.5373   1.5485   1.5632
  1.5945   1.6145   1.6496   1.6717   1.6843   1.7022   1.7246   1.7437
  1.7505   1.7820   1.7939   1.8217   1.8564   1.8686   1.8947   1.9070
  1.9561   2.0068   2.0335   2.0429   2.0973   2.1178   2.1624   2.1805
  2.2572   2.2752   2.2915   2.3292   2.3654   2.3845   2.4067   2.4321
  2.4508   2.4712   2.5009   2.5326   2.5510   2.5721   2.6184   2.6661
  2.7303   2.7386   2.7730   2.8010   2.8139   2.8791   2.8929   2.9050
  2.9459   3.0225   3.0316   3.0430   3.1255   3.1259   3.1320   3.1500
  3.1776   3.2095   3.2281   3.2427   3.2942   3.3114   3.3532   3.3654
  3.3834   3.4045   3.4289   3.4755   3.5041   3.5073   3.5421   3.5929
  3.6107   3.6228   3.6769   3.6826   3.7060   3.7582   3.7671   3.7902
  3.8055   3.8268   3.8363   3.8587   3.8879   3.8924   3.9211   3.9274
  3.9622   3.9834   4.0381   4.0805   4.1212   4.1340   4.1719   4.1796
  4.2060   4.2173   4.2349   4.2414   4.2647   4.2930   4.3148   4.3772
  4.3861   4.4590   4.5240   4.6287   4.7745   5.0049   5.0752   5.0877
  5.1311   5.1332   5.1464   5.1501   5.1582   5.1671   5.1789   5.1953
  5.2112   5.2249   5.2355   5.2470   5.2579   5.2667   5.2757   5.2842
  5.2885   5.3067   5.3230   5.3338   5.3437   5.3561   5.3867   5.4296
  5.4492   5.5002   5.5119   5.5177   5.5255   5.5403   5.5694   5.5849
  5.5934   5.6130   5.6340   5.6520   5.6632   5.6851   5.7225   5.7737
  5.8976   5.9125   5.9454   6.0020   6.1016   6.1596   6.2072   6.3011
  6.4774   6.5016   6.5726   6.7256   6.8038   6.8831   6.9130   6.9325
  6.9535   7.0042   7.0143   7.0392   7.0478   7.0738   7.0766   7.0945
  7.1025   7.1855   7.2047   7.2440   7.2468   7.2719   7.2911   7.3024
  7.3163   7.3258   7.3581   7.3782   7.4370   7.4550   7.4718   7.5120
  7.5619   7.6446   7.6684   7.7278   7.7448   7.7607   7.7884   7.8270
  7.8979   7.9038  24.7915  24.9014  25.1765  50.4772  50.5786  50.5958
 50.6279  50.6704  50.7495
 
 Beta MOs
 -- Occupied --
-19.3985 -19.3641 -19.3609 -19.3597 -19.3533 -19.3532 -10.5039 -10.4750
-10.4375  -1.2693  -1.2175  -1.1915  -1.1810  -1.1511  -1.0762  -0.8599
 -0.7465  -0.7436  -0.6824  -0.6658  -0.6401  -0.6110  -0.6047  -0.5810
 -0.5658  -0.5512  -0.5463  -0.5233  -0.5055  -0.4874  -0.4537  -0.4373
 -0.4303  -0.4229  -0.4045  -0.3782
 -- Virtual --
 -0.0791   0.0270   0.0352   0.0395   0.0439   0.0567   0.0614   0.0729
  0.0799   0.0876   0.0946   0.0977   0.1153   0.1235   0.1336   0.1473
  0.1526   0.1554   0.1619   0.1749   0.1775   0.1934   0.2101   0.2150
  0.2348   0.2394   0.2549   0.2590   0.2692   0.2727   0.2832   0.2935
  0.2966   0.3000   0.3067   0.3131   0.3167   0.3266   0.3328   0.3378
  0.3482   0.3483   0.3562   0.3599   0.3758   0.3777   0.3866   0.3940
  0.4010   0.4071   0.4226   0.4392   0.4425   0.4487   0.4580   0.4834
  0.4882   0.4910   0.5455   0.5659   0.5804   0.6023   0.6094   0.6178
  0.6253   0.6391   0.6445   0.6559   0.6651   0.6741   0.6979   0.7110
  0.7236   0.7388   0.7417   0.7847   0.7991   0.8129   0.8266   0.8359
  0.8508   0.8957   0.9074   0.9252   0.9349   0.9480   0.9572   0.9832
  1.0056   1.0190   1.0359   1.0584   1.0650   1.0831   1.0923   1.1131
  1.1222   1.1309   1.1380   1.1499   1.1607   1.1790   1.1806   1.1921
  1.1958   1.2145   1.2413   1.2462   1.2593   1.2629   1.2785   1.2796
  1.2956   1.3214   1.3294   1.3343   1.3539   1.3842   1.4148   1.4177
  1.4264   1.4745   1.4916   1.4930   1.5122   1.5241   1.5391   1.5526
  1.5652   1.6000   1.6273   1.6518   1.6744   1.6988   1.7067   1.7300
  1.7494   1.7569   1.7900   1.8016   1.8251   1.8619   1.8753   1.9003
  1.9102   1.9596   2.0082   2.0350   2.0623   2.0997   2.1224   2.1647
  2.1817   2.2593   2.2777   2.2941   2.3303   2.3723   2.3883   2.4107
  2.4335   2.4627   2.4749   2.5047   2.5329   2.5538   2.5734   2.6185
  2.6670   2.7321   2.7418   2.7808   2.8097   2.8160   2.8800   2.8954
  2.9058   2.9479   3.0224   3.0316   3.0432   3.1256   3.1287   3.1328
  3.1502   3.1797   3.2101   3.2300   3.2439   3.2960   3.3118   3.3535
  3.3669   3.3856   3.4062   3.4319   3.4772   3.5063   3.5105   3.5437
  3.5975   3.6133   3.6236   3.6794   3.6881   3.7087   3.7622   3.7722
  3.7943   3.8076   3.8295   3.8375   3.8614   3.8922   3.8974   3.9260
  3.9320   3.9723   3.9887   4.0400   4.0824   4.1214   4.1366   4.1719
  4.1810   4.2063   4.2178   4.2356   4.2461   4.2682   4.2944   4.3148
  4.3758   4.3868   4.4500   4.5191   4.6289   4.7775   5.0052   5.0969
  5.1265   5.1352   5.1456   5.1554   5.1665   5.1770   5.1856   5.1970
  5.2119   5.2209   5.2381   5.2401   5.2538   5.2692   5.2796   5.2845
  5.2925   5.2986   5.3269   5.3307   5.3513   5.3572   5.3820   5.4300
  5.4332   5.4667   5.5019   5.5122   5.5194   5.5263   5.5416   5.5714
  5.5876   5.5947   5.6155   5.6503   5.6594   5.6869   5.7036   5.7252
  5.7788   5.8987   5.9125   5.9458   6.0035   6.1034   6.1608   6.2090
  6.3011   6.4785   6.5071   6.5726   6.7279   6.8052   6.9140   6.9364
  6.9588   6.9802   7.0063   7.0397   7.0524   7.0655   7.0782   7.0965
  7.1082   7.1368   7.2083   7.2233   7.2488   7.2498   7.2737   7.2938
  7.3089   7.3201   7.3598   7.3755   7.3977   7.4387   7.4586   7.4765
  7.5152   7.6232   7.6543   7.6708   7.7289   7.7460   7.7642   7.7890
  7.8285   7.9000   7.9048  24.7947  24.9014  25.1767  50.4917  50.5792
 50.5962  50.6286  50.6705  50.7496
 --------------------------------------------------------------
 
          Ground-State Mulliken Net Atomic Charges

     Atom                 Charge (a.u.)    Spin (a.u.)
  --------------------------------------------------------
      1 O                    -0.365974       0.026092
      2 C                    -0.285376       0.174333
      3 O                    -0.359788       0.032110
      4 C                     0.358974      -0.008898
      5 O                    -0.266652       0.001036
      6 O                    -0.407246       0.008821
      7 H                     0.352190       0.000440
      8 H                     0.316564       0.002193
      9 H                     0.372426      -0.000193
     10 H                     0.391992      -0.030483
     11 O                    -0.422696       0.805774
     12 H                     0.323736      -0.010799
     13 C                    -0.106161       0.000220
     14 O                    -0.298978       0.000010
     15 H                     0.204362      -0.000530
     16 H                     0.192625      -0.000126
  --------------------------------------------------------
  Sum of atomic charges =    -0.000000
  Sum of spin   charges =     1.000000

 -----------------------------------------------------------------
                    Cartesian Multipole Moments
 -----------------------------------------------------------------
    Charge (ESU x 10^10)
                -0.0000
    Dipole Moment (Debye)
         X       1.4896      Y      -1.5975      Z      -0.0080
       Tot       2.1843
    Quadrupole Moments (Debye-Ang)
        XX     -51.4811     XY      -8.9089     YY     -49.7521
        XZ      -0.4680     YZ      -6.4299     ZZ     -55.3892
    Octopole Moments (Debye-Ang^2)
       XXX    -208.6789    XXY       4.6834    XYY     -63.2171
       YYY      71.0174    XXZ     -52.5945    XYZ     -16.1321
       YYZ     -28.0221    XZZ     -52.5342    YZZ      -2.9433
       ZZZ    -138.0657
    Hexadecapole Moments (Debye-Ang^3)
      XXXX   -1383.1563   XXXY      61.9564   XXYY    -220.2852
      XYYY     136.2407   YYYY    -439.5555   XXXZ    -328.8960
      XXYZ     -23.2695   XYYZ     -49.0904   YYYZ       6.4726
      XXZZ    -281.3545   XYZZ      -6.5658   YYZZ    -162.0158
      XZZZ    -247.4909   YZZZ     -14.5215   ZZZZ    -693.0209
 -----------------------------------------------------------------
 Calculating analytic gradient of the SCF energy
 Gradient of CDS energy
            1           2           3           4           5           6
    1   0.0017099  -0.0060608   0.0040416   0.0018531  -0.0017884  -0.0001917
    2  -0.0035790   0.0000922   0.0036933  -0.0000304  -0.0014618   0.0011710
    3   0.0033618  -0.0012675  -0.0018140  -0.0014901   0.0010885  -0.0002733
            7           8           9          10          11          12
    1  -0.0002634  -0.0002577   0.0002320   0.0001550  -0.0002293   0.0001095
    2   0.0004168  -0.0003105   0.0000617  -0.0000519  -0.0001764   0.0004172
    3  -0.0000874   0.0001415  -0.0003599  -0.0000603   0.0000293   0.0000583
           13          14          15          16
    1   0.0014484  -0.0006437  -0.0000950  -0.0000196
    2   0.0000636  -0.0007533   0.0004044   0.0000431
    3   0.0005822   0.0003997  -0.0003120   0.0000032
 Gradient of SCF Energy
            1           2           3           4           5           6
    1   0.0084447  -0.0038097  -0.0060266   0.0002590  -0.0142061  -0.0013759
    2  -0.0079478  -0.0024663   0.0074281   0.0011077   0.0185354  -0.0092257
    3  -0.0089876  -0.0044411   0.0009073   0.0049411   0.0058171  -0.0029207
            7           8           9          10          11          12
    1  -0.0073899   0.0030949   0.0175106   0.0036905  -0.0029612   0.0028393
    2   0.0086460  -0.0074843  -0.0134646   0.0028334  -0.0018994   0.0030557
    3   0.0071635   0.0006098  -0.0078515   0.0030476   0.0072380  -0.0059560
           13          14          15          16
    1  -0.0021814   0.0077530  -0.0097643   0.0041232
    2   0.0045914   0.0124018  -0.0026730  -0.0134382
    3  -0.0002932  -0.0048398   0.0050781   0.0004875
 Max gradient component =       1.854E-02
 RMS gradient           =       7.335E-03
 Computing fast CPCM-SWIG gradient
 Updating gradient with PCM contributions...
 -- total gradient after adding PCM contribution --
---------------------------------------------------
  Atom         X              Y              Z     
---------------------------------------------------
   1       0.000740      -0.000501       0.000179
   2      -0.000984      -0.000352      -0.000578
   3       0.000280       0.000369      -0.000194
   4       0.001294      -0.003431       0.002014
   5      -0.003330       0.006372       0.002455
   6      -0.001385       0.001277      -0.001242
   7      -0.000474       0.000314       0.000307
   8       0.000146      -0.000031       0.000121
   9       0.004293      -0.004751      -0.001603
  10       0.000282       0.000654       0.000449
  11       0.003468      -0.003651      -0.001302
  12      -0.002074       0.002508      -0.000249
  13      -0.003276      -0.003648       0.002326
  14       0.003053       0.008773      -0.004725
  15      -0.002553      -0.000845       0.001557
  16       0.000521      -0.003057       0.000487
---------------------------------------------------
 Number of fixed atoms: 0
 Gradient time:  CPU 181.71 s  wall 16.78 s
 ----------------------------------------------------------------
             Standard Nuclear Orientation (Angstroms)
    I     Atom           X                Y                Z
 ----------------------------------------------------------------
    1      O      -0.4172773000     0.8544182000    -0.3866292000
    2      C       0.0467450000    -0.0942186000     0.5171860000
    3      O      -0.9525514000    -0.9618692000     0.9417596000
    4      C       1.2051058000    -0.8642346000    -0.1028035000
    5      O       2.1159958000    -0.0695234000    -0.6373704000
    6      O       1.2683001000    -2.0699360000    -0.0539652000
    7      H      -1.0030840000     1.4642517000     0.0779213000
    8      H      -0.6183844000    -1.8683932000     0.8534628000
    9      H       2.8605395000    -0.6196527000    -0.9555190000
   10      H       0.4796439000     0.4391967000     1.4329344000
   11      O       1.3338375000     1.1011110000     2.5376360000
   12      H       2.1145466000     1.2334192000     1.9718453000
   13      C       3.1770415000    -1.4338796000     2.2639867000
   14      O       3.7111515000    -0.4557031000     1.7774824000
   15      H       2.2181908000    -1.3626210000     2.8032803000
   16      H       3.6327094000    -2.4353124000     2.1894843000
 ----------------------------------------------------------------
 Nuclear Repulsion Energy =         490.44542078 hartrees
 There are       37 alpha and       36 beta electrons
 Discretize the solute cavity surface with Lebedev spheres
	Using 110 Lebedev grid points for each H atom
	Using 194 Lebedev grid points for other atoms
	Atomic van der Waals radii will be scaled by 1.20
 Remove points where switching function is < 1.0e-08
 Keep 1418 surface tesserae and discard 1098 interior tesserae
 Molecular Surface Area = 163.221 Angst**2
 Requested basis set is 6-311++G(2df,2p)
 There are 114 shells and 376 basis functions
 A cutoff of  1.0D-11 yielded   5677 shell pairs
 There are     61422 function pairs (     76434 Cartesian)
 Smallest overlap matrix eigenvalue = 2.91E-05
 Guess MOs from SCF MO coefficient file

 -----------------------------------------------------------------------
  General SCF calculation program by
  Eric Jon Sundstrom, Paul Horn, Yuezhi Mao, Dmitri Zuev, Alec White,
  David Stuck, Shaama M.S., Shane Yost, Joonho Lee, David Small,
  Daniel Levine, Susi Lehtola, Hugh Burton, Evgeny Epifanovsky,
  Bang C. Huynh
 -----------------------------------------------------------------------
 Exchange:     0.1500 Hartree-Fock + 1.0000 wB97M-V + LR-HF
 Correlation:  1.0000 wB97M-V
 Using SG-2 standard quadrature grid
 Nonlocal Correlation:  VV10 with C = 0.0100 and b = 6.00 and scale = 1.00000
 Grid used for NLC:  SG-1 standard quadrature
 
 Citation of the SMD model:
 Marenich, A.V.; Cramer, C.J.; Truhlar, D.G.
 J. Phys. Chem. B 2009, 113, 6378-6396.
 iSolventCode=           1
 Solvent: water                                                           
 
 vradii
            1           2           3           4           5           6
    1   1.5200000   1.8500000   1.5200000   1.8500000   1.5200000   1.5200000
            7           8           9          10          11          12
    1   1.2000000   1.2000000   1.2000000   1.2000000   1.5200000   1.2000000
           13          14          15          16
    1   1.8500000   1.5200000   1.2000000   1.2000000
 -------------------------------------------------------
 OpenMP BLAS3 based DFT computing Module                
 Release: version 1.0, May 2013, Q-Chem Inc. Pittsburgh 
 -------------------------------------------------------
 A unrestricted SCF calculation will be
 performed using Roothaan-Hall, DIIS, GDM
 SCF converges when RMS gradient is below 1.0e-06
 ---------------------------------------
  Cycle       Energy         DIIS error
 ---------------------------------------
    1    -569.7890565282      2.15e-04  Roothaan Step
 ---------------------------------------
  Cycle       Energy         DIIS error
 ---------------------------------------
    1    -569.8265888503      2.54e-04  
    2    -569.8299449804      2.39e-04  Done DIIS. Switching to GDM
 ---------------------------------------
  Cycle       Energy        RMS Gradient
 ---------------------------------------
    1    -569.8299449804      1.89e-02   Normal BFGS step
    2    -569.8290079698      2.74e-02  Line search: overstep
    3    -569.8325333153      2.86e-03   Normal BFGS step
    4    -569.8326421836      6.55e-04   Normal BFGS step
    5    -569.8326591330      4.97e-04   Normal BFGS step
    6    -569.8326645508      1.89e-04   Normal BFGS step
    7    -569.8326648661      1.30e-04   Normal BFGS step
    8    -569.8326649534      8.64e-05   Normal BFGS step
    9    -569.8326649900      3.31e-05   Normal BFGS step
   10    -569.8326649987      2.24e-05   Normal BFGS step
   11    -569.8326650014      6.56e-06   Normal BFGS step
   12    -569.8326650015      4.80e-06   Normal BFGS step
   13    -569.8326650018      4.15e-06   Normal BFGS step
   14    -569.8326650019      3.65e-06   Normal BFGS step
   15    -569.8326650020      2.51e-06   Normal BFGS step
   16    -569.8326650021      1.91e-06   Normal BFGS step
   17    -569.8326650021      1.08e-06   Normal BFGS step
   18    -569.8326650022      9.15e-07  Convergence criterion met
 ---------------------------------------
 SCF time:   CPU 1540.10s  wall 106.00s 
<S^2> =          0.756407272
(3)  G-ENP(liq) elect-nuc-pol free energy of system     -569.832665002 a.u.
(4)  G-CDS(liq) cavity-dispersion-solvent structure 
     free energy                                                6.6454 kcal/mol
(6)  G-S(liq) free energy of system                     -569.822074940 a.u.
 SCF   energy in the final basis set =     -569.8220749399
 Total energy in the final basis set =     -569.8220749399
 
 --------------------------------------------------------------
 
                    Orbital Energies (a.u.)
 --------------------------------------------------------------
 
 Alpha MOs
 -- Occupied --
-19.3986 -19.3820 -19.3647 -19.3607 -19.3535 -19.3532 -10.5040 -10.4788
-10.4375  -1.2698  -1.2199  -1.1916  -1.1816  -1.1531  -1.1314  -0.8647
 -0.7477  -0.7464  -0.6869  -0.6715  -0.6458  -0.6163  -0.6065  -0.5877
 -0.5696  -0.5669  -0.5475  -0.5305  -0.5100  -0.5027  -0.4889  -0.4538
 -0.4512  -0.4396  -0.4237  -0.3848  -0.3782
 -- Virtual --
  0.0264   0.0351   0.0392   0.0437   0.0562   0.0607   0.0698   0.0791
  0.0873   0.0941   0.0974   0.1152   0.1232   0.1333   0.1461   0.1523
  0.1550   0.1617   0.1737   0.1765   0.1929   0.2060   0.2143   0.2338
  0.2376   0.2523   0.2578   0.2671   0.2719   0.2831   0.2928   0.2951
  0.2992   0.3048   0.3125   0.3150   0.3256   0.3325   0.3368   0.3450
  0.3479   0.3548   0.3586   0.3723   0.3770   0.3834   0.3914   0.3993
  0.4047   0.4180   0.4324   0.4403   0.4478   0.4566   0.4804   0.4873
  0.4894   0.5445   0.5648   0.5777   0.6013   0.6082   0.6164   0.6234
  0.6372   0.6407   0.6556   0.6636   0.6728   0.6969   0.7099   0.7214
  0.7375   0.7409   0.7836   0.7987   0.8116   0.8258   0.8352   0.8503
  0.8929   0.9063   0.9240   0.9322   0.9442   0.9547   0.9826   1.0048
  1.0159   1.0338   1.0535   1.0636   1.0820   1.0909   1.1117   1.1199
  1.1293   1.1371   1.1479   1.1573   1.1755   1.1794   1.1905   1.1934
  1.2092   1.2380   1.2406   1.2465   1.2605   1.2734   1.2762   1.2933
  1.3190   1.3255   1.3310   1.3523   1.3827   1.4120   1.4154   1.4217
  1.4719   1.4865   1.4909   1.5113   1.5225   1.5373   1.5489   1.5632
  1.5945   1.6146   1.6495   1.6716   1.6843   1.7021   1.7246   1.7435
  1.7503   1.7820   1.7938   1.8219   1.8564   1.8686   1.8947   1.9070
  1.9564   2.0069   2.0335   2.0429   2.0972   2.1178   2.1623   2.1805
  2.2570   2.2751   2.2914   2.3289   2.3650   2.3840   2.4067   2.4320
  2.4506   2.4712   2.5007   2.5326   2.5508   2.5719   2.6184   2.6661
  2.7301   2.7386   2.7733   2.8013   2.8138   2.8791   2.8928   2.9050
  2.9459   3.0225   3.0317   3.0430   3.1254   3.1259   3.1321   3.1500
  3.1776   3.2095   3.2279   3.2426   3.2940   3.3114   3.3531   3.3654
  3.3833   3.4045   3.4290   3.4756   3.5041   3.5072   3.5420   3.5931
  3.6108   3.6228   3.6769   3.6825   3.7060   3.7583   3.7670   3.7902
  3.8056   3.8268   3.8363   3.8587   3.8879   3.8922   3.9211   3.9271
  3.9622   3.9834   4.0381   4.0805   4.1212   4.1343   4.1719   4.1798
  4.2061   4.2174   4.2349   4.2415   4.2647   4.2936   4.3151   4.3777
  4.3867   4.4589   4.5240   4.6287   4.7745   5.0049   5.0752   5.0876
  5.1311   5.1332   5.1463   5.1501   5.1581   5.1671   5.1789   5.1952
  5.2112   5.2248   5.2353   5.2470   5.2578   5.2668   5.2757   5.2842
  5.2883   5.3067   5.3230   5.3338   5.3437   5.3561   5.3866   5.4299
  5.4492   5.5002   5.5118   5.5176   5.5255   5.5403   5.5693   5.5849
  5.5942   5.6140   5.6339   5.6520   5.6632   5.6851   5.7228   5.7738
  5.8983   5.9125   5.9455   6.0019   6.1007   6.1594   6.2060   6.3011
  6.4769   6.5010   6.5726   6.7249   6.8036   6.8830   6.9130   6.9325
  6.9535   7.0042   7.0143   7.0392   7.0479   7.0738   7.0765   7.0945
  7.1025   7.1855   7.2048   7.2440   7.2499   7.2720   7.2913   7.3030
  7.3165   7.3259   7.3585   7.3784   7.4369   7.4555   7.4718   7.5120
  7.5618   7.6448   7.6682   7.7279   7.7449   7.7607   7.7883   7.8271
  7.8979   7.9031  24.7904  24.9014  25.1763  50.4771  50.5790  50.5958
 50.6279  50.6704  50.7494
 
 Beta MOs
 -- Occupied --
-19.3986 -19.3639 -19.3610 -19.3597 -19.3533 -19.3533 -10.5040 -10.4751
-10.4375  -1.2693  -1.2175  -1.1915  -1.1810  -1.1511  -1.0762  -0.8600
 -0.7465  -0.7436  -0.6824  -0.6659  -0.6401  -0.6110  -0.6047  -0.5810
 -0.5658  -0.5512  -0.5463  -0.5232  -0.5055  -0.4875  -0.4537  -0.4373
 -0.4304  -0.4229  -0.4046  -0.3782
 -- Virtual --
 -0.0791   0.0270   0.0352   0.0395   0.0439   0.0567   0.0614   0.0729
  0.0799   0.0876   0.0946   0.0977   0.1153   0.1235   0.1336   0.1473
  0.1526   0.1554   0.1619   0.1749   0.1776   0.1934   0.2101   0.2150
  0.2348   0.2393   0.2549   0.2590   0.2691   0.2727   0.2832   0.2936
  0.2966   0.3000   0.3067   0.3131   0.3167   0.3266   0.3328   0.3378
  0.3482   0.3483   0.3562   0.3598   0.3758   0.3778   0.3865   0.3940
  0.4009   0.4070   0.4225   0.4391   0.4425   0.4486   0.4580   0.4834
  0.4882   0.4910   0.5454   0.5660   0.5803   0.6023   0.6095   0.6178
  0.6254   0.6392   0.6445   0.6560   0.6650   0.6741   0.6979   0.7110
  0.7235   0.7388   0.7416   0.7846   0.7990   0.8129   0.8266   0.8359
  0.8508   0.8959   0.9074   0.9252   0.9350   0.9480   0.9572   0.9832
  1.0056   1.0190   1.0359   1.0584   1.0650   1.0831   1.0923   1.1131
  1.1221   1.1308   1.1380   1.1499   1.1607   1.1790   1.1805   1.1921
  1.1957   1.2145   1.2412   1.2460   1.2593   1.2629   1.2785   1.2795
  1.2955   1.3214   1.3294   1.3343   1.3539   1.3841   1.4148   1.4177
  1.4263   1.4745   1.4916   1.4931   1.5123   1.5241   1.5390   1.5530
  1.5652   1.6000   1.6274   1.6517   1.6744   1.6987   1.7067   1.7299
  1.7493   1.7568   1.7900   1.8015   1.8253   1.8619   1.8753   1.9003
  1.9102   1.9599   2.0083   2.0350   2.0622   2.0996   2.1224   2.1647
  2.1817   2.2592   2.2776   2.2940   2.3301   2.3718   2.3880   2.4107
  2.4334   2.4626   2.4749   2.5044   2.5329   2.5537   2.5732   2.6185
  2.6670   2.7319   2.7418   2.7812   2.8099   2.8159   2.8799   2.8953
  2.9058   2.9479   3.0224   3.0317   3.0432   3.1256   3.1287   3.1329
  3.1502   3.1797   3.2101   3.2298   3.2439   3.2958   3.3118   3.3535
  3.3668   3.3855   3.4063   3.4320   3.4772   3.5063   3.5103   3.5436
  3.5977   3.6134   3.6236   3.6794   3.6881   3.7087   3.7623   3.7721
  3.7943   3.8076   3.8295   3.8375   3.8614   3.8922   3.8972   3.9259
  3.9318   3.9723   3.9888   4.0400   4.0824   4.1215   4.1370   4.1719
  4.1812   4.2064   4.2178   4.2356   4.2462   4.2682   4.2950   4.3150
  4.3761   4.3876   4.4499   4.5191   4.6289   4.7775   5.0052   5.0969
  5.1264   5.1352   5.1456   5.1554   5.1665   5.1769   5.1855   5.1969
  5.2118   5.2209   5.2381   5.2400   5.2538   5.2691   5.2796   5.2845
  5.2925   5.2985   5.3268   5.3306   5.3512   5.3573   5.3819   5.4301
  5.4335   5.4667   5.5020   5.5122   5.5193   5.5263   5.5416   5.5713
  5.5876   5.5956   5.6165   5.6502   5.6594   5.6869   5.7036   5.7254
  5.7789   5.8994   5.9125   5.9459   6.0035   6.1025   6.1606   6.2078
  6.3011   6.4780   6.5065   6.5726   6.7271   6.8050   6.9140   6.9364
  6.9587   6.9801   7.0063   7.0396   7.0525   7.0654   7.0783   7.0966
  7.1081   7.1366   7.2083   7.2233   7.2487   7.2530   7.2739   7.2940
  7.3099   7.3201   7.3601   7.3754   7.3979   7.4387   7.4592   7.4765
  7.5152   7.6232   7.6544   7.6707   7.7289   7.7461   7.7642   7.7890
  7.8285   7.9000   7.9041  24.7935  24.9014  25.1766  50.4916  50.5796
 50.5962  50.6287  50.6705  50.7496
 --------------------------------------------------------------
 
          Ground-State Mulliken Net Atomic Charges

     Atom                 Charge (a.u.)    Spin (a.u.)
  --------------------------------------------------------
      1 O                    -0.366111       0.025953
      2 C                    -0.285664       0.174210
      3 O                    -0.359692       0.032075
      4 C                     0.359161      -0.008870
      5 O                    -0.266582       0.001040
      6 O                    -0.407160       0.008815
      7 H                     0.351806       0.000435
      8 H                     0.316516       0.002187
      9 H                     0.372436      -0.000194
     10 H                     0.392085      -0.030508
     11 O                    -0.422406       0.806085
     12 H                     0.323759      -0.010803
     13 C                    -0.106164       0.000220
     14 O                    -0.298974       0.000010
     15 H                     0.204363      -0.000529
     16 H                     0.192626      -0.000126
  --------------------------------------------------------
  Sum of atomic charges =     0.000000
  Sum of spin   charges =     1.000000

 -----------------------------------------------------------------
                    Cartesian Multipole Moments
 -----------------------------------------------------------------
    Charge (ESU x 10^10)
                -0.0000
    Dipole Moment (Debye)
         X       1.4992      Y      -1.5986      Z      -0.0027
       Tot       2.1916
    Quadrupole Moments (Debye-Ang)
        XX     -51.4805     XY      -8.9029     YY     -49.7492
        XZ      -0.4645     YZ      -6.4236     ZZ     -55.3776
    Octopole Moments (Debye-Ang^2)
       XXX    -208.6245    XXY       4.6807    XYY     -63.1936
       YYY      71.0162    XXZ     -52.5813    XYZ     -16.1276
       YYZ     -28.0144    XZZ     -52.5024    YZZ      -2.9321
       ZZZ    -138.0285
    Hexadecapole Moments (Debye-Ang^3)
      XXXX   -1383.1765   XXXY      61.9895   XXYY    -220.2817
      XYYY     136.2676   YYYY    -439.5280   XXXZ    -328.8901
      XXYZ     -23.2568   XYYZ     -49.0863   YYYZ       6.4911
      XXZZ    -281.3292   XYZZ      -6.5394   YYZZ    -161.9967
      XZZZ    -247.4511   YZZZ     -14.4786   ZZZZ    -692.9062
 -----------------------------------------------------------------
 Calculating analytic gradient of the SCF energy
 Gradient of CDS energy
            1           2           3           4           5           6
    1   0.0017043  -0.0060537   0.0040406   0.0018537  -0.0017892  -0.0001917
    2  -0.0035546   0.0000671   0.0036930  -0.0000297  -0.0014621   0.0011710
    3   0.0033375  -0.0012420  -0.0018142  -0.0014908   0.0010887  -0.0002733
            7           8           9          10          11          12
    1  -0.0002636  -0.0002577   0.0002320   0.0001549  -0.0002293   0.0001095
    2   0.0004179  -0.0003105   0.0000617  -0.0000523  -0.0001764   0.0004172
    3  -0.0000880   0.0001415  -0.0003599  -0.0000601   0.0000293   0.0000583
           13          14          15          16
    1   0.0014484  -0.0006437  -0.0000950  -0.0000196
    2   0.0000636  -0.0007533   0.0004044   0.0000431
    3   0.0005822   0.0003997  -0.0003120   0.0000032
 Gradient of SCF Energy
            1           2           3           4           5           6
    1   0.0072938  -0.0034244  -0.0060968   0.0002955  -0.0141970  -0.0013661
    2  -0.0069232  -0.0027366   0.0075171   0.0010449   0.0185336  -0.0092591
    3  -0.0085997  -0.0043020   0.0008449   0.0050500   0.0058057  -0.0029387
            7           8           9          10          11          12
    1  -0.0066557   0.0031075   0.0175146   0.0037430  -0.0029903   0.0028436
    2   0.0079322  -0.0074797  -0.0134699   0.0028162  -0.0019120   0.0030529
    3   0.0065385   0.0006009  -0.0078518   0.0031605   0.0072260  -0.0059645
           13          14          15          16
    1  -0.0021786   0.0077592  -0.0097754   0.0041269
    2   0.0045919   0.0124064  -0.0026686  -0.0134461
    3  -0.0002938  -0.0048456   0.0050830   0.0004864
 Max gradient component =       1.853E-02
 RMS gradient           =       7.238E-03
 Computing fast CPCM-SWIG gradient
 Updating gradient with PCM contributions...
 -- total gradient after adding PCM contribution --
---------------------------------------------------
  Atom         X              Y              Z     
---------------------------------------------------
   1      -0.000360       0.000516       0.000566
   2      -0.000593      -0.000618      -0.000426
   3       0.000216       0.000450      -0.000247
   4       0.001327      -0.003495       0.002113
   5      -0.003318       0.006365       0.002445
   6      -0.001374       0.001251      -0.001259
   7       0.000221      -0.000392      -0.000318
   8       0.000154      -0.000027       0.000110
   9       0.004290      -0.004752      -0.001602
  10       0.000322       0.000635       0.000548
  11       0.003454      -0.003661      -0.001324
  12      -0.002083       0.002504      -0.000249
  13      -0.003277      -0.003647       0.002325
  14       0.003054       0.008772      -0.004724
  15      -0.002553      -0.000845       0.001557
  16       0.000521      -0.003057       0.000487
---------------------------------------------------
 Number of fixed atoms: 0
 Gradient time:  CPU 181.49 s  wall 16.22 s
 ----------------------------------------------------------------
             Standard Nuclear Orientation (Angstroms)
    I     Atom           X                Y                Z
 ----------------------------------------------------------------
    1      O      -0.4162773000     0.8554182000    -0.3866292000
    2      C       0.0467450000    -0.0942186000     0.5171860000
    3      O      -0.9525514000    -0.9618692000     0.9417596000
    4      C       1.2051058000    -0.8642346000    -0.1028035000
    5      O       2.1159958000    -0.0695234000    -0.6373704000
    6      O       1.2683001000    -2.0699360000    -0.0539652000
    7      H      -1.0030840000     1.4642517000     0.0779213000
    8      H      -0.6183844000    -1.8683932000     0.8534628000
    9      H       2.8605395000    -0.6196527000    -0.9555190000
   10      H       0.4796439000     0.4391967000     1.4329344000
   11      O       1.3338375000     1.1011110000     2.5376360000
   12      H       2.1145466000     1.2334192000     1.9718453000
   13      C       3.1770415000    -1.4338796000     2.2639867000
   14      O       3.7111515000    -0.4557031000     1.7774824000
   15      H       2.2181908000    -1.3626210000     2.8032803000
   16      H       3.6327094000    -2.4353124000     2.1894843000
 ----------------------------------------------------------------
 Nuclear Repulsion Energy =         490.43904036 hartrees
 There are       37 alpha and       36 beta electrons
 Discretize the solute cavity surface with Lebedev spheres
	Using 110 Lebedev grid points for each H atom
	Using 194 Lebedev grid points for other atoms
	Atomic van der Waals radii will be scaled by 1.20
 Remove points where switching function is < 1.0e-08
 Keep 1418 surface tesserae and discard 1098 interior tesserae
 Molecular Surface Area = 163.223 Angst**2
 Requested basis set is 6-311++G(2df,2p)
 There are 114 shells and 376 basis functions
 A cutoff of  1.0D-11 yielded   5677 shell pairs
 There are     61422 function pairs (     76434 Cartesian)
 Smallest overlap matrix eigenvalue = 2.91E-05
 Guess MOs from SCF MO coefficient file

 -----------------------------------------------------------------------
  General SCF calculation program by
  Eric Jon Sundstrom, Paul Horn, Yuezhi Mao, Dmitri Zuev, Alec White,
  David Stuck, Shaama M.S., Shane Yost, Joonho Lee, David Small,
  Daniel Levine, Susi Lehtola, Hugh Burton, Evgeny Epifanovsky,
  Bang C. Huynh
 -----------------------------------------------------------------------
 Exchange:     0.1500 Hartree-Fock + 1.0000 wB97M-V + LR-HF
 Correlation:  1.0000 wB97M-V
 Using SG-2 standard quadrature grid
 Nonlocal Correlation:  VV10 with C = 0.0100 and b = 6.00 and scale = 1.00000
 Grid used for NLC:  SG-1 standard quadrature
 
 Citation of the SMD model:
 Marenich, A.V.; Cramer, C.J.; Truhlar, D.G.
 J. Phys. Chem. B 2009, 113, 6378-6396.
 iSolventCode=           1
 Solvent: water                                                           
 
 vradii
            1           2           3           4           5           6
    1   1.5200000   1.8500000   1.5200000   1.8500000   1.5200000   1.5200000
            7           8           9          10          11          12
    1   1.2000000   1.2000000   1.2000000   1.2000000   1.5200000   1.2000000
           13          14          15          16
    1   1.8500000   1.5200000   1.2000000   1.2000000
 -------------------------------------------------------
 OpenMP BLAS3 based DFT computing Module                
 Release: version 1.0, May 2013, Q-Chem Inc. Pittsburgh 
 -------------------------------------------------------
 A unrestricted SCF calculation will be
 performed using Roothaan-Hall, DIIS, GDM
 SCF converges when RMS gradient is below 1.0e-06
 ---------------------------------------
  Cycle       Energy         DIIS error
 ---------------------------------------
    1    -569.7890544864      2.15e-04  Roothaan Step
 ---------------------------------------
  Cycle       Energy         DIIS error
 ---------------------------------------
    1    -569.8265840974      2.54e-04  
    2    -569.8299373620      2.40e-04  Done DIIS. Switching to GDM
 ---------------------------------------
  Cycle       Energy        RMS Gradient
 ---------------------------------------
    1    -569.8299373620      1.89e-02   Normal BFGS step
    2    -569.8289998364      2.74e-02  Line search: overstep
    3    -569.8325292047      2.86e-03   Normal BFGS step
    4    -569.8326380093      6.74e-04   Normal BFGS step
    5    -569.8326550065      4.99e-04   Normal BFGS step
    6    -569.8326604410      1.93e-04   Normal BFGS step
    7    -569.8326607650      1.33e-04   Normal BFGS step
    8    -569.8326608583      8.76e-05   Normal BFGS step
    9    -569.8326608986      3.15e-05   Normal BFGS step
   10    -569.8326609077      2.33e-05   Normal BFGS step
   11    -569.8326609107      1.14e-05   Normal BFGS step
   12    -569.8326609110      1.12e-05   Normal BFGS step
   13    -569.8326609114      9.93e-06   Normal BFGS step
   14    -569.8326609118      7.81e-06   Normal BFGS step
   15    -569.8326609123      3.70e-06   Normal BFGS step
   16    -569.8326609123      3.62e-06   Normal BFGS step
   17    -569.8326609123      1.30e-06   Normal BFGS step
   18    -569.8326609121      7.94e-07  Convergence criterion met
 ---------------------------------------
 SCF time:   CPU 1544.39s  wall 106.00s 
<S^2> =          0.756409452
(3)  G-ENP(liq) elect-nuc-pol free energy of system     -569.832660912 a.u.
(4)  G-CDS(liq) cavity-dispersion-solvent structure 
     free energy                                                6.6432 kcal/mol
(6)  G-S(liq) free energy of system                     -569.822074345 a.u.
 SCF   energy in the final basis set =     -569.8220743449
 Total energy in the final basis set =     -569.8220743449
 
 --------------------------------------------------------------
 
                    Orbital Energies (a.u.)
 --------------------------------------------------------------
 
 Alpha MOs
 -- Occupied --
-19.3986 -19.3820 -19.3648 -19.3608 -19.3535 -19.3532 -10.5040 -10.4789
-10.4375  -1.2698  -1.2198  -1.1916  -1.1816  -1.1531  -1.1314  -0.8647
 -0.7477  -0.7464  -0.6868  -0.6715  -0.6458  -0.6164  -0.6065  -0.5877
 -0.5696  -0.5669  -0.5475  -0.5305  -0.5100  -0.5027  -0.4890  -0.4538
 -0.4512  -0.4396  -0.4237  -0.3848  -0.3782
 -- Virtual --
  0.0264   0.0351   0.0392   0.0437   0.0562   0.0607   0.0698   0.0791
  0.0873   0.0941   0.0974   0.1152   0.1232   0.1333   0.1461   0.1523
  0.1550   0.1617   0.1737   0.1765   0.1929   0.2060   0.2143   0.2338
  0.2376   0.2523   0.2577   0.2672   0.2719   0.2831   0.2928   0.2951
  0.2992   0.3048   0.3125   0.3151   0.3256   0.3325   0.3368   0.3450
  0.3479   0.3547   0.3586   0.3723   0.3770   0.3834   0.3913   0.3992
  0.4047   0.4180   0.4324   0.4403   0.4478   0.4566   0.4804   0.4873
  0.4894   0.5445   0.5648   0.5778   0.6013   0.6082   0.6164   0.6234
  0.6372   0.6407   0.6556   0.6636   0.6727   0.6969   0.7099   0.7213
  0.7375   0.7409   0.7836   0.7987   0.8116   0.8258   0.8351   0.8502
  0.8928   0.9062   0.9240   0.9322   0.9441   0.9547   0.9826   1.0049
  1.0159   1.0338   1.0535   1.0636   1.0820   1.0909   1.1117   1.1199
  1.1293   1.1371   1.1479   1.1573   1.1755   1.1795   1.1905   1.1934
  1.2091   1.2380   1.2406   1.2466   1.2605   1.2733   1.2762   1.2933
  1.3190   1.3255   1.3309   1.3522   1.3828   1.4120   1.4153   1.4218
  1.4719   1.4865   1.4909   1.5112   1.5225   1.5373   1.5489   1.5632
  1.5945   1.6146   1.6496   1.6717   1.6843   1.7022   1.7244   1.7437
  1.7504   1.7819   1.7938   1.8217   1.8564   1.8686   1.8947   1.9070
  1.9561   2.0067   2.0334   2.0429   2.0971   2.1178   2.1622   2.1804
  2.2571   2.2751   2.2913   2.3289   2.3648   2.3841   2.4067   2.4320
  2.4506   2.4711   2.5007   2.5326   2.5509   2.5719   2.6184   2.6661
  2.7301   2.7386   2.7732   2.8012   2.8138   2.8791   2.8928   2.9049
  2.9458   3.0225   3.0315   3.0429   3.1254   3.1258   3.1320   3.1500
  3.1776   3.2095   3.2279   3.2426   3.2938   3.3114   3.3532   3.3654
  3.3832   3.4044   3.4288   3.4755   3.5040   3.5071   3.5420   3.5930
  3.6108   3.6228   3.6769   3.6826   3.7060   3.7583   3.7671   3.7902
  3.8055   3.8267   3.8363   3.8587   3.8878   3.8921   3.9210   3.9269
  3.9622   3.9834   4.0381   4.0805   4.1213   4.1344   4.1719   4.1798
  4.2061   4.2173   4.2349   4.2414   4.2647   4.2933   4.3152   4.3776
  4.3866   4.4590   4.5239   4.6287   4.7745   5.0049   5.0752   5.0876
  5.1311   5.1332   5.1463   5.1501   5.1581   5.1671   5.1789   5.1953
  5.2112   5.2248   5.2353   5.2470   5.2578   5.2667   5.2756   5.2842
  5.2884   5.3066   5.3230   5.3337   5.3437   5.3561   5.3866   5.4299
  5.4491   5.5002   5.5118   5.5176   5.5255   5.5403   5.5693   5.5849
  5.5940   5.6139   5.6339   5.6520   5.6630   5.6850   5.7228   5.7736
  5.8974   5.9125   5.9454   6.0015   6.1009   6.1591   6.2063   6.3011
  6.4769   6.5008   6.5726   6.7243   6.8033   6.8830   6.9130   6.9325
  6.9535   7.0042   7.0143   7.0392   7.0479   7.0737   7.0765   7.0945
  7.1025   7.1855   7.2047   7.2439   7.2499   7.2720   7.2911   7.3032
  7.3165   7.3259   7.3584   7.3782   7.4369   7.4554   7.4718   7.5116
  7.5618   7.6445   7.6682   7.7278   7.7448   7.7605   7.7882   7.8271
  7.8978   7.9032  24.7898  24.9014  25.1763  50.4771  50.5789  50.5957
 50.6279  50.6704  50.7494
 
 Beta MOs
 -- Occupied --
-19.3986 -19.3640 -19.3610 -19.3597 -19.3533 -19.3533 -10.5040 -10.4751
-10.4375  -1.2693  -1.2174  -1.1915  -1.1810  -1.1511  -1.0762  -0.8600
 -0.7465  -0.7436  -0.6824  -0.6658  -0.6401  -0.6110  -0.6047  -0.5810
 -0.5658  -0.5512  -0.5463  -0.5232  -0.5055  -0.4875  -0.4537  -0.4373
 -0.4303  -0.4229  -0.4046  -0.3782
 -- Virtual --
 -0.0791   0.0270   0.0352   0.0395   0.0439   0.0567   0.0614   0.0729
  0.0799   0.0876   0.0946   0.0977   0.1153   0.1235   0.1336   0.1473
  0.1526   0.1554   0.1619   0.1749   0.1776   0.1934   0.2101   0.2150
  0.2348   0.2393   0.2549   0.2590   0.2692   0.2727   0.2832   0.2936
  0.2966   0.3000   0.3067   0.3131   0.3167   0.3266   0.3328   0.3377
  0.3482   0.3482   0.3561   0.3598   0.3757   0.3778   0.3865   0.3939
  0.4009   0.4070   0.4225   0.4392   0.4425   0.4486   0.4580   0.4834
  0.4882   0.4910   0.5454   0.5660   0.5803   0.6023   0.6095   0.6178
  0.6254   0.6392   0.6445   0.6560   0.6650   0.6741   0.6980   0.7110
  0.7235   0.7388   0.7416   0.7846   0.7991   0.8129   0.8266   0.8359
  0.8508   0.8958   0.9073   0.9251   0.9350   0.9480   0.9572   0.9832
  1.0056   1.0190   1.0359   1.0584   1.0650   1.0831   1.0922   1.1131
  1.1221   1.1309   1.1380   1.1499   1.1607   1.1790   1.1805   1.1921
  1.1958   1.2145   1.2413   1.2461   1.2593   1.2629   1.2785   1.2796
  1.2956   1.3213   1.3294   1.3342   1.3538   1.3841   1.4148   1.4177
  1.4264   1.4745   1.4916   1.4931   1.5122   1.5241   1.5390   1.5530
  1.5652   1.6000   1.6274   1.6517   1.6744   1.6987   1.7067   1.7299
  1.7494   1.7568   1.7900   1.8015   1.8251   1.8619   1.8752   1.9003
  1.9102   1.9597   2.0082   2.0350   2.0623   2.0995   2.1223   2.1645
  2.1816   2.2592   2.2776   2.2939   2.3301   2.3716   2.3880   2.4107
  2.4334   2.4626   2.4748   2.5045   2.5329   2.5537   2.5732   2.6185
  2.6670   2.7319   2.7418   2.7812   2.8098   2.8159   2.8800   2.8953
  2.9058   2.9478   3.0224   3.0314   3.0431   3.1256   3.1286   3.1328
  3.1502   3.1797   3.2101   3.2298   3.2439   3.2957   3.3118   3.3535
  3.3669   3.3855   3.4062   3.4318   3.4771   3.5062   3.5102   3.5437
  3.5976   3.6133   3.6236   3.6794   3.6881   3.7086   3.7623   3.7722
  3.7943   3.8076   3.8295   3.8375   3.8614   3.8920   3.8971   3.9259
  3.9315   3.9722   3.9887   4.0399   4.0824   4.1215   4.1370   4.1719
  4.1812   4.2064   4.2177   4.2356   4.2461   4.2682   4.2947   4.3151
  4.3761   4.3875   4.4499   4.5191   4.6289   4.7775   5.0052   5.0969
  5.1265   5.1352   5.1456   5.1554   5.1665   5.1770   5.1856   5.1970
  5.2118   5.2209   5.2380   5.2400   5.2538   5.2691   5.2796   5.2844
  5.2925   5.2985   5.3268   5.3305   5.3512   5.3572   5.3820   5.4300
  5.4334   5.4666   5.5020   5.5122   5.5193   5.5263   5.5416   5.5713
  5.5876   5.5953   5.6165   5.6502   5.6593   5.6868   5.7035   5.7254
  5.7787   5.8985   5.9125   5.9458   6.0030   6.1027   6.1602   6.2081
  6.3011   6.4780   6.5062   6.5726   6.7265   6.8047   6.9140   6.9364
  6.9587   6.9801   7.0063   7.0397   7.0524   7.0654   7.0782   7.0964
  7.1081   7.1367   7.2083   7.2233   7.2487   7.2531   7.2739   7.2938
  7.3101   7.3201   7.3601   7.3753   7.3978   7.4387   7.4591   7.4765
  7.5148   7.6231   7.6541   7.6707   7.7289   7.7460   7.7640   7.7888
  7.8285   7.8999   7.9042  24.7929  24.9014  25.1766  50.4916  50.5795
 50.5961  50.6286  50.6705  50.7496
 --------------------------------------------------------------
 
          Ground-State Mulliken Net Atomic Charges

     Atom                 Charge (a.u.)    Spin (a.u.)
  --------------------------------------------------------
      1 O                    -0.366157       0.025992
      2 C                    -0.285727       0.174253
      3 O                    -0.359522       0.032095
      4 C                     0.359164      -0.008883
      5 O                    -0.266566       0.001039
      6 O                    -0.407179       0.008820
      7 H                     0.351779       0.000427
      8 H                     0.316558       0.002187
      9 H                     0.372434      -0.000194
     10 H                     0.392087      -0.030506
     11 O                    -0.422478       0.805997
     12 H                     0.323755      -0.010802
     13 C                    -0.106162       0.000220
     14 O                    -0.298976       0.000010
     15 H                     0.204365      -0.000529
     16 H                     0.192626      -0.000126
  --------------------------------------------------------
  Sum of atomic charges =     0.000000
  Sum of spin   charges =     1.000000

 -----------------------------------------------------------------
                    Cartesian Multipole Moments
 -----------------------------------------------------------------
    Charge (ESU x 10^10)
                -0.0000
    Dipole Moment (Debye)
         X       1.4953      Y      -1.6030      Z      -0.0032
       Tot       2.1922
    Quadrupole Moments (Debye-Ang)
        XX     -51.4782     XY      -8.9035     YY     -49.7538
        XZ      -0.4663     YZ      -6.4254     ZZ     -55.3797
    Octopole Moments (Debye-Ang^2)
       XXX    -208.6483    XXY       4.6734    XYY     -63.2017
       YYY      70.9849    XXZ     -52.5842    XYZ     -16.1278
       YYZ     -28.0124    XZZ     -52.5149    YZZ      -2.9436
       ZZZ    -138.0357
    Hexadecapole Moments (Debye-Ang^3)
      XXXX   -1383.1471   XXXY      61.9809   XXYY    -220.2869
      XYYY     136.2628   YYYY    -439.5943   XXXZ    -328.8921
      XXYZ     -23.2585   XYYZ     -49.0885   YYYZ       6.4918
      XXZZ    -281.3318   XYZZ      -6.5442   YYZZ    -162.0076
      XZZZ    -247.4641   YZZZ     -14.4853   ZZZZ    -692.9340
 -----------------------------------------------------------------
 Calculating analytic gradient of the SCF energy
 Gradient of CDS energy
            1           2           3           4           5           6
    1   0.0016944  -0.0060438   0.0040412   0.0018532  -0.0017890  -0.0001917
    2  -0.0035431   0.0000539   0.0036935  -0.0000300  -0.0014614   0.0011710
    3   0.0033241  -0.0012277  -0.0018143  -0.0014907   0.0010884  -0.0002733
            7           8           9          10          11          12
    1  -0.0002640  -0.0002577   0.0002320   0.0001550  -0.0002293   0.0001095
    2   0.0004181  -0.0003105   0.0000617  -0.0000517  -0.0001764   0.0004172
    3  -0.0000884   0.0001415  -0.0003599  -0.0000604   0.0000293   0.0000583
           13          14          15          16
    1   0.0014484  -0.0006437  -0.0000950  -0.0000196
    2   0.0000636  -0.0007533   0.0004044   0.0000431
    3   0.0005822   0.0003997  -0.0003120   0.0000032
 Gradient of SCF Energy
[...]
      1 O                    -0.366244       0.026985
      2 C                    -0.322243       0.180677
      3 O                    -0.353386       0.036503
      4 C                     0.331340      -0.004548
      5 O                    -0.249892       0.001248
      6 O                    -0.429354       0.010884
      7 H                     0.347152      -0.000131
      8 H                     0.321527       0.001293
      9 H                     0.362431       0.000152
     10 H                     0.478821      -0.036409
     11 O                    -0.495751       0.792904
     12 H                     0.322860      -0.008040
     13 C                    -0.066992      -0.000357
     14 O                    -0.282726      -0.000459
     15 H                     0.217330      -0.000624
     16 H                     0.185127      -0.000080
  --------------------------------------------------------
  Sum of atomic charges =     0.000000
  Sum of spin   charges =     1.000000

 -----------------------------------------------------------------
                    Cartesian Multipole Moments
 -----------------------------------------------------------------
    Charge (ESU x 10^10)
                 0.0000
    Dipole Moment (Debye)
         X       1.4059      Y      -3.6260      Z       0.1591
       Tot       3.8923
    Quadrupole Moments (Debye-Ang)
        XX     -51.2470     XY     -11.9537     YY     -52.7546
        XZ      -2.5257     YZ     -10.4491     ZZ     -50.2986
    Octopole Moments (Debye-Ang^2)
       XXX    -211.2047    XXY       4.0362    XYY     -68.2494
       YYY      48.3443    XXZ     -59.9847    XYZ     -23.5607
       YYZ     -27.3139    XZZ     -46.6627    YZZ     -15.4925
       ZZZ    -127.6525
    Hexadecapole Moments (Debye-Ang^3)
      XXXX   -1222.0133   XXXY      74.1592   XXYY    -228.7941
      XYYY     105.1031   YYYY    -456.9208   XXXZ    -359.6579
      XXYZ     -26.3687   XYYZ     -49.2175   YYYZ     -10.5315
      XXZZ    -278.0965   XYZZ     -22.9329   YYZZ    -173.3724
      XZZZ    -252.8618   YZZZ     -19.3037   ZZZZ    -741.1292
 -----------------------------------------------------------------
 Calculating analytic gradient of the SCF energy
 Gradient of CDS energy
            1           2           3           4           5           6
    1   0.0029240  -0.0060446   0.0030015   0.0018121  -0.0016082  -0.0004153
    2  -0.0029481  -0.0004874   0.0037178   0.0005179  -0.0018339   0.0010712
    3   0.0032471  -0.0002746  -0.0026750  -0.0023452   0.0020144  -0.0003878
            7           8           9          10          11          12
    1  -0.0003350  -0.0002505   0.0003153   0.0001229  -0.0003063   0.0001741
    2   0.0003635  -0.0003036   0.0000389  -0.0001287   0.0000697   0.0002212
    3  -0.0000587   0.0001181  -0.0002839  -0.0000133  -0.0000442   0.0001082
           13          14          15          16
    1   0.0013304  -0.0006015  -0.0000689  -0.0000501
    2   0.0001886  -0.0008728   0.0003429   0.0000427
    3   0.0009096   0.0001556  -0.0004302  -0.0000401
 Gradient of SCF Energy
            1           2           3           4           5           6
    1   0.0063654  -0.0016898  -0.0106223  -0.0012789  -0.0131775   0.0019710
    2  -0.0060376   0.0018672   0.0100386   0.0039486   0.0122348  -0.0109978
    3  -0.0092889  -0.0035917  -0.0004920   0.0034942   0.0061318  -0.0013487
            7           8           9          10          11          12
    1  -0.0063584   0.0084136   0.0140447   0.0025908  -0.0035207   0.0021043
    2   0.0065770  -0.0104590  -0.0081355  -0.0014048   0.0079798  -0.0062756
    3   0.0069568   0.0042707  -0.0088771   0.0017820   0.0020067  -0.0011809
           13          14          15          16
    1   0.0053330   0.0053127  -0.0143098   0.0048220
    2   0.0083817   0.0063446  -0.0019199  -0.0121422
    3  -0.0017247  -0.0010911   0.0037428  -0.0007902
 Max gradient component =       1.431E-02
 RMS gradient           =       6.905E-03
 Computing fast CPCM-SWIG gradient
 Updating gradient with PCM contributions...
 -- total gradient after adding PCM contribution --
---------------------------------------------------
  Atom         X              Y              Z     
---------------------------------------------------
   1      -0.000017      -0.000004       0.000002
   2       0.000015       0.000043       0.000009
   3      -0.000007      -0.000017      -0.000034
   4      -0.000002       0.000021      -0.000038
   5      -0.000024      -0.000012      -0.000008
   6       0.000043      -0.000018       0.000043
   7       0.000005      -0.000001      -0.000012
   8       0.000006       0.000001       0.000008
   9       0.000007      -0.000003       0.000007
  10       0.000028      -0.000029      -0.000053
  11      -0.000107      -0.000050       0.000192
  12       0.000130       0.000097      -0.000257
  13       0.000006       0.000015       0.000063
  14      -0.000055      -0.000036       0.000122
  15      -0.000006       0.000003      -0.000003
  16      -0.000020      -0.000009      -0.000042
---------------------------------------------------
 Number of fixed atoms: 0
 Gradient time:  CPU 210.89 s  wall 18.48 s
 Geometry Optimization Parameters
   NAtoms,    NIC,     NZ,  NCons,   NDum,   NFix, NCnnct, MaxDiis
       16      88       0       0       0       0       0       0

 Cartesian Hessian Update
 Hessian updated using Powell/Murtagh-Sargent update
  Mixing factors:     0.998242 Powell                      0.001758 Murtagh-Sargent


** GEOMETRY OPTIMIZATION IN DELOCALIZED INTERNAL COORDINATES **
   Searching for a Transition State

   Optimization Cycle:  74

                       Coordinates (Angstroms)
     ATOM                X               Y               Z
      1  O        -0.5921887758    0.6936896813   -0.3740698093
      2  C         0.1824855854   -0.0727174748    0.4845230576
      3  O        -0.5786650749   -1.0080553970    1.1773101025
      4  C         1.3038082779   -0.7511859747   -0.2914248640
      5  O         1.9195515478    0.0680267437   -1.1248918041
      6  O         1.6011925155   -1.9079094429   -0.1015800482
      7  H        -1.1608161461    1.2680809042    0.1543233303
      8  H        -0.0638787065   -1.8270314328    1.2422095056
      9  H         2.6434119606   -0.4065503710   -1.5659144707
     10  H         0.6954520649    0.6266519764    1.2385000497
     11  O         1.4519736508    1.5029811507    2.2341021136
     12  H         2.2174146435    0.8870225142    2.2836774882
     13  C         2.8785841961   -1.5703139843    2.4696195637
     14  O         3.4364754048   -0.5163201383    2.2496577401
     15  H         1.8402854724   -1.6037728606    2.8248659563
     16  H         3.3984236837   -2.5255428941    2.3297838888
   Point Group: c1    Number of degrees of freedom:    42


   Energy is   -569.826604729

 Hessian updated using Powell/Murtagh-Sargent update
  Mixing factors:     0.998409 Powell                      0.001591 Murtagh-Sargent

 42 Hessian modes will be used to form the next step
  Hessian Eigenvalues:
    -0.027530    0.000242    0.001403    0.002169    0.002816    0.004662
     0.008188    0.008739    0.010708    0.019989    0.022164    0.044652
     0.050161    0.065478    0.077578    0.080857    0.099593    0.118144
     0.134672    0.142470    0.155103    0.164230    0.170072    0.185925
     0.189251    0.197822    0.224858    0.236614    0.242679    0.314461
     0.317692    0.341323    0.370805    0.426964    0.461546    0.476154
     0.488003    0.504062    0.512445    0.521780    0.812837    0.852511

 Transition state search - taking P-RFO step
 Searching for Lamda that Maximizes Along the Lowest mode
 Value Taken    Lamda =   0.00000001
 Searching for Lamda that Minimizes Along All other modes
 Value Taken    Lamda =  -0.00000133
 Step Taken.  Stepsize is  0.041578

                             Maximum     Tolerance    Cnvgd?
         Gradient           0.000168      0.000300     YES
         Displacement       0.019649      0.001200      NO
         Energy change     -0.000001      0.000001     YES

 Final energy is   -569.826604729140     


 ******************************
 **  OPTIMIZATION CONVERGED  **
 ******************************

                       Coordinates (Angstroms)
     ATOM                X               Y               Z
      1  O        -0.5921887758    0.6936896813   -0.3740698093
      2  C         0.1824855854   -0.0727174748    0.4845230576
      3  O        -0.5786650749   -1.0080553970    1.1773101025
      4  C         1.3038082779   -0.7511859747   -0.2914248640
      5  O         1.9195515478    0.0680267437   -1.1248918041
      6  O         1.6011925155   -1.9079094429   -0.1015800482
      7  H        -1.1608161461    1.2680809042    0.1543233303
      8  H        -0.0638787065   -1.8270314328    1.2422095056
      9  H         2.6434119606   -0.4065503710   -1.5659144707
     10  H         0.6954520649    0.6266519764    1.2385000497
     11  O         1.4519736508    1.5029811507    2.2341021136
     12  H         2.2174146435    0.8870225142    2.2836774882
     13  C         2.8785841961   -1.5703139843    2.4696195637
     14  O         3.4364754048   -0.5163201383    2.2496577401
     15  H         1.8402854724   -1.6037728606    2.8248659563
     16  H         3.3984236837   -2.5255428941    2.3297838888

Z-matrix Print:
$molecule
0 2
O 
C  1 1.209334
O  2 1.320953 1 125.282771
H  3 0.971441 2 109.318214 1 0.449233 0
C  2 1.523082 1 121.812701 3 -177.197818 0
H  5 1.149232 2 106.063945 1 105.881451 0
O  5 1.387329 2 109.992082 1 -136.853592 0
H  7 0.965641 5 108.588565 2 -167.115950 0
O  5 1.390741 2 110.923678 1 -12.421407 0
H  9 0.969504 5 108.111471 2 18.041928 0
O  6 1.526925 5 176.549038 2 -23.284962 0
H  11 0.983749 6 93.383289 5 -7.472444 0
O  12 1.859203 11 169.073677 6 -19.638523 0
C  13 1.212654 12 110.553220 11 -32.716918 0
H  14 1.096471 13 121.061241 12 169.890087 0
H  14 1.097900 13 121.349905 12 -10.729632 0
$end

 
 --------------------------------------------------------------
 
                    Orbital Energies (a.u.)
 --------------------------------------------------------------
 
 Alpha MOs
 -- Occupied --
-19.3987 -19.3740 -19.3660 -19.3613 -19.3598 -19.3520 -10.5044 -10.4797
-10.4426  -1.2700  -1.2212  -1.2018  -1.1814  -1.1535  -1.1228  -0.8653
 -0.7529  -0.7490  -0.6845  -0.6748  -0.6468  -0.6206  -0.6162  -0.5897
 -0.5740  -0.5546  -0.5471  -0.5289  -0.5162  -0.5012  -0.4929  -0.4539
 -0.4480  -0.4402  -0.4232  -0.3861  -0.3795
 -- Virtual --
  0.0272   0.0311   0.0404   0.0439   0.0569   0.0622   0.0734   0.0832
  0.0903   0.0970   0.0988   0.1133   0.1215   0.1308   0.1456   0.1481
  0.1582   0.1629   0.1689   0.1765   0.2010   0.2131   0.2207   0.2317
  0.2413   0.2568   0.2613   0.2639   0.2787   0.2858   0.2982   0.2989
  0.3028   0.3041   0.3130   0.3185   0.3238   0.3284   0.3351   0.3457
  0.3522   0.3551   0.3608   0.3671   0.3693   0.3799   0.3864   0.3899
  0.4054   0.4236   0.4301   0.4308   0.4546   0.4605   0.4723   0.4927
  0.5028   0.5141   0.5584   0.5805   0.5891   0.6044   0.6138   0.6357
  0.6423   0.6444   0.6676   0.6748   0.6814   0.7083   0.7176   0.7246
  0.7370   0.7668   0.7835   0.7899   0.7951   0.8115   0.8531   0.8580
  0.8677   0.8757   0.9086   0.9333   0.9446   0.9518   0.9836   1.0069
  1.0221   1.0323   1.0414   1.0553   1.0788   1.0827   1.1055   1.1171
  1.1248   1.1431   1.1480   1.1539   1.1680   1.1856   1.1905   1.2062
  1.2129   1.2200   1.2241   1.2304   1.2484   1.2628   1.2726   1.2919
  1.3118   1.3198   1.3296   1.3652   1.3845   1.4012   1.4141   1.4269
  1.4390   1.4935   1.5044   1.5181   1.5363   1.5646   1.5691   1.5821
  1.6173   1.6324   1.6658   1.6935   1.6957   1.7145   1.7212   1.7441
  1.7450   1.7738   1.7922   1.8249   1.8540   1.8939   1.9317   1.9504
  1.9714   1.9873   2.0060   2.0519   2.1168   2.1492   2.1572   2.2627
  2.2718   2.2847   2.3066   2.3315   2.3727   2.4007   2.4253   2.4442
  2.4553   2.4783   2.5174   2.5240   2.5677   2.5860   2.6272   2.6531
  2.6918   2.7269   2.7764   2.8028   2.8584   2.8887   2.9204   2.9342
  2.9403   3.0185   3.0327   3.0542   3.1067   3.1331   3.1346   3.1575
  3.1772   3.2050   3.2398   3.2571   3.2872   3.3214   3.3380   3.3573
  3.3719   3.3977   3.4210   3.4719   3.4844   3.5305   3.5634   3.5943
  3.6149   3.6290   3.6382   3.6781   3.6984   3.7552   3.7748   3.7980
  3.8055   3.8298   3.8395   3.8479   3.8611   3.9028   3.9072   3.9294
  3.9663   3.9955   4.0229   4.0960   4.1065   4.1384   4.1767   4.1841
  4.2094   4.2167   4.2326   4.2663   4.2981   4.3183   4.3858   4.3941
  4.4030   4.4810   4.5376   4.6432   4.7731   5.0302   5.0569   5.0837
  5.1021   5.1324   5.1454   5.1536   5.1605   5.1718   5.1921   5.2030
  5.2094   5.2131   5.2399   5.2517   5.2544   5.2686   5.2752   5.2930
  5.3049   5.3183   5.3204   5.3479   5.3584   5.3773   5.4229   5.4439
  5.4636   5.4982   5.5047   5.5193   5.5444   5.5570   5.5860   5.6016
  5.6052   5.6091   5.6168   5.6475   5.6601   5.6908   5.7313   5.7721
  5.9130   5.9284   5.9446   6.0069   6.1032   6.1595   6.1898   6.3057
  6.4717   6.5069   6.5774   6.7343   6.8005   6.8937   6.9144   6.9251
  7.0039   7.0102   7.0337   7.0451   7.0616   7.0771   7.0776   7.0878
  7.1382   7.2070   7.2344   7.2431   7.2546   7.2806   7.2982   7.3058
  7.3135   7.3292   7.3578   7.3688   7.4374   7.4443   7.4587   7.4994
  7.6335   7.6553   7.6739   7.7397   7.7574   7.7687   7.7739   7.8171
  7.8931   7.9071  24.7904  24.9118  25.1596  50.4778  50.5835  50.5879
 50.6248  50.6908  50.7370
 
 Beta MOs
 -- Occupied --
-19.3986 -19.3652 -19.3602 -19.3599 -19.3533 -19.3517 -10.5043 -10.4758
-10.4426  -1.2695  -1.2187  -1.2017  -1.1806  -1.1515  -1.0688  -0.8603
 -0.7527  -0.7453  -0.6804  -0.6678  -0.6406  -0.6172  -0.6123  -0.5862
 -0.5705  -0.5465  -0.5370  -0.5200  -0.5154  -0.4912  -0.4522  -0.4402
 -0.4289  -0.4190  -0.4033  -0.3845
 -- Virtual --
 -0.0763   0.0276   0.0313   0.0407   0.0440   0.0571   0.0627   0.0780
  0.0835   0.0909   0.0973   0.0995   0.1134   0.1220   0.1309   0.1462
  0.1482   0.1585   0.1631   0.1702   0.1776   0.2023   0.2151   0.2233
  0.2328   0.2429   0.2580   0.2631   0.2648   0.2795   0.2870   0.2991
  0.3002   0.3055   0.3069   0.3143   0.3190   0.3244   0.3288   0.3366
  0.3469   0.3547   0.3558   0.3621   0.3688   0.3700   0.3816   0.3894
  0.3921   0.4092   0.4249   0.4307   0.4428   0.4597   0.4641   0.4735
  0.4939   0.5041   0.5150   0.5596   0.5812   0.5912   0.6050   0.6146
  0.6366   0.6439   0.6455   0.6683   0.6757   0.6832   0.7094   0.7191
  0.7268   0.7380   0.7691   0.7842   0.7920   0.7970   0.8127   0.8538
  0.8586   0.8690   0.8765   0.9105   0.9343   0.9463   0.9538   0.9848
  1.0087   1.0239   1.0342   1.0429   1.0584   1.0793   1.0863   1.1089
  1.1187   1.1264   1.1450   1.1507   1.1556   1.1704   1.1900   1.1961
  1.2079   1.2160   1.2218   1.2300   1.2375   1.2640   1.2649   1.2770
  1.2950   1.3151   1.3214   1.3309   1.3665   1.3877   1.4042   1.4163
  1.4295   1.4400   1.4941   1.5050   1.5190   1.5387   1.5659   1.5724
  1.5869   1.6351   1.6380   1.6682   1.6963   1.7001   1.7235   1.7355
  1.7466   1.7524   1.7779   1.7971   1.8290   1.8569   1.8968   1.9374
  1.9595   1.9753   1.9925   2.0223   2.0535   2.1185   2.1528   2.1586
  2.2660   2.2731   2.2923   2.3104   2.3321   2.3755   2.4040   2.4266
  2.4460   2.4618   2.4923   2.5212   2.5241   2.5733   2.5874   2.6279
  2.6545   2.6971   2.7289   2.7780   2.8038   2.8604   2.8931   2.9216
  2.9357   2.9457   3.0187   3.0340   3.0550   3.1068   3.1333   3.1379
  3.1576   3.1801   3.2061   3.2413   3.2577   3.2892   3.3217   3.3387
  3.3592   3.3741   3.4005   3.4227   3.4740   3.4869   3.5326   3.5644
  3.6023   3.6154   3.6301   3.6404   3.6818   3.7021   3.7610   3.7813
  3.8025   3.8067   3.8325   3.8431   3.8499   3.8645   3.9078   3.9106
  3.9338   3.9719   4.0037   4.0262   4.0981   4.1066   4.1410   4.1769
  4.1854   4.2097   4.2178   4.2335   4.2665   4.2988   4.3198   4.3847
  4.3954   4.4106   4.4693   4.5326   4.6431   4.7764   5.0310   5.0715
  5.1302   5.1346   5.1412   5.1526   5.1590   5.1730   5.1910   5.1961
  5.2131   5.2187   5.2284   5.2439   5.2570   5.2679   5.2782   5.2861
  5.3023   5.3078   5.3256   5.3427   5.3522   5.3677   5.4236   5.4350
  5.4590   5.4883   5.5020   5.5061   5.5238   5.5487   5.5621   5.5957
  5.6032   5.6077   5.6159   5.6294   5.6491   5.6892   5.6982   5.7401
  5.7785   5.9139   5.9288   5.9455   6.0081   6.1051   6.1609   6.1916
  6.3057   6.4729   6.5129   6.5773   6.7360   6.8033   6.9171   6.9329
  6.9852   7.0062   7.0337   7.0459   7.0643   7.0754   7.0801   7.0821
  7.1150   7.1725   7.2087   7.2388   7.2513   7.2568   7.2989   7.3071
  7.3157   7.3207   7.3597   7.3658   7.3887   7.4431   7.4466   7.4743
  7.5024   7.6475   7.6752   7.6955   7.7438   7.7598   7.7738   7.7760
  7.8184   7.8952   7.9083  24.7937  24.9118  25.1600  50.4921  50.5841
 50.5883  50.6256  50.6908  50.7373
 --------------------------------------------------------------
 
          Ground-State Mulliken Net Atomic Charges

     Atom                 Charge (a.u.)    Spin (a.u.)
  --------------------------------------------------------
      1 O                    -0.366244       0.026985
      2 C                    -0.322243       0.180677
      3 O                    -0.353386       0.036503
      4 C                     0.331340      -0.004548
      5 O                    -0.249892       0.001248
      6 O                    -0.429354       0.010884
      7 H                     0.347152      -0.000131
      8 H                     0.321527       0.001293
      9 H                     0.362431       0.000152
     10 H                     0.478821      -0.036409
     11 O                    -0.495751       0.792904
     12 H                     0.322860      -0.008040
     13 C                    -0.066992      -0.000357
     14 O                    -0.282726      -0.000459
     15 H                     0.217330      -0.000624
     16 H                     0.185127      -0.000080
  --------------------------------------------------------
  Sum of atomic charges =     0.000000
  Sum of spin   charges =     1.000000

 -----------------------------------------------------------------
                    Cartesian Multipole Moments
 -----------------------------------------------------------------
    Charge (ESU x 10^10)
                 0.0000
    Dipole Moment (Debye)
         X       1.4059      Y      -3.6260      Z       0.1591
       Tot       3.8923
    Quadrupole Moments (Debye-Ang)
        XX     -51.2470     XY     -11.9537     YY     -52.7546
        XZ      -2.5257     YZ     -10.4491     ZZ     -50.2986
    Octopole Moments (Debye-Ang^2)
       XXX    -211.2047    XXY       4.0362    XYY     -68.2494
       YYY      48.3443    XXZ     -59.9847    XYZ     -23.5607
       YYZ     -27.3139    XZZ     -46.6627    YZZ     -15.4925
       ZZZ    -127.6525
    Hexadecapole Moments (Debye-Ang^3)
      XXXX   -1222.0133   XXXY      74.1592   XXYY    -228.7941
      XYYY     105.1031   YYYY    -456.9208   XXXZ    -359.6579
      XXYZ     -26.3687   XYYZ     -49.2175   YYYZ     -10.5315
      XXZZ    -278.0965   XYZZ     -22.9329   YYZZ    -173.3724
      XZZZ    -252.8618   YZZZ     -19.3037   ZZZZ    -741.1292
 -----------------------------------------------------------------
 Total job time:  10964.80s(wall), 155099.79s(cpu) 
 Sat Jul 13 00:09:44 2024

        *************************************************************
        *                                                           *
        *  Thank you very much for using Q-Chem.  Have a nice day.  *
        *                                                           *
        *************************************************************


