
Running Job 1 of 2 Q_in.in
qchem Q_in.in_43878.0 /scratch/ari.fischer/qChem1383785.hpc-mn1/qchem43878/ 0
/usr/local/qchem-5.4.1/exe/qcprog.exe_s Q_in.in_43878.0 /scratch/ari.fischer/qChem1383785.hpc-mn1/qchem43878/
                  Welcome to Q-Chem
     A Quantum Leap Into The Future Of Chemistry


 Q-Chem 5.4, Q-Chem, Inc., Pleasanton, CA (2021)

 License issued to: Nanyang Technological University (site)

 E. Epifanovsky,  A. T. B. Gilbert,  Xintian Feng,  Joonho Lee,  Yuezhi Mao,  
 N. Mardirossian,  P. Pokhilko,  A. White,  M. Wormit,  M. P. Coons,  
 A. L. Dempwolff,  Zhengting Gan,  D. Hait,  P. R. Horn,  L. D. Jacobson,  
 I. Kaliman,  J. Kussmann,  A. W. Lange,  Ka Un Lao,  D. S. Levine,  Jie Liu,  
 S. C. McKenzie,  A. F. Morrison,  K. Nanda,  F. Plasser,  D. R. Rehn,  
 M. L. Vidal,  Zhi-Qiang You,  Ying Zhu,  B. Alam,  B. Albrecht,  
 A. Aldossary,  E. Alguire,  J. H. Andersen,  D. Barton,  K. Begam,  A. Behn,  
 Y. A. Bernard,  E. J. Berquist,  H. Burton,  A. Carreras,  K. Carter-Fenk,  
 R. Chakraborty,  A. D. Chien,  K. D. Closser,  V. Cofer-Shabica,  
 S. Dasgupta,  Jia Deng,  M. de Wergifosse,  M. Diedenhofen,  Hainam Do,  
 S. Ehlert,  Po-Tung Fang,  S. Fatehi,  Qingguo Feng,  T. Friedhoff,  
 J. Gayvert,  Qinghui Ge,  G. Gidofalvi,  M. Goldey,  J. Gomes,  
 C. Gonzalez-Espinoza,  S. Gulania,  A. Gunina,  M. W. D. Hanson-Heine,  
 P. H. P. Harbach,  A. W. Hauser,  M. F. Herbst,  M. Hernandez Vera,  
 M. Hodecker,  Z. C. Holden,  S. Houck,  Xunkun Huang,  Kerwin Hui,  
 B. C. Huynh,  M. Ivanov,  Hyunjun Ji,  Hanjie Jiang,  B. Kaduk,  S. Kaehler,  
 K. Khistyaev,  Jaehoon Kim,  P. Klunzinger,  Z. Koczor-Benda,  
 Joong Hoon Koh,  D. Kosenkov,  L. Koulias,  T. Kowalczyk,  C. M. Krauter,  
 K. Kue,  A. Kunitsa,  T. Kus,  A. Landau,  K. V. Lawler,  D. Lefrancois,  
 S. Lehtola,  Rain Li,  Yi-Pei Li,  Jiashu Liang,  M. Liebenthal,  
 Hung-Hsuan Lin,  You-Sheng Lin,  Fenglai Liu,  Kuan-Yu Liu,  
 M. Loipersberger,  A. Luenser,  A. Manjanath,  P. Manohar,  E. Mansoor,  
 S. F. Manzer,  Shan-Ping Mao,  A. V. Marenich,  T. Markovich,  S. Mason,  
 S. A. Maurer,  P. F. McLaughlin,  M. F. S. J. Menger,  J.-M. Mewes,  
 S. A. Mewes,  P. Morgante,  J. W. Mullinax,  K. J. Oosterbaan,  G. Paran,  
 Alexander C. Paul,  Suranjan K. Paul,  F. Pavosevic,  Zheng Pei,  S. Prager,  
 E. I. Proynov,  E. Ramos,  B. Rana,  A. E. Rask,  A. Rettig,  R. M. Richard,  
 F. Rob,  E. Rossomme,  T. Scheele,  M. Scheurer,  M. Schneider,  
 N. Sergueev,  S. M. Sharada,  W. Skomorowski,  D. W. Small,  C. J. Stein,  
 Yu-Chuan Su,  E. J. Sundstrom,  Zhen Tao,  J. Thirman,  T. Tsuchimochi,  
 N. M. Tubman,  S. P. Veccham,  O. Vydrov,  J. Wenzel,  J. Witte,  A. Yamada,  
 Kun Yao,  S. Yeganeh,  S. R. Yost,  A. Zech,  Igor Ying Zhang,  Xing Zhang,  
 Yu Zhang,  D. Zuev,  A. Aspuru-Guzik,  A. T. Bell,  N. A. Besley,  
 K. B. Bravaya,  B. R. Brooks,  D. Casanova,  Jeng-Da Chai,  S. Coriani,  
 C. J. Cramer,  A. E. DePrince, III,  R. A. DiStasio Jr.,  A. Dreuw,  
 B. D. Dunietz,  T. R. Furlani,  W. A. Goddard III,  S. Grimme,  
 S. Hammes-Schiffer,  T. Head-Gordon,  W. J. Hehre,  Chao-Ping Hsu,  
 T.-C. Jagau,  Yousung Jung,  A. Klamt,  Jing Kong,  D. S. Lambrecht,  
 WanZhen Liang,  N. J. Mayhall,  C. W. McCurdy,  J. B. Neaton,  
 C. Ochsenfeld,  J. A. Parkhill,  R. Peverati,  V. A. Rassolov,  Yihan Shao,  
 L. V. Slipchenko,  T. Stauch,  R. P. Steele,  J. E. Subotnik,  
 A. J. W. Thom,  A. Tkatchenko,  D. G. Truhlar,  T. Van Voorhis,  
 T. A. Wesolowski,  K. B. Whaley,  H. L. Woodcock III,  P. M. Zimmerman,  
 S. Faraji,  P. M. W. Gill,  M. Head-Gordon,  J. M. Herbert,  A. I. Krylov

 Additional authors for Version 5.4.1: 
 S. Kotaru,  Shaozhi Li,  Xiangyuan Li,  F. Matz,  A. Molle,  Haisheng Ren,  
 Yingli Su,  Hung-Yi Tsai,  C. Utku,  Fang Wang

 Contributors to earlier versions of Q-Chem not listed above: 
 R. D. Adamson,  B. Austin,  R. Baer,  J. Baker,  G. J. O. Beran,  
 K. Brandhorst,  S. T. Brown,  E. F. C. Byrd,  A. K. Chakraborty,  
 G. K. L. Chan,  Chun-Min Chang,  Yunqing Chen,  C.-L. Cheng,  
 Siu Hung Chien,  D. M. Chipman,  D. L. Crittenden,  H. Dachsel,  
 R. J. Doerksen,  A. D. Dutoi,  R. G. Edgar,  J. Fosso-Tande,  
 L. Fusti-Molnar,  D. Ghosh,  A. Ghysels,  A. Golubeva-Zadorozhnaya,  
 J. Gonthier,  M. S. Gordon,  S. R. Gwaltney,  G. Hawkins,  J. E. Herr,  
 A. Heyden,  S. Hirata,  E. G. Hohenstein,  G. Kedziora,  F. J. Keil,  
 C. Kelley,  Jihan Kim,  R. A. King,  R. Z. Khaliullin,  P. P. Korambath,  
 W. Kurlancheek,  A. Laurent,  A. M. Lee,  M. S. Lee,  S. V. Levchenko,  
 Ching Yeh Lin,  D. Liotard,  E. Livshits,  R. C. Lochan,  I. Lotan,  
 L. A. Martinez-Martinez,  P. E. Maslen,  N. Nair,  D. P. O'Neill,  
 D. Neuhauser,  E. Neuscamman,  C. M. Oana,  R. Olivares-Amaya,  R. Olson,  
 T. M. Perrine,  B. Peters,  P. A. Pieniazek,  A. Prociuk,  Y. M. Rhee,  
 J. Ritchie,  M. A. Rohrdanz,  E. Rosta,  N. J. Russ,  H. F. Schaefer III,  
 M. W. Schmidt,  N. E. Schultz,  S. Sharma,  N. Shenvi,  C. D. Sherrill,  
 A. C. Simmonett,  A. Sodt,  T. Stein,  D. Stuck,  K. S. Thanthiriwatte,  
 V. Vanovschi,  L. Vogt,  Tao Wang,  A. Warshel,  M. A. Watson,  
 C. F. Williams,  Q. Wu,  X. Xu,  Jun Yang,  W. Zhang,  Yan Zhao

 Please cite Q-Chem as follows:
 Y. Shao et al., Mol. Phys. 113, 184-215 (2015)
 DOI: 10.1080/00268976.2014.952696

 Q-Chem 5.4.1 for Intel X86 EM64T Linux

 Parts of Q-Chem use Armadillo 9.800.1 (Horizon Scraper).
 http://arma.sourceforge.net/

 Q-Chem begins on Tue Dec 27 20:40:58 2022  

 Host: 
0

     Scratch files written to /scratch/ari.fischer/qChem1383785.hpc-mn1/qchem43878//
 Aug1521 |scratch|qcdevops|jenkins|workspace|build_RNUM 8249   
 Processing $rem in /usr/local/qchem-5.4.1/config/preferences:
 Processing $rem in /home/ari.fischer/.qchemrc:
 Symmetry turned off for PCM/SM12/SMD calculation


!!********************************************.
!!******************Warning*******************.
!!Desired Analytical derivatives not available.
!!Finite difference job might take a long time.
!!********************************************.
!!********************************************.


 2-order derivative to be evaluated numerically with 1-order analytical derivatives

 Checking the input file for inconsistencies... 	...done.

--------------------------------------------------------------
User input:
--------------------------------------------------------------
$molecule
0 2
C    0.8157265   -0.7087273   -0.6711115
H    1.7526203   -0.2528968   -0.4466860
H    0.3841453    0.4275265   -1.5879297
O   -0.1386816   -0.6773236    0.3005009
O    0.6927367    1.6815182   -2.1568811
H    1.6385810    1.5774485   -2.1725790
H   -0.1930153    0.2545554    0.6364023
C    0.9208820   -2.0638626   -1.2791431
C   -0.2255977   -2.7980496   -1.6203921
H   -1.1776113   -2.3526513   -1.5057865
C   -0.0866896   -4.0882388   -2.1198436
H   -0.9614743   -4.6506387   -2.3859145
C    1.1835515   -4.6652357   -2.2762059
H    1.2724438   -5.6606487   -2.6380923
C    2.3081852   -3.9107716   -1.9423300
H    3.2986469   -4.3668201   -2.0590392
C    2.1926923   -2.6333610   -1.4596363
H    3.0615649   -2.0544779   -1.1942623
$end

$rem
BASIS = 6-311++G(2df,2p)
GUI = 2
JOB_TYPE = Frequency
METHOD = wB97M-V
SCF_ALGORITHM = DIIS_GDM
MAX_SCF_CYCLES = 400
GEOM_OPT_MAX_CYCLES = 150
SCF_CONVERGENCE = 6
THRESH = 11
SYMMETRY_IGNORE = 1
UNRESTRICTED = 1
solvent_method = SMD
$end

--------------------------------------------------------------
 ----------------------------------------------------------------
             Standard Nuclear Orientation (Angstroms)
    I     Atom           X                Y                Z
 ----------------------------------------------------------------
    1      C       0.8157265000    -0.7087273000    -0.6711115000
    2      H       1.7526203000    -0.2528968000    -0.4466860000
    3      H       0.3841453000     0.4275265000    -1.5879297000
    4      O      -0.1386816000    -0.6773236000     0.3005009000
    5      O       0.6927367000     1.6815182000    -2.1568811000
    6      H       1.6385810000     1.5774485000    -2.1725790000
    7      H      -0.1930153000     0.2545554000     0.6364023000
    8      C       0.9208820000    -2.0638626000    -1.2791431000
    9      C      -0.2255977000    -2.7980496000    -1.6203921000
   10      H      -1.1776113000    -2.3526513000    -1.5057865000
   11      C      -0.0866896000    -4.0882388000    -2.1198436000
   12      H      -0.9614743000    -4.6506387000    -2.3859145000
   13      C       1.1835515000    -4.6652357000    -2.2762059000
   14      H       1.2724438000    -5.6606487000    -2.6380923000
   15      C       2.3081852000    -3.9107716000    -1.9423300000
   16      H       3.2986469000    -4.3668201000    -2.0590392000
   17      C       2.1926923000    -2.6333610000    -1.4596363000
   18      H       3.0615649000    -2.0544779000    -1.1942623000
 ----------------------------------------------------------------
 Nuclear Repulsion Energy =         411.33254245 hartrees
 There are       34 alpha and       33 beta electrons
 Requested basis set is 6-311++G(2df,2p)
 There are 126 shells and 396 basis functions

 Total QAlloc Memory Limit 288000 MB
 Mega-Array Size       188 MB
 MEM_STATIC part       192 MB
 
 Citation of the SMD model:
 Marenich, A.V.; Cramer, C.J.; Truhlar, D.G.
 J. Phys. Chem. B 2009, 113, 6378-6396.
 iSolventCode=           1
 Solvent: water                                                           
 
 vradii
            1           2           3           4           5           6
    1   1.8500000   1.2000000   1.2000000   1.5200000   1.5200000   1.2000000
            7           8           9          10          11          12
    1   1.2000000   1.8500000   1.8500000   1.2000000   1.8500000   1.2000000
           13          14          15          16          17          18
    1   1.8500000   1.2000000   1.8500000   1.2000000   1.8500000   1.2000000
 Changing PCM_VDW_RADII to SMD_RADIUS
 Discretize the solute cavity surface with Lebedev spheres
	Using 110 Lebedev grid points for each H atom
	Using 194 Lebedev grid points for other atoms
	Atomic van der Waals radii will be scaled by 1.20
 Remove points where switching function is < 1.0e-08
 Keep 1383 surface tesserae and discard 1353 interior tesserae
 Molecular Surface Area = 165.390 Angst**2
 A cutoff of  1.0D-11 yielded   6819 shell pairs
 There are     67218 function pairs (     82886 Cartesian)
 Smallest overlap matrix eigenvalue = 9.00E-07

 Q-Chem warning in module stvman/mkSTV.C, line 323:

 Overlap eigenvalue is smaller than square root of threshold
 Use THRESH >= 12 to get rid of this warning

 Linear dependence detected in AO basis
 Tighter screening thresholds may be required for diffuse basis sets
 Use S2THRESH > 14 and THRESH = 14 in case of SCF convergence issues
 Number of orthogonalized atomic orbitals = 395
 Maximum deviation from orthogonality = 6.856E-11
 Guess from superposition of atomic densities
 Warning:  Energy on first SCF cycle will be non-variational
 SAD guess density has 67.000000 electrons

 -----------------------------------------------------------------------
  General SCF calculation program by
  Eric Jon Sundstrom, Paul Horn, Yuezhi Mao, Dmitri Zuev, Alec White,
  David Stuck, Shaama M.S., Shane Yost, Joonho Lee, David Small,
  Daniel Levine, Susi Lehtola, Hugh Burton, Evgeny Epifanovsky,
  Bang C. Huynh
 -----------------------------------------------------------------------
 Exchange:     0.1500 Hartree-Fock + 1.0000 wB97M-V + LR-HF
 Correlation:  1.0000 wB97M-V
 Using SG-2 standard quadrature grid
 Nonlocal Correlation:  VV10 with C = 0.0100 and b = 6.00 and scale = 1.00000
 Grid used for NLC:  SG-1 standard quadrature
 using 16 threads for integral computing
 -------------------------------------------------------
 OpenMP Integral computing Module                
 Release: version 1.0, May 2013, Q-Chem Inc. Pittsburgh 
 -------------------------------------------------------
 
 Citation of the SMD model:
 Marenich, A.V.; Cramer, C.J.; Truhlar, D.G.
 J. Phys. Chem. B 2009, 113, 6378-6396.
 iSolventCode=           1
 Solvent: water                                                           
 
 vradii
            1           2           3           4           5           6
    1   1.8500000   1.2000000   1.2000000   1.5200000   1.5200000   1.2000000
            7           8           9          10          11          12
    1   1.2000000   1.8500000   1.8500000   1.2000000   1.8500000   1.2000000
           13          14          15          16          17          18
    1   1.8500000   1.2000000   1.8500000   1.2000000   1.8500000   1.2000000
 -------------------------------------------------------
 OpenMP BLAS3 based DFT computing Module                
 Release: version 1.0, May 2013, Q-Chem Inc. Pittsburgh 
 -------------------------------------------------------
 A unrestricted SCF calculation will be
 performed using DIIS, GDM
 SCF converges when RMS gradient is below 1.0e-06
 ---------------------------------------
  Cycle       Energy         DIIS error
 ---------------------------------------
    1    -424.8330839028      1.26e-02  
    2    -422.3545064767      1.40e-03  Done DIIS. Switching to GDM
 ---------------------------------------
  Cycle       Energy        RMS Gradient
 ---------------------------------------
    1    -422.3545064767      1.27e-01   Descent step
    2    -422.4774269716      1.68e-02   Normal BFGS step
    3    -422.4922989472      2.11e-02   Normal BFGS step
    4    -422.4946169789      6.88e-03   Normal BFGS step
    5    -422.4951100679      4.72e-03   Normal BFGS step
    6    -422.4952425663      3.20e-03   Normal BFGS step
    7    -422.4952840347      1.64e-03   Normal BFGS step
    8    -422.4952927543      6.22e-04   Normal BFGS step
    9    -422.4952948016      3.14e-04   Normal BFGS step
   10    -422.4952953577      1.33e-04   Normal BFGS step
   11    -422.4952954332      4.16e-05   Normal BFGS step
   12    -422.4952954521      2.33e-05   Normal BFGS step
   13    -422.4952954565      7.30e-06   Normal BFGS step
   14    -422.4952954573      5.12e-06   Normal BFGS step
   15    -422.4952954574      2.26e-06   Normal BFGS step
   16    -422.4952954574      1.44e-06   Normal BFGS step
  GDM::WARNING energy changes are now smaller than effective accuracy.
  GDM::        calculation will continue, but THRESH should be increased
  GDM::        or SCF_CONVERGENCE decreased. 
  GDM::        effective_thresh = 2.95e-09
   17    -422.4952954567      8.66e-07  Convergence criterion met
 ---------------------------------------
 SCF time:   CPU 1751.19s  wall 119.00s 
<S^2> =          0.762831912
(3)  G-ENP(liq) elect-nuc-pol free energy of system     -422.495295457 a.u.
(4)  G-CDS(liq) cavity-dispersion-solvent structure 
     free energy                                                4.1372 kcal/mol
(6)  G-S(liq) free energy of system                     -422.488702386 a.u.
 SCF   energy in the final basis set =     -422.4887023860
 Total energy in the final basis set =     -422.4887023860
 
 --------------------------------------------------------------
 
                    Orbital Energies (a.u.)
 --------------------------------------------------------------
 
 Alpha MOs
 -- Occupied --
-19.3845 -19.3200 -10.4272 -10.3643 -10.3514 -10.3505 -10.3501 -10.3483
-10.3477  -1.2064  -1.0813  -0.9931  -0.8994  -0.8777  -0.8044  -0.7303
 -0.7057  -0.6608  -0.6358  -0.5904  -0.5749  -0.5516  -0.5421  -0.5367
 -0.5278  -0.5001  -0.4889  -0.4637  -0.4461  -0.4383  -0.4061  -0.3718
 -0.3550  -0.3046
 -- Virtual --
  0.0219   0.0323   0.0362   0.0483   0.0508   0.0535   0.0560   0.0612
  0.0825   0.0845   0.0922   0.0950   0.1036   0.1255   0.1328   0.1367
  0.1457   0.1492   0.1560   0.1580   0.1606   0.1672   0.1710   0.1745
  0.1825   0.1838   0.1902   0.1984   0.2032   0.2071   0.2161   0.2184
  0.2265   0.2375   0.2465   0.2498   0.2550   0.2676   0.2690   0.2736
  0.2826   0.2857   0.2946   0.3076   0.3104   0.3274   0.3292   0.3368
  0.3467   0.3493   0.3546   0.3594   0.3693   0.3742   0.3861   0.4033
  0.4116   0.4271   0.4352   0.4408   0.4588   0.4727   0.5271   0.5389
  0.5627   0.5813   0.5902   0.6002   0.6024   0.6040   0.6116   0.6135
  0.6176   0.6244   0.6275   0.6455   0.6552   0.6661   0.6737   0.6876
  0.7018   0.7087   0.7114   0.7240   0.7273   0.7359   0.7414   0.7478
  0.7566   0.7673   0.7709   0.7804   0.7871   0.8141   0.8251   0.8327
  0.8354   0.8419   0.8516   0.8663   0.8800   0.8905   0.8994   0.9094
  0.9265   0.9378   0.9532   0.9635   0.9894   1.0175   1.0453   1.0560
  1.0601   1.0805   1.0895   1.1000   1.1073   1.1282   1.1423   1.1638
  1.1762   1.1790   1.1824   1.1886   1.2015   1.2185   1.2306   1.2479
  1.2572   1.2694   1.2882   1.3093   1.3188   1.3531   1.3732   1.3802
  1.3862   1.4091   1.4151   1.4258   1.4370   1.4474   1.4545   1.4571
  1.4658   1.4828   1.5012   1.5087   1.5355   1.5538   1.5665   1.5803
  1.5917   1.6005   1.6156   1.6452   1.6738   1.6875   1.7183   1.7746
  1.7874   1.7928   1.8134   1.8193   1.8412   1.8838   1.9118   1.9287
  1.9885   2.0224   2.0746   2.0790   2.0880   2.1263   2.1493   2.2371
  2.2555   2.3136   2.3368   2.3747   2.4224   2.5790   2.5881   2.6212
  2.6507   2.6598   2.6991   2.7194   2.7410   2.7855   2.7987   2.8063
  2.8101   2.8164   2.8268   2.8407   2.8551   2.8720   2.8945   2.9016
  2.9032   2.9129   2.9208   2.9368   2.9428   2.9609   2.9647   2.9794
  3.0037   3.0218   3.0267   3.0380   3.0849   3.1327   3.1638   3.1857
  3.1958   3.2064   3.2136   3.2311   3.2348   3.2516   3.2623   3.2765
  3.2902   3.3018   3.3144   3.3308   3.3682   3.3788   3.3925   3.4064
  3.4103   3.4356   3.4516   3.4615   3.4802   3.4977   3.4998   3.5202
  3.5378   3.5640   3.5672   3.5839   3.6048   3.6130   3.6299   3.6533
  3.6623   3.7237   3.7324   3.7456   3.7689   3.7927   3.8100   3.8253
  3.8377   3.8477   3.8704   3.8845   3.8950   3.9065   3.9147   3.9287
  3.9353   3.9631   3.9738   3.9926   4.0590   4.0600   4.0808   4.0939
  4.1221   4.1469   4.1513   4.1696   4.2003   4.2039   4.2250   4.2348
  4.2959   4.3083   4.3255   4.3322   4.3834   4.4204   4.4293   4.4381
  4.4655   4.4750   4.5111   4.5227   4.5302   4.5511   4.5679   4.5749
  4.5940   4.6156   4.6472   4.7043   4.7252   4.7905   4.8172   4.8295
  4.8898   5.0047   5.0498   5.1248   5.1370   5.1490   5.1759   5.1833
  5.1918   5.2128   5.2374   5.2439   5.2782   5.2900   5.3206   5.3356
  5.3818   5.4167   5.4378   5.4679   5.5149   5.5734   5.6289   5.6822
  5.7106   5.7872   5.8017   5.8341   5.8846   5.9274   5.9615   5.9806
  6.1160   6.2978   6.6262   6.7554   6.9575   7.0422   7.0874   7.1346
  7.1527   7.2481   7.3043   7.3199   7.3993   7.6031   7.6382   7.7935
 24.2120  24.7835  24.8132  24.8200  25.0015  25.0820  25.5052  50.5243
 50.5644
 
 Beta MOs
 -- Occupied --
-19.3797 -19.3116 -10.4198 -10.3651 -10.3503 -10.3496 -10.3492 -10.3487
-10.3481  -1.1961  -1.0627  -0.9918  -0.8951  -0.8768  -0.7932  -0.7289
 -0.7021  -0.6522  -0.6336  -0.5733  -0.5689  -0.5434  -0.5389  -0.5280
 -0.5197  -0.4885  -0.4819  -0.4491  -0.4394  -0.4138  -0.3957  -0.3523
 -0.3516
 -- Virtual --
 -0.0535   0.0227   0.0331   0.0365   0.0509   0.0519   0.0542   0.0578
  0.0670   0.0830   0.0846   0.0923   0.0956   0.1041   0.1259   0.1341
  0.1376   0.1460   0.1507   0.1572   0.1592   0.1613   0.1676   0.1717
  0.1759   0.1828   0.1842   0.1908   0.1994   0.2062   0.2082   0.2165
  0.2216   0.2368   0.2386   0.2495   0.2510   0.2558   0.2698   0.2710
  0.2747   0.2847   0.2864   0.2954   0.3104   0.3143   0.3298   0.3322
  0.3446   0.3479   0.3523   0.3565   0.3599   0.3719   0.3760   0.3918
  0.4058   0.4130   0.4279   0.4372   0.4443   0.4627   0.4768   0.5308
  0.5436   0.5652   0.5835   0.5936   0.6011   0.6040   0.6063   0.6132
  0.6151   0.6189   0.6270   0.6301   0.6490   0.6582   0.6697   0.6761
  0.6886   0.7047   0.7106   0.7141   0.7254   0.7291   0.7368   0.7431
  0.7502   0.7587   0.7687   0.7752   0.7823   0.7896   0.8159   0.8263
  0.8333   0.8360   0.8428   0.8525   0.8688   0.8819   0.8914   0.9017
  0.9123   0.9283   0.9396   0.9568   0.9652   0.9929   1.0204   1.0467
  1.0582   1.0615   1.0836   1.0917   1.1025   1.1105   1.1297   1.1459
  1.1660   1.1801   1.1844   1.1864   1.1966   1.2055   1.2239   1.2328
  1.2510   1.2593   1.2737   1.2938   1.3132   1.3209   1.3557   1.3765
  1.3842   1.3876   1.4136   1.4163   1.4279   1.4408   1.4491   1.4563
  1.4598   1.4712   1.4852   1.5052   1.5120   1.5405   1.5583   1.5688
  1.5813   1.5959   1.6052   1.6225   1.6558   1.6783   1.6925   1.7236
  1.7754   1.7929   1.7961   1.8155   1.8206   1.8489   1.8884   1.9156
  1.9329   1.9945   2.0319   2.0764   2.0809   2.0900   2.1329   2.1587
  2.2442   2.2634   2.3181   2.3462   2.3859   2.4274   2.5820   2.5895
  2.6223   2.6582   2.6724   2.7025   2.7224   2.7505   2.7908   2.8043
  2.8105   2.8154   2.8198   2.8283   2.8446   2.8571   2.8748   2.8988
  2.9044   2.9112   2.9164   2.9238   2.9407   2.9476   2.9630   2.9704
  2.9821   3.0077   3.0284   3.0316   3.0401   3.0939   3.1444   3.1668
  3.1995   3.2066   3.2113   3.2181   3.2356   3.2408   3.2579   3.2678
  3.2934   3.2961   3.3096   3.3239   3.3400   3.3783   3.3866   3.4003
  3.4104   3.4230   3.4441   3.4649   3.4734   3.4845   3.5024   3.5108
  3.5254   3.5417   3.5687   3.5798   3.5991   3.6129   3.6194   3.6395
  3.6663   3.6785   3.7350   3.7437   3.7540   3.7762   3.7989   3.8136
  3.8294   3.8450   3.8565   3.8761   3.8888   3.9025   3.9119   3.9194
  3.9342   3.9400   3.9676   3.9811   3.9996   4.0637   4.0677   4.0896
  4.1046   4.1289   4.1516   4.1539   4.1723   4.2035   4.2109   4.2389
  4.2408   4.3025   4.3159   4.3328   4.3436   4.3885   4.4306   4.4366
  4.4464   4.4681   4.4860   4.5157   4.5331   4.5339   4.5577   4.5724
  4.5787   4.5968   4.6288   4.6584   4.7080   4.7299   4.7936   4.8209
  4.8340   4.8933   5.0159   5.0525   5.1281   5.1533   5.1640   5.1787
  5.1870   5.2066   5.2186   5.2568   5.2601   5.2887   5.3095   5.3349
  5.3522   5.3969   5.4338   5.4565   5.4739   5.5224   5.5859   5.6343
  5.6918   5.7166   5.7989   5.8209   5.8466   5.8901   5.9319   5.9663
  5.9998   6.1227   6.3014   6.6279   6.7657   6.9938   7.0541   7.1098
  7.1603   7.1716   7.2737   7.3211   7.3386   7.4167   7.6263   7.6544
  7.8013  24.2123  24.7836  24.8136  24.8265  25.0019  25.0824  25.5056
 50.5305  50.5684
 --------------------------------------------------------------
 
          Ground-State Mulliken Net Atomic Charges

     Atom                 Charge (a.u.)    Spin (a.u.)
  --------------------------------------------------------
      1 C                    -0.703630       0.460888
      2 H                     0.302771       0.004421
      3 H                     0.324101       0.035616
      4 O                    -0.236211       0.138788
      5 O                    -0.771590       0.266495
      6 H                     0.317536      -0.002383
      7 H                     0.355589      -0.004602
      8 C                     0.757396      -0.008677
      9 C                    -0.075528       0.032895
     10 H                     0.291443      -0.002780
     11 C                    -0.300691      -0.035561
     12 H                     0.287298       0.000775
     13 C                    -0.430691       0.072148
     14 H                     0.283234      -0.001260
     15 C                    -0.363943      -0.035278
     16 H                     0.284454       0.001171
     17 C                    -0.586019       0.079192
     18 H                     0.264479      -0.001849
  --------------------------------------------------------
  Sum of atomic charges =     0.000000
  Sum of spin   charges =     1.000000

 -----------------------------------------------------------------
                    Cartesian Multipole Moments
 -----------------------------------------------------------------
    Charge (ESU x 10^10)
                 0.0000
    Dipole Moment (Debye)
         X       2.5238      Y      -3.7783      Z       2.5582
       Tot       5.2144
    Quadrupole Moments (Debye-Ang)
        XX     -42.9678     XY      -2.5817     YY     -51.7408
        XZ      -2.3750     YZ      15.6618     ZZ     -64.4641
    Octopole Moments (Debye-Ang^2)
       XXX    -110.2836    XXY      98.4413    XYY     -34.3116
       YYY     262.0032    XXZ      62.5781    XYZ       4.1630
       YYZ      54.0329    XZZ     -48.1333    YZZ      89.9849
       ZZZ     282.1959
    Hexadecapole Moments (Debye-Ang^3)
      XXXX    -512.4770   XXXY     308.0998   XXYY    -482.1232
      XYYY     279.3215   YYYY   -2466.1623   XXXZ     193.1840
      XXYZ    -169.8121   XYYZ      39.9101   YYYZ    -324.6522
      XXZZ    -243.5562   XYZZ     120.8063   YYZZ    -594.7123
      XZZZ     256.7767   YZZZ    -579.6987   ZZZZ   -1133.3394
 -----------------------------------------------------------------
 Calculating analytic gradient of the SCF energy
 Gradient of CDS energy
            1           2           3           4           5           6
    1  -0.0030349   0.0000791  -0.0001072   0.0032121  -0.0002710   0.0003967
    2   0.0001444  -0.0000642   0.0003047  -0.0002566   0.0000045   0.0002500
    3   0.0038975  -0.0002004  -0.0002002  -0.0034860  -0.0000005  -0.0001806
            7           8           9          10          11          12
    1  -0.0002503  -0.0000975  -0.0002944  -0.0001077  -0.0004548  -0.0001588
    2   0.0002269   0.0000060   0.0002372   0.0000728  -0.0002505  -0.0001021
    3   0.0003366   0.0001172   0.0000256   0.0000552  -0.0001239  -0.0000483
           13          14          15          16          17          18
    1   0.0000812   0.0000151   0.0004404   0.0002047   0.0002404   0.0001069
    2  -0.0005455  -0.0001687  -0.0001407  -0.0001017   0.0002388   0.0001445
    3  -0.0002007  -0.0000613  -0.0000380  -0.0000268   0.0000707   0.0000641
 Gradient of SCF Energy
            1           2           3           4           5           6
    1  -0.0038374   0.0014672  -0.0229443   0.0050928   0.0202100  -0.0048786
    2   0.0108696  -0.0050188  -0.0375966  -0.0487468   0.0556824  -0.0019235
    3   0.0060473  -0.0020126   0.0207159  -0.0135133  -0.0286145   0.0030668
            7           8           9          10          11          12
    1   0.0003302  -0.0030803  -0.0169536   0.0129673  -0.0057142  -0.0003143
    2   0.0372658   0.0011135   0.0091064  -0.0050165   0.0045645  -0.0004908
    3   0.0093202   0.0073777   0.0057960  -0.0021283   0.0009663  -0.0003283
           13          14          15          16          17          18
    1   0.0096988  -0.0017253  -0.0160953   0.0151538   0.0052008   0.0054226
    2  -0.0200703   0.0041974   0.0227026  -0.0085523  -0.0240249   0.0059384
    3  -0.0073108   0.0022363   0.0067328  -0.0018879  -0.0089814   0.0025179
 Max gradient component =       5.568E-02
 RMS gradient           =       1.620E-02
 Computing fast CPCM-SWIG gradient
 Updating gradient with PCM contributions...
 -- total gradient after adding PCM contribution --
---------------------------------------------------
  Atom         X              Y              Z     
---------------------------------------------------
   1       0.012899       0.022132       0.013570
   2      -0.011647      -0.011017      -0.005419
   3      -0.025013      -0.036662       0.017507
   4       0.005577      -0.031481      -0.008640
   5       0.031217       0.047902      -0.021387
   6      -0.013909       0.002722      -0.000315
   7      -0.000235       0.021932       0.002822
   8       0.000499      -0.007144       0.003455
   9      -0.025605       0.006479       0.001887
  10       0.016662      -0.006027      -0.001940
  11      -0.010543      -0.000215      -0.001210
  12       0.004747       0.003079       0.001273
  13       0.011347      -0.025498      -0.009175
  14      -0.002399       0.011605       0.004895
  15      -0.011130       0.022795       0.007396
  16       0.007730      -0.005178      -0.001102
  17       0.013408      -0.014607      -0.003131
  18      -0.003603      -0.000817      -0.000485
---------------------------------------------------
 Number of fixed atoms: 0
 Gradient time:  CPU 258.81 s  wall 21.60 s
 ######################################################
 ######################################################
 # Starting finite difference calculation for IDERIV  #
 Finite diff step size:  1.88973e-03 a.u.
 ----------------------------------------------------------------
             Standard Nuclear Orientation (Angstroms)
    I     Atom           X                Y                Z
 ----------------------------------------------------------------
    1      C       0.8167265000    -0.7087273000    -0.6711115000
    2      H       1.7526203000    -0.2528968000    -0.4466860000
    3      H       0.3841453000     0.4275265000    -1.5879297000
    4      O      -0.1386816000    -0.6773236000     0.3005009000
    5      O       0.6927367000     1.6815182000    -2.1568811000
    6      H       1.6385810000     1.5774485000    -2.1725790000
    7      H      -0.1930153000     0.2545554000     0.6364023000
    8      C       0.9208820000    -2.0638626000    -1.2791431000
    9      C      -0.2255977000    -2.7980496000    -1.6203921000
   10      H      -1.1776113000    -2.3526513000    -1.5057865000
   11      C      -0.0866896000    -4.0882388000    -2.1198436000
   12      H      -0.9614743000    -4.6506387000    -2.3859145000
   13      C       1.1835515000    -4.6652357000    -2.2762059000
   14      H       1.2724438000    -5.6606487000    -2.6380923000
   15      C       2.3081852000    -3.9107716000    -1.9423300000
   16      H       3.2986469000    -4.3668201000    -2.0590392000
   17      C       2.1926923000    -2.6333610000    -1.4596363000
   18      H       3.0615649000    -2.0544779000    -1.1942623000
 ----------------------------------------------------------------
 Nuclear Repulsion Energy =         411.32599475 hartrees
 There are       34 alpha and       33 beta electrons
 Discretize the solute cavity surface with Lebedev spheres
	Using 110 Lebedev grid points for each H atom
	Using 194 Lebedev grid points for other atoms
	Atomic van der Waals radii will be scaled by 1.20
 Remove points where switching function is < 1.0e-08
 Keep 1383 surface tesserae and discard 1353 interior tesserae
 Molecular Surface Area = 165.390 Angst**2
 Requested basis set is 6-311++G(2df,2p)
 There are 126 shells and 396 basis functions
 A cutoff of  1.0D-11 yielded   6819 shell pairs
 There are     67218 function pairs (     82886 Cartesian)
 Smallest overlap matrix eigenvalue = 9.00E-07

 Q-Chem warning in module stvman/mkSTV.C, line 323:

 Overlap eigenvalue is smaller than square root of threshold
 Use THRESH >= 12 to get rid of this warning

 Linear dependence detected in AO basis
 Tighter screening thresholds may be required for diffuse basis sets
 Use S2THRESH > 14 and THRESH = 14 in case of SCF convergence issues
 Number of orthogonalized atomic orbitals = 395
 Maximum deviation from orthogonality = 6.864E-11
 Guess MOs from SCF MO coefficient file

 -----------------------------------------------------------------------
  General SCF calculation program by
  Eric Jon Sundstrom, Paul Horn, Yuezhi Mao, Dmitri Zuev, Alec White,
  David Stuck, Shaama M.S., Shane Yost, Joonho Lee, David Small,
  Daniel Levine, Susi Lehtola, Hugh Burton, Evgeny Epifanovsky,
  Bang C. Huynh
 -----------------------------------------------------------------------
 Exchange:     0.1500 Hartree-Fock + 1.0000 wB97M-V + LR-HF
 Correlation:  1.0000 wB97M-V
 Using SG-2 standard quadrature grid
 Nonlocal Correlation:  VV10 with C = 0.0100 and b = 6.00 and scale = 1.00000
 Grid used for NLC:  SG-1 standard quadrature
 
 Citation of the SMD model:
 Marenich, A.V.; Cramer, C.J.; Truhlar, D.G.
 J. Phys. Chem. B 2009, 113, 6378-6396.
 iSolventCode=           1
 Solvent: water                                                           
 
 vradii
            1           2           3           4           5           6
    1   1.8500000   1.2000000   1.2000000   1.5200000   1.5200000   1.2000000
            7           8           9          10          11          12
    1   1.2000000   1.8500000   1.8500000   1.2000000   1.8500000   1.2000000
           13          14          15          16          17          18
    1   1.8500000   1.2000000   1.8500000   1.2000000   1.8500000   1.2000000
 -------------------------------------------------------
 OpenMP BLAS3 based DFT computing Module                
 Release: version 1.0, May 2013, Q-Chem Inc. Pittsburgh 
 -------------------------------------------------------
 A unrestricted SCF calculation will be
 performed using Roothaan-Hall, DIIS, GDM
 SCF converges when RMS gradient is below 1.0e-06
 ---------------------------------------
  Cycle       Energy         DIIS error
 ---------------------------------------
    1    -422.4553823100      2.16e-04  Roothaan Step
 ---------------------------------------
  Cycle       Energy         DIIS error
 ---------------------------------------
    1    -422.4865415458      2.78e-04  
    2    -422.4896291649      3.21e-04  Done DIIS. Switching to GDM
 ---------------------------------------
  Cycle       Energy        RMS Gradient
 ---------------------------------------
    1    -422.4896291649      2.39e-02   Normal BFGS step
    2    -422.4867748885      4.62e-02  Line search: overstep
    3    -422.4949880049      7.46e-03   Normal BFGS step
    4    -422.4951870186      3.06e-03   Normal BFGS step
    5    -422.4952462724      2.22e-03   Normal BFGS step
    6    -422.4952572982      7.91e-04   Normal BFGS step
    7    -422.4952627781      4.26e-04   Normal BFGS step
    8    -422.4952640434      9.78e-05   Normal BFGS step
    9    -422.4952642359      4.90e-05   Normal BFGS step
   10    -422.4952642802      2.20e-05   Normal BFGS step
   11    -422.4952642864      7.73e-06   Normal BFGS step
   12    -422.4952642877      4.31e-06   Normal BFGS step
   13    -422.4952642879      1.88e-06   Normal BFGS step
   14    -422.4952642879      1.28e-06   Normal BFGS step
   15    -422.4952642875      8.11e-07  Convergence criterion met
 ---------------------------------------
 SCF time:   CPU 1708.18s  wall 115.00s 
<S^2> =          0.762850471
(3)  G-ENP(liq) elect-nuc-pol free energy of system     -422.495264287 a.u.
(4)  G-CDS(liq) cavity-dispersion-solvent structure 
     free energy                                                4.1336 kcal/mol
(6)  G-S(liq) free energy of system                     -422.488676969 a.u.
 SCF   energy in the final basis set =     -422.4886769687
 Total energy in the final basis set =     -422.4886769687
 
 --------------------------------------------------------------
 
                    Orbital Energies (a.u.)
 --------------------------------------------------------------
 
 Alpha MOs
 -- Occupied --
-19.3844 -19.3200 -10.4272 -10.3643 -10.3514 -10.3505 -10.3501 -10.3483
-10.3477  -1.2061  -1.0813  -0.9932  -0.8994  -0.8777  -0.8044  -0.7303
 -0.7057  -0.6607  -0.6357  -0.5904  -0.5748  -0.5516  -0.5421  -0.5367
 -0.5279  -0.5001  -0.4889  -0.4637  -0.4462  -0.4383  -0.4062  -0.3718
 -0.3550  -0.3046
 -- Virtual --
  0.0219   0.0323   0.0362   0.0483   0.0508   0.0535   0.0560   0.0612
  0.0825   0.0845   0.0922   0.0950   0.1036   0.1255   0.1328   0.1368
  0.1457   0.1492   0.1560   0.1580   0.1606   0.1672   0.1710   0.1745
  0.1825   0.1838   0.1902   0.1984   0.2032   0.2071   0.2161   0.2184
  0.2265   0.2374   0.2465   0.2498   0.2550   0.2676   0.2690   0.2736
  0.2827   0.2858   0.2946   0.3076   0.3103   0.3274   0.3291   0.3367
  0.3467   0.3493   0.3546   0.3594   0.3693   0.3742   0.3860   0.4033
  0.4116   0.4271   0.4352   0.4408   0.4588   0.4727   0.5271   0.5390
  0.5627   0.5813   0.5902   0.6002   0.6024   0.6039   0.6116   0.6135
  0.6176   0.6244   0.6275   0.6455   0.6551   0.6660   0.6737   0.6876
  0.7018   0.7087   0.7113   0.7240   0.7273   0.7358   0.7413   0.7479
  0.7566   0.7673   0.7710   0.7804   0.7872   0.8142   0.8251   0.8327
  0.8354   0.8419   0.8516   0.8662   0.8800   0.8905   0.8994   0.9094
  0.9266   0.9378   0.9532   0.9635   0.9894   1.0175   1.0453   1.0560
  1.0601   1.0805   1.0895   1.1000   1.1073   1.1282   1.1422   1.1639
  1.1762   1.1790   1.1824   1.1886   1.2015   1.2185   1.2306   1.2479
  1.2572   1.2693   1.2882   1.3093   1.3187   1.3532   1.3732   1.3802
  1.3862   1.4091   1.4150   1.4257   1.4370   1.4474   1.4545   1.4572
  1.4659   1.4828   1.5012   1.5087   1.5355   1.5538   1.5666   1.5803
  1.5918   1.6005   1.6158   1.6453   1.6739   1.6876   1.7183   1.7746
  1.7875   1.7928   1.8134   1.8194   1.8412   1.8838   1.9118   1.9287
  1.9883   2.0225   2.0745   2.0790   2.0880   2.1262   2.1491   2.2369
  2.2555   2.3134   2.3367   2.3747   2.4222   2.5790   2.5881   2.6211
  2.6504   2.6597   2.6991   2.7195   2.7409   2.7855   2.7988   2.8063
  2.8101   2.8163   2.8268   2.8406   2.8551   2.8720   2.8945   2.9015
  2.9031   2.9129   2.9208   2.9368   2.9428   2.9609   2.9647   2.9794
  3.0037   3.0217   3.0266   3.0380   3.0847   3.1327   3.1639   3.1857
  3.1958   3.2065   3.2136   3.2310   3.2348   3.2516   3.2623   3.2764
  3.2901   3.3018   3.3144   3.3309   3.3680   3.3786   3.3925   3.4063
  3.4101   3.4356   3.4514   3.4615   3.4802   3.4977   3.4998   3.5202
  3.5377   3.5638   3.5672   3.5839   3.6048   3.6129   3.6300   3.6533
  3.6623   3.7235   3.7324   3.7457   3.7689   3.7927   3.8100   3.8253
  3.8378   3.8477   3.8704   3.8845   3.8952   3.9065   3.9147   3.9287
  3.9352   3.9632   3.9738   3.9927   4.0590   4.0600   4.0807   4.0944
  4.1221   4.1469   4.1513   4.1698   4.2001   4.2038   4.2250   4.2348
  4.2958   4.3083   4.3258   4.3323   4.3835   4.4207   4.4293   4.4382
  4.4655   4.4753   4.5112   4.5227   4.5302   4.5510   4.5681   4.5749
  4.5940   4.6158   4.6477   4.7044   4.7252   4.7906   4.8172   4.8295
  4.8900   5.0051   5.0498   5.1249   5.1370   5.1490   5.1760   5.1833
  5.1918   5.2128   5.2374   5.2439   5.2783   5.2900   5.3206   5.3355
  5.3818   5.4168   5.4379   5.4679   5.5147   5.5735   5.6291   5.6819
  5.7105   5.7879   5.8016   5.8344   5.8844   5.9274   5.9616   5.9795
  6.1147   6.2978   6.6262   6.7538   6.9574   7.0422   7.0873   7.1346
  7.1525   7.2480   7.3042   7.3196   7.3993   7.6030   7.6380   7.7935
 24.2121  24.7836  24.8132  24.8200  25.0016  25.0820  25.5052  50.5243
 50.5641
 
 Beta MOs
 -- Occupied --
-19.3797 -19.3117 -10.4197 -10.3651 -10.3503 -10.3496 -10.3492 -10.3487
-10.3481  -1.1958  -1.0627  -0.9918  -0.8951  -0.8768  -0.7932  -0.7289
 -0.7021  -0.6521  -0.6336  -0.5732  -0.5689  -0.5435  -0.5389  -0.5280
 -0.5196  -0.4885  -0.4819  -0.4492  -0.4394  -0.4138  -0.3958  -0.3523
 -0.3516
 -- Virtual --
 -0.0536   0.0227   0.0331   0.0365   0.0509   0.0519   0.0542   0.0578
  0.0670   0.0830   0.0846   0.0923   0.0956   0.1041   0.1259   0.1341
  0.1376   0.1460   0.1507   0.1572   0.1592   0.1613   0.1676   0.1717
  0.1759   0.1828   0.1842   0.1908   0.1994   0.2062   0.2082   0.2165
  0.2216   0.2368   0.2385   0.2495   0.2510   0.2558   0.2697   0.2710
  0.2747   0.2847   0.2865   0.2954   0.3104   0.3142   0.3298   0.3321
  0.3446   0.3478   0.3523   0.3565   0.3599   0.3719   0.3760   0.3917
  0.4058   0.4130   0.4279   0.4372   0.4443   0.4628   0.4768   0.5308
  0.5437   0.5652   0.5835   0.5936   0.6011   0.6040   0.6063   0.6132
  0.6151   0.6189   0.6270   0.6301   0.6490   0.6582   0.6697   0.6761
  0.6885   0.7046   0.7106   0.7141   0.7254   0.7291   0.7368   0.7430
  0.7502   0.7587   0.7687   0.7753   0.7824   0.7896   0.8160   0.8263
  0.8333   0.8360   0.8428   0.8525   0.8688   0.8819   0.8914   0.9017
  0.9123   0.9283   0.9396   0.9568   0.9652   0.9929   1.0204   1.0467
  1.0582   1.0615   1.0836   1.0917   1.1025   1.1105   1.1297   1.1459
  1.1660   1.1801   1.1844   1.1863   1.1966   1.2055   1.2239   1.2329
  1.2511   1.2593   1.2737   1.2938   1.3132   1.3209   1.3558   1.3765
  1.3841   1.3876   1.4136   1.4163   1.4279   1.4408   1.4491   1.4563
  1.4598   1.4712   1.4852   1.5052   1.5120   1.5406   1.5583   1.5689
  1.5813   1.5960   1.6053   1.6227   1.6558   1.6784   1.6926   1.7237
  1.7754   1.7930   1.7961   1.8155   1.8206   1.8488   1.8883   1.9156
  1.9329   1.9944   2.0320   2.0763   2.0809   2.0900   2.1327   2.1584
  2.2441   2.2633   2.3180   2.3461   2.3858   2.4272   2.5820   2.5895
  2.6223   2.6581   2.6720   2.7025   2.7225   2.7505   2.7907   2.8043
  2.8104   2.8153   2.8197   2.8283   2.8445   2.8571   2.8748   2.8988
  2.9044   2.9111   2.9164   2.9238   2.9408   2.9476   2.9630   2.9705
  2.9820   3.0077   3.0283   3.0315   3.0401   3.0937   3.1444   3.1668
  3.1995   3.2066   3.2114   3.2180   3.2356   3.2408   3.2579   3.2678
  3.2934   3.2960   3.3096   3.3239   3.3400   3.3782   3.3863   3.4003
  3.4103   3.4229   3.4441   3.4649   3.4733   3.4845   3.5024   3.5108
  3.5254   3.5417   3.5687   3.5796   3.5990   3.6129   3.6193   3.6396
  3.6664   3.6785   3.7348   3.7436   3.7541   3.7763   3.7989   3.8136
  3.8293   3.8451   3.8566   3.8761   3.8887   3.9028   3.9120   3.9194
  3.9341   3.9399   3.9677   3.9811   3.9997   4.0638   4.0676   4.0895
  4.1050   4.1289   4.1516   4.1539   4.1724   4.2035   4.2107   4.2390
  4.2407   4.3025   4.3159   4.3329   4.3440   4.3886   4.4309   4.4366
  4.4466   4.4681   4.4864   4.5157   4.5331   4.5339   4.5576   4.5725
  4.5787   4.5968   4.6291   4.6589   4.7080   4.7299   4.7937   4.8210
  4.8340   4.8935   5.0163   5.0525   5.1282   5.1533   5.1639   5.1788
  5.1870   5.2066   5.2185   5.2568   5.2600   5.2887   5.3095   5.3348
  5.3522   5.3969   5.4339   5.4566   5.4739   5.5223   5.5860   5.6344
  5.6915   5.7166   5.7993   5.8208   5.8472   5.8900   5.9319   5.9664
  5.9987   6.1213   6.3014   6.6279   6.7641   6.9938   7.0541   7.1097
  7.1601   7.1716   7.2736   7.3210   7.3383   7.4167   7.6262   7.6542
  7.8013  24.2123  24.7837  24.8136  24.8266  25.0020  25.0825  25.5056
 50.5304  50.5681
 --------------------------------------------------------------
 
          Ground-State Mulliken Net Atomic Charges

     Atom                 Charge (a.u.)    Spin (a.u.)
  --------------------------------------------------------
      1 C                    -0.703444       0.461126
      2 H                     0.303182       0.004297
      3 H                     0.324048       0.035516
      4 O                    -0.236763       0.138619
      5 O                    -0.771464       0.266494
      6 H                     0.317547      -0.002386
      7 H                     0.355526      -0.004603
      8 C                     0.757402      -0.008704
      9 C                    -0.076304       0.032950
     10 H                     0.291458      -0.002778
     11 C                    -0.300473      -0.035610
     12 H                     0.287306       0.000776
     13 C                    -0.430621       0.072248
     14 H                     0.283234      -0.001262
     15 C                    -0.364122      -0.035329
     16 H                     0.284437       0.001172
     17 C                    -0.585401       0.079323
     18 H                     0.264453      -0.001850
  --------------------------------------------------------
  Sum of atomic charges =     0.000000
  Sum of spin   charges =     1.000000

 -----------------------------------------------------------------
                    Cartesian Multipole Moments
 -----------------------------------------------------------------
    Charge (ESU x 10^10)
                 0.0000
    Dipole Moment (Debye)
         X       2.5272      Y      -3.7778      Z       2.5543
       Tot       5.2137
    Quadrupole Moments (Debye-Ang)
        XX     -42.9626     XY      -2.5817     YY     -51.7332
        XZ      -2.3774     YZ      15.6629     ZZ     -64.4588
    Octopole Moments (Debye-Ang^2)
       XXX    -110.2848    XXY      98.4405    XYY     -34.3129
       YYY     261.9817    XXZ      62.5733    XYZ       4.1617
       YYZ      54.0126    XZZ     -48.1338    YZZ      89.9838
       ZZZ     282.1758
    Hexadecapole Moments (Debye-Ang^3)
      XXXX    -512.4909   XXXY     308.1104   XXYY    -482.1221
      XYYY     279.3361   YYYY   -2466.0073   XXXZ     193.1859
      XXYZ    -169.8123   XYYZ      39.9096   YYYZ    -324.6010
      XXZZ    -243.5545   XYZZ     120.8137   YYZZ    -594.6631
      XZZZ     256.7767   YZZZ    -579.6910   ZZZZ   -1133.2927
 -----------------------------------------------------------------
 Calculating analytic gradient of the SCF energy
 Gradient of CDS energy
            1           2           3           4           5           6
    1  -0.0030526   0.0000782  -0.0001081   0.0032328  -0.0002709   0.0003966
    2   0.0001450  -0.0000645   0.0003046  -0.0002570   0.0000046   0.0002501
    3   0.0039160  -0.0002009  -0.0002007  -0.0035050  -0.0000006  -0.0001806
            7           8           9          10          11          12
    1  -0.0002511  -0.0000976  -0.0002944  -0.0001078  -0.0004548  -0.0001588
    2   0.0002266   0.0000061   0.0002374   0.0000732  -0.0002505  -0.0001021
    3   0.0003374   0.0001174   0.0000258   0.0000555  -0.0001239  -0.0000483
           13          14          15          16          17          18
    1   0.0000812   0.0000151   0.0004404   0.0002047   0.0002403   0.0001069
    2  -0.0005455  -0.0001687  -0.0001406  -0.0001017   0.0002384   0.0001445
    3  -0.0002007  -0.0000613  -0.0000380  -0.0000268   0.0000706   0.0000641
 Gradient of SCF Energy
            1           2           3           4           5           6
    1  -0.0027269   0.0009318  -0.0229808   0.0047430   0.0202074  -0.0048718
    2   0.0111306  -0.0052246  -0.0376298  -0.0487569   0.0557145  -0.0019266
    3   0.0059313  -0.0021512   0.0207282  -0.0132557  -0.0286283   0.0030684
            7           8           9          10          11          12
    1   0.0003276  -0.0032649  -0.0169269   0.0129720  -0.0057222  -0.0003146
    2   0.0372531   0.0010797   0.0090684  -0.0050199   0.0045565  -0.0004948
    3   0.0093252   0.0073669   0.0057779  -0.0021299   0.0009617  -0.0003302
           13          14          15          16          17          18
    1   0.0096929  -0.0017248  -0.0161050   0.0151559   0.0051788   0.0054286
    2  -0.0200690   0.0041952   0.0227072  -0.0085508  -0.0239776   0.0059449
    3  -0.0073105   0.0022355   0.0067333  -0.0018876  -0.0089558   0.0025207
 Max gradient component =       5.571E-02
 RMS gradient           =       1.620E-02
 Computing fast CPCM-SWIG gradient
 Updating gradient with PCM contributions...
 -- total gradient after adding PCM contribution --
---------------------------------------------------
  Atom         X              Y              Z     
---------------------------------------------------
   1       0.014003       0.022404       0.013452
   2      -0.012195      -0.011238      -0.005561
   3      -0.025047      -0.036694       0.017521
   4       0.005243      -0.031501      -0.008396
   5       0.031225       0.047933      -0.021404
   6      -0.013911       0.002720      -0.000313
   7      -0.000243       0.021932       0.002837
   8       0.000315      -0.007179       0.003450
   9      -0.025581       0.006436       0.001871
  10       0.016662      -0.006026      -0.001939
  11      -0.010549      -0.000225      -0.001215
  12       0.004748       0.003076       0.001272
  13       0.011342      -0.025498      -0.009175
  14      -0.002399       0.011604       0.004895
  15      -0.011140       0.022797       0.007396
  16       0.007730      -0.005176      -0.001101
  17       0.013401      -0.014552      -0.003106
  18      -0.003602      -0.000815      -0.000483
---------------------------------------------------
 Number of fixed atoms: 0
 Gradient time:  CPU 261.38 s  wall 22.01 s
 ----------------------------------------------------------------
             Standard Nuclear Orientation (Angstroms)
    I     Atom           X                Y                Z
 ----------------------------------------------------------------
    1      C       0.8147265000    -0.7087273000    -0.6711115000
    2      H       1.7526203000    -0.2528968000    -0.4466860000
    3      H       0.3841453000     0.4275265000    -1.5879297000
    4      O      -0.1386816000    -0.6773236000     0.3005009000
    5      O       0.6927367000     1.6815182000    -2.1568811000
    6      H       1.6385810000     1.5774485000    -2.1725790000
    7      H      -0.1930153000     0.2545554000     0.6364023000
    8      C       0.9208820000    -2.0638626000    -1.2791431000
    9      C      -0.2255977000    -2.7980496000    -1.6203921000
   10      H      -1.1776113000    -2.3526513000    -1.5057865000
   11      C      -0.0866896000    -4.0882388000    -2.1198436000
   12      H      -0.9614743000    -4.6506387000    -2.3859145000
   13      C       1.1835515000    -4.6652357000    -2.2762059000
   14      H       1.2724438000    -5.6606487000    -2.6380923000
   15      C       2.3081852000    -3.9107716000    -1.9423300000
   16      H       3.2986469000    -4.3668201000    -2.0590392000
   17      C       2.1926923000    -2.6333610000    -1.4596363000
   18      H       3.0615649000    -2.0544779000    -1.1942623000
 ----------------------------------------------------------------
 Nuclear Repulsion Energy =         411.33908953 hartrees
 There are       34 alpha and       33 beta electrons
 Discretize the solute cavity surface with Lebedev spheres
	Using 110 Lebedev grid points for each H atom
	Using 194 Lebedev grid points for other atoms
	Atomic van der Waals radii will be scaled by 1.20
 Remove points where switching function is < 1.0e-08
 Keep 1383 surface tesserae and discard 1353 interior tesserae
 Molecular Surface Area = 165.391 Angst**2
 Requested basis set is 6-311++G(2df,2p)
 There are 126 shells and 396 basis functions
 A cutoff of  1.0D-11 yielded   6819 shell pairs
 There are     67218 function pairs (     82886 Cartesian)
 Smallest overlap matrix eigenvalue = 9.00E-07

 Q-Chem warning in module stvman/mkSTV.C, line 323:

 Overlap eigenvalue is smaller than square root of threshold
 Use THRESH >= 12 to get rid of this warning

 Linear dependence detected in AO basis
 Tighter screening thresholds may be required for diffuse basis sets
 Use S2THRESH > 14 and THRESH = 14 in case of SCF convergence issues
 Number of orthogonalized atomic orbitals = 395
 Maximum deviation from orthogonality = 5.699E-11
 Guess MOs from SCF MO coefficient file

 -----------------------------------------------------------------------
  General SCF calculation program by
  Eric Jon Sundstrom, Paul Horn, Yuezhi Mao, Dmitri Zuev, Alec White,
  David Stuck, Shaama M.S., Shane Yost, Joonho Lee, David Small,
  Daniel Levine, Susi Lehtola, Hugh Burton, Evgeny Epifanovsky,
  Bang C. Huynh
 -----------------------------------------------------------------------
 Exchange:     0.1500 Hartree-Fock + 1.0000 wB97M-V + LR-HF
 Correlation:  1.0000 wB97M-V
 Using SG-2 standard quadrature grid
 Nonlocal Correlation:  VV10 with C = 0.0100 and b = 6.00 and scale = 1.00000
 Grid used for NLC:  SG-1 standard quadrature
 
 Citation of the SMD model:
 Marenich, A.V.; Cramer, C.J.; Truhlar, D.G.
 J. Phys. Chem. B 2009, 113, 6378-6396.
 iSolventCode=           1
 Solvent: water                                                           
 
 vradii
            1           2           3           4           5           6
    1   1.8500000   1.2000000   1.2000000   1.5200000   1.5200000   1.2000000
            7           8           9          10          11          12
    1   1.2000000   1.8500000   1.8500000   1.2000000   1.8500000   1.2000000
           13          14          15          16          17          18
    1   1.8500000   1.2000000   1.8500000   1.2000000   1.8500000   1.2000000
 -------------------------------------------------------
 OpenMP BLAS3 based DFT computing Module                
 Release: version 1.0, May 2013, Q-Chem Inc. Pittsburgh 
 -------------------------------------------------------
 A unrestricted SCF calculation will be
 performed using Roothaan-Hall, DIIS, GDM
 SCF converges when RMS gradient is below 1.0e-06
 ---------------------------------------
  Cycle       Energy         DIIS error
 ---------------------------------------
    1    -422.4554364517      2.16e-04  Roothaan Step
 ---------------------------------------
  Cycle       Energy         DIIS error
 ---------------------------------------
    1    -422.4866250209      2.78e-04  
    2    -422.4897158120      3.20e-04  Done DIIS. Switching to GDM
 ---------------------------------------
  Cycle       Energy        RMS Gradient
 ---------------------------------------
    1    -422.4897158120      2.39e-02   Normal BFGS step
    2    -422.4868736252      4.64e-02  Line search: overstep
    3    -422.4950475118      7.51e-03   Normal BFGS step
    4    -422.4952468204      3.12e-03   Normal BFGS step
    5    -422.4953063602      2.23e-03   Normal BFGS step
    6    -422.4953174777      7.99e-04   Normal BFGS step
    7    -422.4953230068      4.21e-04   Normal BFGS step
    8    -422.4953242634      9.76e-05   Normal BFGS step
    9    -422.4953244571      4.87e-05   Normal BFGS step
   10    -422.4953245013      2.15e-05   Normal BFGS step
   11    -422.4953245074      7.51e-06   Normal BFGS step
   12    -422.4953245087      4.14e-06   Normal BFGS step
   13    -422.4953245088      1.65e-06   Normal BFGS step
   14    -422.4953245087      1.08e-06   Normal BFGS step
   15    -422.4953245083      6.62e-07  Convergence criterion met
 ---------------------------------------
 SCF time:   CPU 1699.51s  wall 115.00s 
<S^2> =          0.762812150
(3)  G-ENP(liq) elect-nuc-pol free energy of system     -422.495324508 a.u.
(4)  G-CDS(liq) cavity-dispersion-solvent structure 
     free energy                                                4.1408 kcal/mol
(6)  G-S(liq) free energy of system                     -422.488725719 a.u.
 SCF   energy in the final basis set =     -422.4887257192
 Total energy in the final basis set =     -422.4887257192
 
 --------------------------------------------------------------
 
                    Orbital Energies (a.u.)
 --------------------------------------------------------------
 
 Alpha MOs
 -- Occupied --
-19.3846 -19.3199 -10.4273 -10.3643 -10.3514 -10.3505 -10.3501 -10.3483
-10.3477  -1.2067  -1.0813  -0.9931  -0.8994  -0.8776  -0.8043  -0.7303
 -0.7057  -0.6609  -0.6358  -0.5905  -0.5749  -0.5516  -0.5422  -0.5367
 -0.5278  -0.5001  -0.4889  -0.4637  -0.4460  -0.4382  -0.4061  -0.3718
 -0.3550  -0.3046
 -- Virtual --
  0.0219   0.0323   0.0362   0.0483   0.0508   0.0535   0.0560   0.0612
  0.0825   0.0845   0.0922   0.0950   0.1036   0.1255   0.1328   0.1367
  0.1456   0.1492   0.1560   0.1580   0.1606   0.1673   0.1710   0.1745
  0.1825   0.1838   0.1902   0.1984   0.2032   0.2071   0.2161   0.2185
  0.2266   0.2375   0.2465   0.2498   0.2550   0.2676   0.2690   0.2736
  0.2826   0.2857   0.2946   0.3076   0.3104   0.3274   0.3293   0.3368
  0.3468   0.3494   0.3546   0.3594   0.3693   0.3741   0.3861   0.4033
  0.4116   0.4271   0.4352   0.4409   0.4587   0.4727   0.5271   0.5389
  0.5627   0.5813   0.5902   0.6002   0.6024   0.6040   0.6116   0.6135
  0.6176   0.6244   0.6275   0.6456   0.6552   0.6661   0.6737   0.6876
  0.7018   0.7087   0.7114   0.7240   0.7273   0.7359   0.7414   0.7478
  0.7566   0.7673   0.7708   0.7804   0.7871   0.8141   0.8251   0.8327
  0.8354   0.8419   0.8516   0.8663   0.8800   0.8905   0.8994   0.9094
  0.9265   0.9378   0.9532   0.9636   0.9894   1.0174   1.0453   1.0561
  1.0601   1.0804   1.0895   1.1000   1.1073   1.1282   1.1423   1.1638
  1.1762   1.1790   1.1824   1.1886   1.2015   1.2184   1.2305   1.2478
  1.2572   1.2694   1.2883   1.3093   1.3188   1.3530   1.3732   1.3802
  1.3863   1.4091   1.4151   1.4258   1.4370   1.4475   1.4546   1.4571
  1.4657   1.4828   1.5012   1.5087   1.5354   1.5538   1.5665   1.5803
  1.5916   1.6004   1.6155   1.6452   1.6737   1.6875   1.7183   1.7746
  1.7873   1.7928   1.8134   1.8193   1.8413   1.8839   1.9118   1.9287
  1.9887   2.0224   2.0746   2.0790   2.0880   2.1265   2.1496   2.2372
  2.2555   2.3137   2.3369   2.3748   2.4226   2.5791   2.5881   2.6212
  2.6511   2.6600   2.6991   2.7193   2.7410   2.7856   2.7987   2.8064
  2.8102   2.8164   2.8269   2.8407   2.8552   2.8720   2.8946   2.9016
  2.9032   2.9129   2.9208   2.9367   2.9428   2.9609   2.9646   2.9795
  3.0037   3.0219   3.0268   3.0380   3.0851   3.1327   3.1638   3.1856
  3.1958   3.2064   3.2136   3.2311   3.2348   3.2516   3.2623   3.2765
  3.2903   3.3019   3.3144   3.3308   3.3684   3.3791   3.3925   3.4064
  3.4104   3.4356   3.4517   3.4616   3.4802   3.4978   3.4998   3.5202
  3.5378   3.5642   3.5672   3.5839   3.6048   3.6130   3.6298   3.6533
  3.6622   3.7238   3.7325   3.7455   3.7688   3.7927   3.8100   3.8253
  3.8377   3.8477   3.8705   3.8846   3.8947   3.9064   3.9146   3.9288
  3.9353   3.9630   3.9738   3.9925   4.0589   4.0600   4.0809   4.0935
  4.1221   4.1469   4.1513   4.1695   4.2004   4.2039   4.2250   4.2348
  4.2959   4.3082   4.3252   4.3321   4.3833   4.4201   4.4293   4.4379
  4.4655   4.4746   4.5111   4.5226   4.5302   4.5512   4.5678   4.5748
  4.5939   4.6155   4.6468   4.7043   4.7252   4.7904   4.8172   4.8295
  4.8895   5.0044   5.0498   5.1247   5.1370   5.1490   5.1759   5.1833
  5.1918   5.2129   5.2374   5.2439   5.2781   5.2901   5.3206   5.3356
  5.3818   5.4166   5.4377   5.4680   5.5151   5.5732   5.6288   5.6824
  5.7106   5.7866   5.8017   5.8338   5.8847   5.9274   5.9614   5.9817
  6.1174   6.2978   6.6262   6.7569   6.9575   7.0422   7.0875   7.1346
  7.1530   7.2482   7.3044   7.3202   7.3993   7.6031   7.6384   7.7935
 24.2120  24.7834  24.8132  24.8199  25.0015  25.0820  25.5052  50.5244
 50.5646
 
 Beta MOs
 -- Occupied --
-19.3798 -19.3116 -10.4198 -10.3651 -10.3503 -10.3496 -10.3492 -10.3486
-10.3481  -1.1964  -1.0627  -0.9918  -0.8951  -0.8768  -0.7931  -0.7289
 -0.7021  -0.6522  -0.6336  -0.5733  -0.5690  -0.5434  -0.5390  -0.5280
 -0.5197  -0.4885  -0.4819  -0.4491  -0.4394  -0.4137  -0.3957  -0.3523
 -0.3516
 -- Virtual --
 -0.0535   0.0227   0.0331   0.0365   0.0509   0.0519   0.0542   0.0578
  0.0670   0.0830   0.0846   0.0923   0.0956   0.1041   0.1259   0.1341
  0.1375   0.1460   0.1507   0.1572   0.1592   0.1613   0.1676   0.1717
  0.1759   0.1828   0.1842   0.1908   0.1994   0.2062   0.2082   0.2165
  0.2216   0.2368   0.2386   0.2496   0.2510   0.2558   0.2698   0.2710
  0.2747   0.2847   0.2864   0.2954   0.3103   0.3143   0.3297   0.3323
  0.3446   0.3479   0.3524   0.3565   0.3599   0.3719   0.3759   0.3918
  0.4058   0.4130   0.4278   0.4372   0.4443   0.4627   0.4769   0.5308
  0.5436   0.5652   0.5834   0.5936   0.6011   0.6040   0.6064   0.6132
  0.6151   0.6189   0.6270   0.6301   0.6490   0.6582   0.6697   0.6761
  0.6886   0.7047   0.7106   0.7142   0.7254   0.7291   0.7368   0.7431
  0.7501   0.7587   0.7687   0.7751   0.7823   0.7896   0.8159   0.8263
  0.8333   0.8360   0.8429   0.8525   0.8688   0.8819   0.8914   0.9017
  0.9123   0.9283   0.9396   0.9568   0.9653   0.9930   1.0204   1.0467
  1.0583   1.0615   1.0836   1.0917   1.1025   1.1105   1.1297   1.1460
  1.1659   1.1800   1.1843   1.1864   1.1966   1.2055   1.2238   1.2327
  1.2510   1.2593   1.2738   1.2938   1.3131   1.3210   1.3557   1.3765
  1.3842   1.3876   1.4137   1.4164   1.4279   1.4408   1.4491   1.4563
  1.4598   1.4711   1.4853   1.5052   1.5120   1.5405   1.5583   1.5688
  1.5813   1.5959   1.6052   1.6224   1.6558   1.6782   1.6924   1.7236
  1.7754   1.7927   1.7961   1.8155   1.8206   1.8489   1.8884   1.9155
  1.9329   1.9947   2.0319   2.0764   2.0809   2.0901   2.1330   2.1590
  2.2444   2.2634   2.3182   2.3463   2.3860   2.4276   2.5820   2.5895
  2.6223   2.6583   2.6728   2.7025   2.7223   2.7505   2.7908   2.8043
  2.8106   2.8154   2.8198   2.8284   2.8447   2.8571   2.8748   2.8988
  2.9044   2.9113   2.9164   2.9238   2.9407   2.9477   2.9630   2.9703
  2.9821   3.0077   3.0285   3.0317   3.0401   3.0942   3.1444   3.1668
  3.1995   3.2066   3.2113   3.2181   3.2356   3.2408   3.2578   3.2678
  3.2934   3.2962   3.3097   3.3239   3.3399   3.3785   3.3869   3.4004
  3.4104   3.4231   3.4441   3.4650   3.4735   3.4844   3.5025   3.5109
  3.5255   3.5417   3.5688   3.5799   3.5991   3.6129   3.6194   3.6394
  3.6662   3.6784   3.7351   3.7438   3.7539   3.7762   3.7989   3.8136
  3.8294   3.8449   3.8565   3.8761   3.8889   3.9022   3.9119   3.9193
  3.9343   3.9400   3.9675   3.9811   3.9996   4.0636   4.0678   4.0897
  4.1042   4.1289   4.1516   4.1539   4.1721   4.2036   4.2111   4.2389
  4.2409   4.3026   4.3159   4.3327   4.3432   4.3884   4.4303   4.4366
  4.4463   4.4681   4.4856   4.5156   4.5331   4.5339   4.5578   4.5722
  4.5786   4.5967   4.6286   4.6579   4.7079   4.7299   4.7935   4.8209
  4.8340   4.8930   5.0156   5.0525   5.1281   5.1534   5.1640   5.1787
  5.1870   5.2066   5.2186   5.2567   5.2601   5.2886   5.3094   5.3350
  5.3522   5.3969   5.4337   5.4565   5.4740   5.5226   5.5858   5.6341
  5.6921   5.7167   5.7984   5.8210   5.8460   5.8901   5.9318   5.9662
  6.0009   6.1241   6.3014   6.6279   6.7673   6.9939   7.0541   7.1100
  7.1606   7.1716   7.2738   7.3212   7.3389   7.4168   7.6264   7.6546
  7.8013  24.2122  24.7836  24.8136  24.8265  25.0019  25.0824  25.5056
 50.5305  50.5687
 --------------------------------------------------------------
 
          Ground-State Mulliken Net Atomic Charges

     Atom                 Charge (a.u.)    Spin (a.u.)
  --------------------------------------------------------
      1 C                    -0.703817       0.460653
      2 H                     0.302359       0.004546
      3 H                     0.324155       0.035714
      4 O                    -0.235656       0.138958
      5 O                    -0.771716       0.266495
      6 H                     0.317526      -0.002379
      7 H                     0.355653      -0.004601
      8 C                     0.757394      -0.008649
      9 C                    -0.074758       0.032835
     10 H                     0.291427      -0.002782
     11 C                    -0.300909      -0.035502
     12 H                     0.287291       0.000774
     13 C                    -0.430762       0.072040
     14 H                     0.283235      -0.001258
     15 C                    -0.363762      -0.035218
     16 H                     0.284472       0.001168
     17 C                    -0.586635       0.079053
     18 H                     0.264504      -0.001848
  --------------------------------------------------------
  Sum of atomic charges =     0.000000
  Sum of spin   charges =     1.000000

 -----------------------------------------------------------------
                    Cartesian Multipole Moments
 -----------------------------------------------------------------
    Charge (ESU x 10^10)
                 0.0000
    Dipole Moment (Debye)
         X       2.5204      Y      -3.7788      Z       2.5621
       Tot       5.2150
    Quadrupole Moments (Debye-Ang)
        XX     -42.9731     XY      -2.5817     YY     -51.7484
        XZ      -2.3725     YZ      15.6606     ZZ     -64.4695
    Octopole Moments (Debye-Ang^2)
       XXX    -110.2825    XXY      98.4421    XYY     -34.3104
       YYY     262.0256    XXZ      62.5830    XYZ       4.1643
       YYZ      54.0537    XZZ     -48.1329    YZZ      89.9861
       ZZZ     282.2161
    Hexadecapole Moments (Debye-Ang^3)
      XXXX    -512.4632   XXXY     308.0893   XXYY    -482.1245
      XYYY     279.3077   YYYY   -2466.3217   XXXZ     193.1821
      XXYZ    -169.8120   XYYZ      39.9110   YYYZ    -324.7053
      XXZZ    -243.5580   XYZZ     120.7992   YYZZ    -594.7626
      XZZZ     256.7769   YZZZ    -579.7069   ZZZZ   -1133.3868
 -----------------------------------------------------------------
 Calculating analytic gradient of the SCF energy
 Gradient of CDS energy
            1           2           3           4           5           6
    1  -0.0030171   0.0000801  -0.0001064   0.0031912  -0.0002710   0.0003967
    2   0.0001438  -0.0000638   0.0003048  -0.0002562   0.0000044   0.0002499
    3   0.0038787  -0.0001999  -0.0001997  -0.0034669  -0.0000005  -0.0001807
            7           8           9          10          11          12
    1  -0.0002495  -0.0000974  -0.0002943  -0.0001075  -0.0004548  -0.0001588
    2   0.0002271   0.0000059   0.0002371   0.0000724  -0.0002505  -0.0001021
    3   0.0003357   0.0001171   0.0000254   0.0000549  -0.0001239  -0.0000483
           13          14          15          16          17          18
    1   0.0000812   0.0000151   0.0004404   0.0002047   0.0002405   0.0001069
    2  -0.0005455  -0.0001687  -0.0001407  -0.0001017   0.0002392   0.0001445
    3  -0.0002007  -0.0000613  -0.0000381  -0.0000268   0.0000709   0.0000641
 Gradient of SCF Energy
            1           2           3           4           5           6
    1  -0.0049457   0.0019998  -0.0229079   0.0054434   0.0202126  -0.0048855
    2   0.0106105  -0.0048148  -0.0375637  -0.0487368   0.0556505  -0.0019205
    3   0.0061655  -0.0018748   0.0207036  -0.0137720  -0.0286008   0.0030652
            7           8           9          10          11          12
    1   0.0003327  -0.0028956  -0.0169806   0.0129625  -0.0057062  -0.0003139
    2   0.0372785   0.0011478   0.0091440  -0.0050130   0.0045724  -0.0004868
    3   0.0093150   0.0073886   0.0058139  -0.0021267   0.0009709  -0.0003264
           13          14          15          16          17          18
    1   0.0097048  -0.0017258  -0.0160857   0.0151516   0.0052230   0.0054166
    2  -0.0200715   0.0041997   0.0226980  -0.0085538  -0.0240725   0.0059320
    3  -0.0073110   0.0022371   0.0067323  -0.0018882  -0.0090073   0.0025150
 Max gradient component =       5.565E-02
 RMS gradient           =       1.621E-02
 Computing fast CPCM-SWIG gradient
 Updating gradient with PCM contributions...
 -- total gradient after adding PCM contribution --
---------------------------------------------------
  Atom         X              Y              Z     
---------------------------------------------------
   1       0.011797       0.021862       0.013690
   2      -0.011101      -0.010798      -0.005278
   3      -0.024979      -0.036630       0.017493
   4       0.005911      -0.031461      -0.008886
   5       0.031209       0.047872      -0.021371
   6      -0.013908       0.002724      -0.000317
   7      -0.000228       0.021933       0.002807
   8       0.000683      -0.007109       0.003460
   9      -0.025629       0.006521       0.001902
  10       0.016663      -0.006027      -0.001941
  11      -0.010537      -0.000205      -0.001205
  12       0.004747       0.003082       0.001274
  13       0.011352      -0.025499      -0.009175
  14      -0.002400       0.011605       0.004895
  15      -0.011121       0.022792       0.007397
  16       0.007729      -0.005180      -0.001102
  17       0.013416      -0.014663      -0.003156
  18      -0.003605      -0.000819      -0.000486
---------------------------------------------------
 Number of fixed atoms: 0
 Gradient time:  CPU 256.38 s  wall 21.57 s
 ----------------------------------------------------------------
             Standard Nuclear Orientation (Angstroms)
    I     Atom           X                Y                Z
 ----------------------------------------------------------------
    1      C       0.8157265000    -0.7077273000    -0.6711115000
    2      H       1.7526203000    -0.2528968000    -0.4466860000
    3      H       0.3841453000     0.4275265000    -1.5879297000
    4      O      -0.1386816000    -0.6773236000     0.3005009000
    5      O       0.6927367000     1.6815182000    -2.1568811000
    6      H       1.6385810000     1.5774485000    -2.1725790000
    7      H      -0.1930153000     0.2545554000     0.6364023000
    8      C       0.9208820000    -2.0638626000    -1.2791431000
    9      C      -0.2255977000    -2.7980496000    -1.6203921000
   10      H      -1.1776113000    -2.3526513000    -1.5057865000
   11      C      -0.0866896000    -4.0882388000    -2.1198436000
   12      H      -0.9614743000    -4.6506387000    -2.3859145000
   13      C       1.1835515000    -4.6652357000    -2.2762059000
   14      H       1.2724438000    -5.6606487000    -2.6380923000
   15      C       2.3081852000    -3.9107716000    -1.9423300000
   16      H       3.2986469000    -4.3668201000    -2.0590392000
   17      C       2.1926923000    -2.6333610000    -1.4596363000
   18      H       3.0615649000    -2.0544779000    -1.1942623000
 ----------------------------------------------------------------
 Nuclear Repulsion Energy =         411.32174736 hartrees
 There are       34 alpha and       33 beta electrons
 Discretize the solute cavity surface with Lebedev spheres
	Using 110 Lebedev grid points for each H atom
	Using 194 Lebedev grid points for other atoms
	Atomic van der Waals radii will be scaled by 1.20
 Remove points where switching function is < 1.0e-08
 Keep 1383 surface tesserae and discard 1353 interior tesserae
 Molecular Surface Area = 165.389 Angst**2
 Requested basis set is 6-311++G(2df,2p)
 There are 126 shells and 396 basis functions
 A cutoff of  1.0D-11 yielded   6819 shell pairs
 There are     67218 function pairs (     82886 Cartesian)
 Smallest overlap matrix eigenvalue = 9.00E-07

 Q-Chem warning in module stvman/mkSTV.C, line 323:

 Overlap eigenvalue is smaller than square root of threshold
 Use THRESH >= 12 to get rid of this warning

 Linear dependence detected in AO basis
 Tighter screening thresholds may be required for diffuse basis sets
 Use S2THRESH > 14 and THRESH = 14 in case of SCF convergence issues
 Number of orthogonalized atomic orbitals = 395
 Maximum deviation from orthogonality = 6.277E-11
 Guess MOs from SCF MO coefficient file

 -----------------------------------------------------------------------
  General SCF calculation program by
  Eric Jon Sundstrom, Paul Horn, Yuezhi Mao, Dmitri Zuev, Alec White,
  David Stuck, Shaama M.S., Shane Yost, Joonho Lee, David Small,
  Daniel Levine, Susi Lehtola, Hugh Burton, Evgeny Epifanovsky,
  Bang C. Huynh
 -----------------------------------------------------------------------
 Exchange:     0.1500 Hartree-Fock + 1.0000 wB97M-V + LR-HF
 Correlation:  1.0000 wB97M-V
 Using SG-2 standard quadrature grid
 Nonlocal Correlation:  VV10 with C = 0.0100 and b = 6.00 and scale = 1.00000
 Grid used for NLC:  SG-1 standard quadrature
 
 Citation of the SMD model:
 Marenich, A.V.; Cramer, C.J.; Truhlar, D.G.
 J. Phys. Chem. B 2009, 113, 6378-6396.
 iSolventCode=           1
 Solvent: water                                                           
 
 vradii
            1           2           3           4           5           6
    1   1.8500000   1.2000000   1.2000000   1.5200000   1.5200000   1.2000000
            7           8           9          10          11          12
    1   1.2000000   1.8500000   1.8500000   1.2000000   1.8500000   1.2000000
           13          14          15          16          17          18
    1   1.8500000   1.2000000   1.8500000   1.2000000   1.8500000   1.2000000
 -------------------------------------------------------
 OpenMP BLAS3 based DFT computing Module                
 Release: version 1.0, May 2013, Q-Chem Inc. Pittsburgh 
 -------------------------------------------------------
 A unrestricted SCF calculation will be
 performed using Roothaan-Hall, DIIS, GDM
 SCF converges when RMS gradient is below 1.0e-06
 ---------------------------------------
  Cycle       Energy         DIIS error
 ---------------------------------------
    1    -422.4553650959      2.16e-04  Roothaan Step
 ---------------------------------------
  Cycle       Energy         DIIS error
 ---------------------------------------
    1    -422.4865282892      2.79e-04  
    2    -422.4896118212      3.21e-04  Done DIIS. Switching to GDM
 ---------------------------------------
  Cycle       Energy        RMS Gradient
 ---------------------------------------
    1    -422.4896118212      2.40e-02   Normal BFGS step
    2    -422.4867509412      4.63e-02  Line search: overstep
    3    -422.4949780176      7.41e-03   Normal BFGS step
    4    -422.4951765295      3.03e-03   Normal BFGS step
    5    -422.4952354242      2.21e-03   Normal BFGS step
    6    -422.4952463212      7.93e-04   Normal BFGS step
    7    -422.4952517285      4.30e-04   Normal BFGS step
    8    -422.4952529920      9.72e-05   Normal BFGS step
    9    -422.4952531844      4.89e-05   Normal BFGS step
   10    -422.4952532288      2.15e-05   Normal BFGS step
   11    -422.4952532349      7.41e-06   Normal BFGS step
   12    -422.4952532362      4.09e-06   Normal BFGS step
   13    -422.4952532363      1.65e-06   Normal BFGS step
   14    -422.4952532362      1.07e-06   Normal BFGS step
   15    -422.4952532359      6.58e-07  Convergence criterion met
 ---------------------------------------
 SCF time:   CPU 1707.56s  wall 115.00s 
<S^2> =          0.762805890
(3)  G-ENP(liq) elect-nuc-pol free energy of system     -422.495253236 a.u.
(4)  G-CDS(liq) cavity-dispersion-solvent structure 
     free energy                                                4.1374 kcal/mol
(6)  G-S(liq) free energy of system                     -422.488659894 a.u.
 SCF   energy in the final basis set =     -422.4886598937
 Total energy in the final basis set =     -422.4886598937
 
 --------------------------------------------------------------
 
                    Orbital Energies (a.u.)
 --------------------------------------------------------------
 
 Alpha MOs
 -- Occupied --
-19.3845 -19.3200 -10.4273 -10.3643 -10.3514 -10.3505 -10.3501 -10.3483
-10.3477  -1.2065  -1.0814  -0.9931  -0.8993  -0.8776  -0.8044  -0.7303
 -0.7057  -0.6609  -0.6357  -0.5905  -0.5748  -0.5516  -0.5422  -0.5368
 -0.5278  -0.5002  -0.4889  -0.4637  -0.4461  -0.4383  -0.4062  -0.3717
 -0.3550  -0.3047
 -- Virtual --
  0.0219   0.0324   0.0362   0.0483   0.0508   0.0535   0.0560   0.0612
  0.0825   0.0845   0.0922   0.0950   0.1036   0.1255   0.1328   0.1367
  0.1457   0.1492   0.1560   0.1580   0.1606   0.1672   0.1710   0.1745
  0.1825   0.1838   0.1902   0.1984   0.2032   0.2071   0.2161   0.2185
  0.2266   0.2374   0.2465   0.2498   0.2550   0.2676   0.2690   0.2736
  0.2826   0.2857   0.2946   0.3076   0.3104   0.3275   0.3292   0.3368
  0.3467   0.3492   0.3546   0.3594   0.3693   0.3742   0.3860   0.4033
  0.4116   0.4271   0.4352   0.4408   0.4587   0.4726   0.5271   0.5390
  0.5627   0.5812   0.5902   0.6002   0.6024   0.6039   0.6116   0.6135
  0.6176   0.6244   0.6275   0.6455   0.6552   0.6661   0.6737   0.6876
  0.7018   0.7087   0.7114   0.7240   0.7273   0.7358   0.7413   0.7478
  0.7566   0.7673   0.7709   0.7804   0.7871   0.8141   0.8251   0.8327
  0.8354   0.8419   0.8516   0.8663   0.8800   0.8905   0.8994   0.9094
  0.9265   0.9378   0.9532   0.9635   0.9894   1.0174   1.0454   1.0561
  1.0601   1.0805   1.0895   1.1000   1.1073   1.1282   1.1423   1.1638
  1.1763   1.1791   1.1824   1.1886   1.2015   1.2185   1.2306   1.2479
  1.2572   1.2694   1.2882   1.3093   1.3188   1.3531   1.3732   1.3801
  1.3862   1.4090   1.4151   1.4257   1.4370   1.4475   1.4545   1.4571
  1.4658   1.4828   1.5012   1.5087   1.5355   1.5537   1.5665   1.5804
  1.5916   1.6005   1.6156   1.6452   1.6738   1.6874   1.7182   1.7745
  1.7875   1.7928   1.8134   1.8193   1.8412   1.8837   1.9117   1.9286
  1.9883   2.0223   2.0746   2.0790   2.0880   2.1262   2.1493   2.2370
  2.2553   2.3137   2.3369   2.3748   2.4224   2.5790   2.5881   2.6212
  2.6504   2.6598   2.6989   2.7193   2.7409   2.7856   2.7988   2.8064
  2.8101   2.8164   2.8268   2.8407   2.8552   2.8720   2.8945   2.9016
  2.9032   2.9129   2.9208   2.9367   2.9428   2.9609   2.9645   2.9794
  3.0037   3.0218   3.0265   3.0380   3.0849   3.1326   3.1639   3.1856
  3.1958   3.2065   3.2136   3.2311   3.2348   3.2516   3.2622   3.2765
  3.2903   3.3018   3.3142   3.3308   3.3682   3.3790   3.3924   3.4064
  3.4104   3.4357   3.4514   3.4616   3.4802   3.4977   3.4998   3.5204
  3.5377   3.5640   3.5672   3.5839   3.6048   3.6130   3.6299   3.6532
  3.6624   3.7237   3.7323   3.7457   3.7689   3.7929   3.8099   3.8253
  3.8378   3.8476   3.8703   3.8844   3.8948   3.9065   3.9145   3.9286
  3.9352   3.9630   3.9737   3.9925   4.0589   4.0599   4.0810   4.0941
  4.1222   4.1469   4.1513   4.1696   4.2002   4.2038   4.2245   4.2348
  4.2958   4.3081   4.3255   4.3320   4.3834   4.4207   4.4292   4.4379
  4.4655   4.4747   4.5110   4.5224   4.5301   4.5511   4.5680   4.5749
  4.5939   4.6157   4.6473   4.7042   4.7251   4.7904   4.8171   4.8294
  4.8895   5.0047   5.0498   5.1248   5.1370   5.1490   5.1758   5.1832
  5.1917   5.2127   5.2374   5.2439   5.2782   5.2900   5.3206   5.3356
  5.3818   5.4166   5.4379   5.4679   5.5148   5.5735   5.6289   5.6821
  5.7105   5.7871   5.8016   5.8340   5.8846   5.9274   5.9614   5.9805
  6.1152   6.2977   6.6261   6.7553   6.9574   7.0421   7.0873   7.1345
  7.1527   7.2482   7.3045   7.3200   7.3993   7.6030   7.6379   7.7936
 24.2118  24.7834  24.8131  24.8194  25.0011  25.0819  25.5051  50.5243
 50.5644
 
 Beta MOs
 -- Occupied --
-19.3797 -19.3117 -10.4198 -10.3652 -10.3503 -10.3496 -10.3492 -10.3486
-10.3481  -1.1961  -1.0627  -0.9918  -0.8950  -0.8768  -0.7931  -0.7289
 -0.7021  -0.6522  -0.6335  -0.5732  -0.5689  -0.5435  -0.5389  -0.5280
 -0.5197  -0.4885  -0.4819  -0.4490  -0.4394  -0.4138  -0.3958  -0.3523
 -0.3515
 -- Virtual --
 -0.0536   0.0227   0.0331   0.0365   0.0509   0.0519   0.0542   0.0578
  0.0669   0.0830   0.0846   0.0923   0.0956   0.1041   0.1259   0.1341
  0.1375   0.1460   0.1507   0.1572   0.1592   0.1613   0.1676   0.1717
  0.1759   0.1828   0.1842   0.1908   0.1994   0.2062   0.2082   0.2165
  0.2216   0.2368   0.2386   0.2496   0.2510   0.2558   0.2697   0.2710
  0.2747   0.2847   0.2864   0.2954   0.3104   0.3143   0.3298   0.3322
  0.3447   0.3478   0.3522   0.3565   0.3599   0.3719   0.3759   0.3918
  0.4058   0.4130   0.4279   0.4372   0.4443   0.4627   0.4768   0.5308
  0.5436   0.5652   0.5834   0.5936   0.6011   0.6040   0.6063   0.6132
  0.6151   0.6189   0.6270   0.6301   0.6490   0.6582   0.6698   0.6761
  0.6886   0.7046   0.7106   0.7141   0.7254   0.7291   0.7368   0.7430
  0.7501   0.7587   0.7687   0.7752   0.7823   0.7896   0.8159   0.8263
  0.8333   0.8360   0.8428   0.8525   0.8688   0.8819   0.8914   0.9017
  0.9123   0.9283   0.9396   0.9568   0.9652   0.9930   1.0204   1.0468
  1.0583   1.0615   1.0837   1.0917   1.1025   1.1105   1.1297   1.1459
  1.1660   1.1802   1.1844   1.1864   1.1966   1.2055   1.2239   1.2328
  1.2511   1.2593   1.2738   1.2938   1.3132   1.3210   1.3557   1.3765
  1.3841   1.3876   1.4135   1.4163   1.4279   1.4407   1.4492   1.4563
  1.4598   1.4711   1.4852   1.5053   1.5120   1.5406   1.5583   1.5688
  1.5813   1.5958   1.6053   1.6225   1.6558   1.6783   1.6924   1.7234
  1.7753   1.7929   1.7961   1.8155   1.8206   1.8488   1.8882   1.9154
  1.9328   1.9944   2.0318   2.0764   2.0809   2.0901   2.1327   2.1587
  2.2441   2.2632   2.3182   2.3463   2.3860   2.4274   2.5820   2.5895
  2.6223   2.6581   2.6721   2.7023   2.7223   2.7504   2.7908   2.8043
  2.8105   2.8154   2.8198   2.8283   2.8446   2.8571   2.8748   2.8988
  2.9044   2.9112   2.9164   2.9238   2.9407   2.9476   2.9630   2.9702
[...]
 -----------------------------------------------------------------
    Charge (ESU x 10^10)
                -0.0000
    Dipole Moment (Debye)
         X       2.8705      Y       1.9103      Z       1.3904
       Tot       3.7179
    Quadrupole Moments (Debye-Ang)
        XX     -45.5266     XY       1.5680     YY     -47.6978
        XZ      -1.9256     YZ       5.9507     ZZ     -63.4502
    Octopole Moments (Debye-Ang^2)
       XXX    -115.8052    XXY     105.4085    XYY     -33.2685
       YYY     319.7488    XXZ      68.8120    XYZ      -2.2423
       YYZ      45.6376    XZZ     -50.1568    YZZ     110.2876
       ZZZ     286.1405
    Hexadecapole Moments (Debye-Ang^3)
      XXXX    -537.3618   XXXY     315.3937   XXYY    -477.2218
      XYYY     334.8952   YYYY   -2476.8176   XXXZ     213.5926
      XXYZ    -175.5142   XYYZ      35.7734   YYYZ    -424.8409
      XXZZ    -266.4321   XYZZ     127.9234   YYZZ    -561.8887
      XZZZ     276.9407   YZZZ    -618.7413   ZZZZ   -1205.1909
 -----------------------------------------------------------------
 Calculating analytic gradient of the SCF energy
 Gradient of CDS energy
            1           2           3           4           5           6
    1  -0.0001596   0.0001592   0.0000738   0.0002601  -0.0002479   0.0002635
    2   0.0004378  -0.0001520  -0.0000504  -0.0001954  -0.0002295   0.0004406
    3   0.0005098  -0.0000370  -0.0000283  -0.0004325  -0.0001059  -0.0000627
            7           8           9          10          11          12
    1  -0.0003053  -0.0001043  -0.0002507  -0.0001343  -0.0004300  -0.0001713
    2   0.0002469   0.0000849   0.0002154   0.0001143  -0.0002438  -0.0001064
    3   0.0003649  -0.0000274   0.0000838   0.0000835  -0.0001125  -0.0000497
           13          14          15          16          17          18
    1   0.0000428   0.0000164   0.0004687   0.0001879   0.0002094   0.0001215
    2  -0.0004779  -0.0001891  -0.0001914  -0.0000821   0.0002517   0.0001263
    3  -0.0002114  -0.0000837  -0.0000828  -0.0000330   0.0001489   0.0000760
 Gradient of SCF Energy
            1           2           3           4           5           6
    1  -0.0125223   0.0085192   0.0022974  -0.0030841  -0.0136545   0.0127450
    2  -0.0107986   0.0044304   0.0045509  -0.0151913  -0.0083428   0.0077648
    3  -0.0055028   0.0037107  -0.0006566  -0.0038802  -0.0117225   0.0107745
            7           8           9          10          11          12
    1   0.0029691  -0.0010860   0.0045535   0.0023382   0.0040506  -0.0014686
    2   0.0142662   0.0030301   0.0011607  -0.0021382   0.0057958  -0.0012078
    3   0.0045885   0.0022522   0.0031008  -0.0016047   0.0024304  -0.0005195
           13          14          15          16          17          18
    1  -0.0022167   0.0003346  -0.0043401   0.0041014  -0.0086955   0.0051587
    2   0.0042529  -0.0030203  -0.0001364  -0.0016419  -0.0067766   0.0040020
    3   0.0012841  -0.0013619   0.0003950  -0.0005804  -0.0045961   0.0018886
 Max gradient component =       1.519E-02
 RMS gradient           =       6.147E-03
 Computing fast CPCM-SWIG gradient
 Updating gradient with PCM contributions...
 -- total gradient after adding PCM contribution --
---------------------------------------------------
  Atom         X              Y              Z     
---------------------------------------------------
   1       0.000293      -0.000334       0.000159
   2      -0.000045       0.000048      -0.000126
   3      -0.000188       0.000040       0.000145
   4      -0.000036       0.000105      -0.000232
   5       0.000048       0.000132      -0.000169
   6       0.000008      -0.000001       0.000007
   7       0.000011      -0.000013       0.000025
   8       0.000072       0.000060       0.000200
   9      -0.000031      -0.000005      -0.000057
  10      -0.000017       0.000007       0.000029
  11      -0.000044       0.000047       0.000004
  12      -0.000021       0.000010       0.000021
  13      -0.000001      -0.000012       0.000034
  14      -0.000031      -0.000003       0.000003
  15      -0.000005      -0.000000      -0.000040
  16      -0.000021      -0.000019       0.000003
  17       0.000011      -0.000041      -0.000010
  18      -0.000002      -0.000021       0.000000
---------------------------------------------------
 Number of fixed atoms: 0
 Gradient time:  CPU 301.21 s  wall 25.96 s
 Geometry Optimization Parameters
   NAtoms,    NIC,     NZ,  NCons,   NDum,   NFix, NCnnct, MaxDiis
       18     128       0       0       0       0       0       0

 Cartesian Hessian Update
 Hessian updated using Powell/Murtagh-Sargent update
  Mixing factors:     0.999992 Powell                      0.000008 Murtagh-Sargent


** GEOMETRY OPTIMIZATION IN DELOCALIZED INTERNAL COORDINATES **
   Searching for a Transition State

   Optimization Cycle:  61

                       Coordinates (Angstroms)
     ATOM                X               Y               Z
      1  C         0.8362394702   -0.6681514020   -0.6306477225
      2  H         1.7651329885   -0.3798744668   -0.1368918618
      3  H         0.6872968823    0.0495609770   -1.4752566625
      4  O        -0.2685539262   -0.5777826738    0.2514970380
      5  O         0.7696445387    1.3301087145   -2.6484583248
      6  H         1.4672087822    1.7881300037   -2.1474608362
      7  H        -0.2802905847    0.3092399403    0.6261923335
      8  C         0.9399723577   -2.0497663924   -1.2004410987
      9  C        -0.2020097447   -2.7699551489   -1.5426473336
     10  H        -1.1798318164   -2.3396848699   -1.3722310521
     11  C        -0.0898355621   -4.0356243578   -2.0997697725
     12  H        -0.9821700168   -4.5896770512   -2.3586557269
     13  C         1.1637147179   -4.5904522962   -2.3286019170
     14  H         1.2493165954   -5.5765014705   -2.7650174289
     15  C         2.3050060161   -3.8739787154   -1.9949876305
     16  H         3.2836812244   -4.3016584249   -2.1667677019
     17  C         2.1921867287   -2.6108387719   -1.4293305320
     18  H         3.0819979489   -2.0557486938   -1.1594536697
   Point Group: c1    Number of degrees of freedom:    48


   Energy is   -422.497022371

 Hessian updated using Powell/Murtagh-Sargent update
  Mixing factors:     0.643184 Powell                      0.356816 Murtagh-Sargent

 48 Hessian modes will be used to form the next step
  Hessian Eigenvalues:
    -0.013340    0.000886    0.001626    0.006591    0.013330    0.013960
     0.016768    0.017862    0.018227    0.021675    0.022142    0.025526
     0.027070    0.029833    0.031294    0.032757    0.040030    0.059330
     0.077929    0.085426    0.092127    0.097740    0.109009    0.112352
     0.116160    0.128504    0.157064    0.179016    0.191589    0.193420
     0.198953    0.214937    0.258408    0.291984    0.312344    0.332037
     0.370604    0.377979    0.395792    0.405711    0.414423    0.424053
     0.425876    0.446909    0.452745    0.466625    0.526713    0.575116

 Transition state search - taking P-RFO step
 Searching for Lamda that Maximizes Along the Lowest mode
 Value Taken    Lamda =   0.00000108
 Searching for Lamda that Minimizes Along All other modes
 Value Taken    Lamda =  -0.00000397
 Step Taken.  Stepsize is  0.028436

                             Maximum     Tolerance    Cnvgd?
         Gradient           0.000248      0.000300     YES
         Displacement       0.014226      0.001200      NO
         Energy change     -0.000001      0.000001     YES

 Final energy is   -422.497022370522     


 ******************************
 **  OPTIMIZATION CONVERGED  **
 ******************************

                       Coordinates (Angstroms)
     ATOM                X               Y               Z
      1  C         0.8362394702   -0.6681514020   -0.6306477225
      2  H         1.7651329885   -0.3798744668   -0.1368918618
      3  H         0.6872968823    0.0495609770   -1.4752566625
      4  O        -0.2685539262   -0.5777826738    0.2514970380
      5  O         0.7696445387    1.3301087145   -2.6484583248
      6  H         1.4672087822    1.7881300037   -2.1474608362
      7  H        -0.2802905847    0.3092399403    0.6261923335
      8  C         0.9399723577   -2.0497663924   -1.2004410987
      9  C        -0.2020097447   -2.7699551489   -1.5426473336
     10  H        -1.1798318164   -2.3396848699   -1.3722310521
     11  C        -0.0898355621   -4.0356243578   -2.0997697725
     12  H        -0.9821700168   -4.5896770512   -2.3586557269
     13  C         1.1637147179   -4.5904522962   -2.3286019170
     14  H         1.2493165954   -5.5765014705   -2.7650174289
     15  C         2.3050060161   -3.8739787154   -1.9949876305
     16  H         3.2836812244   -4.3016584249   -2.1667677019
     17  C         2.1921867287   -2.6108387719   -1.4293305320
     18  H         3.0819979489   -2.0557486938   -1.1594536697

Z-matrix Print:
$molecule
0 2
C 
C  1 1.391127
H  2 1.082923 1 119.464562
C  2 1.388603 1 120.466833 3 179.788467 0
H  4 1.081769 2 119.855981 1 -179.875130 0
C  4 1.388229 2 120.038059 1 -0.420177 0
H  6 1.081702 4 120.156579 2 -179.710425 0
C  6 1.389815 4 119.729956 2 0.297947 0
H  8 1.081784 6 120.008830 4 179.957209 0
C  8 1.387403 6 120.213480 4 0.123459 0
H  10 1.081809 8 119.945207 6 179.610220 0
C  1 1.498094 2 119.793308 3 2.192754 0
H  12 1.090753 1 110.912838 2 -19.774646 0
H  12 1.118329 1 108.290960 2 96.867176 0
O  12 1.416656 1 110.467119 2 -143.840227 0
H  15 0.962987 12 108.092483 1 177.559314 0
O  14 1.738674 12 167.415612 1 -123.114786 0
H  17 0.973333 14 91.902744 12 -9.773670 0
$end

 
 --------------------------------------------------------------
 
                    Orbital Energies (a.u.)
 --------------------------------------------------------------
 
 Alpha MOs
 -- Occupied --
-19.3905 -19.3443 -10.3964 -10.3542 -10.3439 -10.3435 -10.3432 -10.3427
-10.3423  -1.1643  -1.1342  -0.9887  -0.8948  -0.8704  -0.7992  -0.7242
 -0.6983  -0.6369  -0.6234  -0.5933  -0.5776  -0.5601  -0.5427  -0.5284
 -0.5200  -0.5073  -0.4813  -0.4647  -0.4567  -0.4396  -0.4311  -0.3908
 -0.3479  -0.3354
 -- Virtual --
  0.0229   0.0327   0.0370   0.0507   0.0520   0.0540   0.0583   0.0641
  0.0790   0.0842   0.0916   0.0957   0.1106   0.1231   0.1312   0.1368
  0.1481   0.1539   0.1583   0.1600   0.1626   0.1685   0.1722   0.1783
  0.1830   0.1876   0.1879   0.1981   0.2064   0.2103   0.2145   0.2197
  0.2349   0.2382   0.2479   0.2512   0.2646   0.2669   0.2725   0.2751
  0.2816   0.2862   0.2968   0.3049   0.3098   0.3158   0.3353   0.3434
  0.3495   0.3563   0.3620   0.3698   0.3722   0.3833   0.4015   0.4089
  0.4211   0.4317   0.4362   0.4441   0.4581   0.4725   0.5373   0.5453
  0.5687   0.5710   0.5926   0.5954   0.6018   0.6099   0.6134   0.6179
  0.6235   0.6287   0.6301   0.6577   0.6606   0.6763   0.6839   0.6954
  0.7084   0.7167   0.7200   0.7259   0.7353   0.7420   0.7447   0.7547
  0.7649   0.7720   0.7764   0.7865   0.7920   0.8222   0.8270   0.8358
  0.8379   0.8499   0.8528   0.8692   0.8772   0.8898   0.8982   0.9087
  0.9219   0.9400   0.9684   0.9914   0.9967   1.0181   1.0328   1.0539
  1.0703   1.0753   1.0985   1.1153   1.1167   1.1251   1.1383   1.1720
  1.1748   1.1824   1.1889   1.2050   1.2065   1.2269   1.2440   1.2486
  1.2690   1.2876   1.2940   1.3198   1.3364   1.3658   1.3726   1.3813
  1.3938   1.4071   1.4211   1.4307   1.4346   1.4503   1.4604   1.4651
  1.4766   1.4864   1.5049   1.5197   1.5381   1.5599   1.5657   1.5788
  1.5889   1.5936   1.6118   1.6449   1.6627   1.6959   1.7153   1.7238
  1.7804   1.7981   1.8187   1.8255   1.8276   1.8741   1.8799   1.9079
  1.9508   1.9895   2.0748   2.0850   2.0896   2.1064   2.1604   2.2364
  2.2563   2.3006   2.3314   2.3810   2.4210   2.5710   2.5807   2.6075
  2.6281   2.6520   2.6940   2.7221   2.7289   2.7502   2.7998   2.8132
  2.8243   2.8273   2.8325   2.8563   2.8616   2.8793   2.8834   2.9102
  2.9130   2.9247   2.9278   2.9350   2.9403   2.9457   2.9636   2.9804
  3.0123   3.0289   3.0406   3.0665   3.0895   3.1552   3.1771   3.1818
  3.2122   3.2183   3.2312   3.2368   3.2537   3.2611   3.2682   3.2776
  3.2871   3.3078   3.3401   3.3667   3.3796   3.3825   3.3948   3.4193
  3.4391   3.4685   3.4735   3.4828   3.5027   3.5095   3.5260   3.5405
  3.5523   3.5718   3.5879   3.6161   3.6297   3.6465   3.6631   3.6825
  3.7201   3.7321   3.7378   3.7820   3.7947   3.8151   3.8223   3.8276
  3.8505   3.8688   3.8848   3.8995   3.9080   3.9102   3.9344   3.9407
  3.9597   3.9697   3.9911   4.0041   4.0766   4.1022   4.1290   4.1371
  4.1527   4.1744   4.1835   4.1942   4.1966   4.2292   4.2511   4.2881
  4.3201   4.3408   4.3685   4.4006   4.4190   4.4370   4.4426   4.4591
  4.4649   4.5223   4.5452   4.5639   4.5735   4.5804   4.5910   4.6078
  4.6303   4.6507   4.7295   4.7475   4.7917   4.8200   4.8478   4.8755
  4.9673   5.0694   5.0706   5.0758   5.1049   5.1412   5.1717   5.1745
  5.1888   5.1942   5.2187   5.2428   5.2651   5.2843   5.3189   5.3331
  5.3461   5.3908   5.4816   5.5095   5.5636   5.6138   5.6165   5.6397
  5.6687   5.6866   5.7579   5.8429   5.8735   5.8877   5.9507   5.9966
  6.0462   6.2819   6.6330   6.6544   6.8277   6.9641   6.9702   7.0862
  7.1176   7.2308   7.3180   7.3331   7.3656   7.5087   7.6540   7.8055
 24.1860  24.7963  24.8034  24.8135  25.0483  25.0654  25.5304  50.4326
 50.5979
 
 Beta MOs
 -- Occupied --
-19.3679 -19.3436 -10.3941 -10.3543 -10.3437 -10.3435 -10.3432 -10.3426
-10.3421  -1.1625  -1.0727  -0.9884  -0.8936  -0.8702  -0.7956  -0.7240
 -0.6970  -0.6320  -0.6228  -0.5780  -0.5594  -0.5552  -0.5381  -0.5268
 -0.5194  -0.4807  -0.4703  -0.4393  -0.4325  -0.4273  -0.3934  -0.3473
 -0.3390
 -- Virtual --
 -0.0761   0.0234   0.0330   0.0372   0.0516   0.0523   0.0543   0.0589
  0.0666   0.0797   0.0844   0.0919   0.0960   0.1113   0.1240   0.1319
  0.1375   0.1484   0.1540   0.1586   0.1612   0.1637   0.1687   0.1727
  0.1788   0.1836   0.1879   0.1883   0.1997   0.2076   0.2123   0.2149
  0.2202   0.2372   0.2397   0.2496   0.2522   0.2649   0.2676   0.2729
  0.2764   0.2830   0.2877   0.2983   0.3069   0.3110   0.3170   0.3361
  0.3454   0.3508   0.3569   0.3623   0.3707   0.3756   0.3839   0.4035
  0.4136   0.4248   0.4322   0.4377   0.4500   0.4619   0.4736   0.5377
  0.5475   0.5699   0.5719   0.5945   0.5963   0.6022   0.6105   0.6141
  0.6188   0.6253   0.6297   0.6320   0.6582   0.6615   0.6770   0.6844
  0.6962   0.7089   0.7181   0.7211   0.7262   0.7357   0.7425   0.7453
  0.7553   0.7653   0.7728   0.7772   0.7875   0.7932   0.8240   0.8283
  0.8361   0.8378   0.8513   0.8540   0.8704   0.8780   0.8908   0.8991
  0.9092   0.9235   0.9412   0.9706   0.9933   0.9992   1.0207   1.0365
  1.0548   1.0718   1.0758   1.0992   1.1174   1.1189   1.1282   1.1395
  1.1728   1.1789   1.1849   1.1893   1.2081   1.2275   1.2433   1.2468
  1.2537   1.2706   1.2882   1.2968   1.3217   1.3386   1.3676   1.3767
  1.3839   1.3945   1.4089   1.4230   1.4328   1.4374   1.4510   1.4612
  1.4688   1.4792   1.4903   1.5065   1.5282   1.5395   1.5607   1.5673
  1.5806   1.5939   1.5982   1.6152   1.6651   1.6714   1.7076   1.7184
  1.7382   1.7827   1.7997   1.8188   1.8259   1.8329   1.8820   1.8910
  1.9114   1.9764   1.9921   2.0755   2.0853   2.0901   2.1070   2.1623
  2.2399   2.2626   2.3063   2.3530   2.3857   2.4219   2.5710   2.5818
  2.6077   2.6283   2.6555   2.6951   2.7235   2.7317   2.7638   2.8008
  2.8130   2.8247   2.8286   2.8327   2.8569   2.8629   2.8807   2.8840
  2.9106   2.9138   2.9260   2.9285   2.9360   2.9400   2.9465   2.9641
  2.9807   3.0125   3.0298   3.0409   3.0673   3.0909   3.1577   3.1776
  3.1823   3.2129   3.2198   3.2319   3.2373   3.2547   3.2620   3.2690
  3.2780   3.2888   3.3089   3.3414   3.3676   3.3807   3.3841   3.3956
  3.4195   3.4396   3.4695   3.4741   3.4832   3.5032   3.5102   3.5267
  3.5415   3.5544   3.5732   3.5899   3.6171   3.6307   3.6478   3.6646
  3.6854   3.7286   3.7357   3.7423   3.7848   3.7971   3.8165   3.8280
  3.8287   3.8525   3.8701   3.8869   3.9008   3.9095   3.9133   3.9361
  3.9422   3.9606   3.9706   3.9919   4.0068   4.0784   4.1044   4.1304
  4.1388   4.1534   4.1747   4.1850   4.1954   4.1987   4.2370   4.2517
  4.2886   4.3198   4.3416   4.3698   4.3996   4.4191   4.4377   4.4423
  4.4593   4.4642   4.5227   4.5463   4.5644   4.5740   4.5809   4.5917
  4.6082   4.6311   4.6516   4.7300   4.7484   4.7926   4.8207   4.8485
  4.8759   4.9710   5.0702   5.1238   5.1249   5.1311   5.1791   5.1835
  5.1883   5.2146   5.2266   5.2583   5.2704   5.2908   5.3094   5.3345
  5.3548   5.3642   5.4031   5.4830   5.5104   5.5680   5.6345   5.6400
  5.6695   5.6799   5.6889   5.7599   5.8436   5.8745   5.8882   5.9512
  5.9980   6.0473   6.2825   6.6359   6.6548   6.9327   7.0036   7.0720
  7.1117   7.1689   7.2972   7.3208   7.3403   7.3724   7.5782   7.6572
  7.8069  24.1860  24.7964  24.8039  24.8150  25.0483  25.0655  25.5305
 50.4482  50.5985
 --------------------------------------------------------------
 
          Ground-State Mulliken Net Atomic Charges

     Atom                 Charge (a.u.)    Spin (a.u.)
  --------------------------------------------------------
      1 C                    -0.632415       0.115135
      2 H                     0.239440       0.000246
      3 H                     0.286521      -0.033906
      4 O                    -0.383016       0.022404
      5 O                    -0.411463       0.885415
      6 H                     0.337690      -0.013255
      7 H                     0.335645      -0.000230
      8 C                     0.579824       0.013124
      9 C                     0.171452       0.000264
     10 H                     0.277719      -0.000335
     11 C                    -0.347527      -0.008458
     12 H                     0.284514       0.000105
     13 C                    -0.445150       0.014642
     14 H                     0.277190      -0.000312
     15 C                    -0.309922      -0.007631
     16 H                     0.289287       0.000195
     17 C                    -0.815335       0.013217
     18 H                     0.265545      -0.000621
  --------------------------------------------------------
  Sum of atomic charges =    -0.000000
  Sum of spin   charges =     1.000000

 -----------------------------------------------------------------
                    Cartesian Multipole Moments
 -----------------------------------------------------------------
    Charge (ESU x 10^10)
                -0.0000
    Dipole Moment (Debye)
         X       2.8705      Y       1.9103      Z       1.3904
       Tot       3.7179
    Quadrupole Moments (Debye-Ang)
        XX     -45.5266     XY       1.5680     YY     -47.6978
        XZ      -1.9256     YZ       5.9507     ZZ     -63.4502
    Octopole Moments (Debye-Ang^2)
       XXX    -115.8052    XXY     105.4085    XYY     -33.2685
       YYY     319.7488    XXZ      68.8120    XYZ      -2.2423
       YYZ      45.6376    XZZ     -50.1568    YZZ     110.2876
       ZZZ     286.1405
    Hexadecapole Moments (Debye-Ang^3)
      XXXX    -537.3618   XXXY     315.3937   XXYY    -477.2218
      XYYY     334.8952   YYYY   -2476.8176   XXXZ     213.5926
      XXYZ    -175.5142   XYYZ      35.7734   YYYZ    -424.8409
      XXZZ    -266.4321   XYZZ     127.9234   YYZZ    -561.8887
      XZZZ     276.9407   YZZZ    -618.7413   ZZZZ   -1205.1909
 -----------------------------------------------------------------
 Total job time:  11224.57s(wall), 160577.44s(cpu) 
 Wed Dec 28 03:53:49 2022

        *************************************************************
        *                                                           *
        *  Thank you very much for using Q-Chem.  Have a nice day.  *
        *                                                           *
        *************************************************************


