
Running Job 1 of 1 Q_in.in
qchem Q_in.in_2012720.0 /scratch/ari.fischer/qChem2160051.hpc-mn1/qchem2012720/ 0
/usr/local/qchem-5.4.1/exe/qcprog.exe_s Q_in.in_2012720.0 /scratch/ari.fischer/qChem2160051.hpc-mn1/qchem2012720/
                  Welcome to Q-Chem
     A Quantum Leap Into The Future Of Chemistry


 Q-Chem 5.4, Q-Chem, Inc., Pleasanton, CA (2021)

 License issued to: Nanyang Technological University (site)

 E. Epifanovsky,  A. T. B. Gilbert,  Xintian Feng,  Joonho Lee,  Yuezhi Mao,  
 N. Mardirossian,  P. Pokhilko,  A. White,  M. Wormit,  M. P. Coons,  
 A. L. Dempwolff,  Zhengting Gan,  D. Hait,  P. R. Horn,  L. D. Jacobson,  
 I. Kaliman,  J. Kussmann,  A. W. Lange,  Ka Un Lao,  D. S. Levine,  Jie Liu,  
 S. C. McKenzie,  A. F. Morrison,  K. Nanda,  F. Plasser,  D. R. Rehn,  
 M. L. Vidal,  Zhi-Qiang You,  Ying Zhu,  B. Alam,  B. Albrecht,  
 A. Aldossary,  E. Alguire,  J. H. Andersen,  D. Barton,  K. Begam,  A. Behn,  
 Y. A. Bernard,  E. J. Berquist,  H. Burton,  A. Carreras,  K. Carter-Fenk,  
 Romit Chakraborty,  A. D. Chien,  K. D. Closser,  V. Cofer-Shabica,  
 S. Dasgupta,  Jia Deng,  M. de Wergifosse,  M. Diedenhofen,  Hainam Do,  
 S. Ehlert,  Po-Tung Fang,  S. Fatehi,  Qingguo Feng,  T. Friedhoff,  
 J. Gayvert,  Qinghui Ge,  G. Gidofalvi,  M. Goldey,  J. Gomes,  
 C. Gonzalez-Espinoza,  S. Gulania,  A. Gunina,  M. W. D. Hanson-Heine,  
 P. H. P. Harbach,  A. W. Hauser,  M. F. Herbst,  M. Hernandez Vera,  
 M. Hodecker,  Z. C. Holden,  S. Houck,  Xunkun Huang,  Kerwin Hui,  
 B. C. Huynh,  M. Ivanov,  Hyunjun Ji,  Hanjie Jiang,  B. Kaduk,  S. Kaehler,  
 K. Khistyaev,  Jaehoon Kim,  P. Klunzinger,  Z. Koczor-Benda,  
 Joong Hoon Koh,  D. Kosenkov,  L. Koulias,  T. Kowalczyk,  C. M. Krauter,  
 K. Kue,  A. Kunitsa,  T. Kus,  A. Landau,  K. V. Lawler,  D. Lefrancois,  
 S. Lehtola,  Rain Li,  Yi-Pei Li,  Jiashu Liang,  M. Liebenthal,  
 Hung-Hsuan Lin,  You-Sheng Lin,  Fenglai Liu,  Kuan-Yu Liu,  
 M. Loipersberger,  A. Luenser,  A. Manjanath,  P. Manohar,  E. Mansoor,  
 S. F. Manzer,  Shan-Ping Mao,  A. V. Marenich,  T. Markovich,  S. Mason,  
 S. A. Maurer,  P. F. McLaughlin,  M. F. S. J. Menger,  J.-M. Mewes,  
 S. A. Mewes,  P. Morgante,  J. W. Mullinax,  K. J. Oosterbaan,  G. Paran,  
 Alexander C. Paul,  Suranjan K. Paul,  F. Pavosevic,  Zheng Pei,  S. Prager,  
 E. I. Proynov,  E. Ramos,  B. Rana,  A. E. Rask,  A. Rettig,  R. M. Richard,  
 F. Rob,  E. Rossomme,  T. Scheele,  M. Scheurer,  M. Schneider,  
 N. Sergueev,  S. M. Sharada,  W. Skomorowski,  D. W. Small,  C. J. Stein,  
 Yu-Chuan Su,  E. J. Sundstrom,  Zhen Tao,  J. Thirman,  T. Tsuchimochi,  
 N. M. Tubman,  S. P. Veccham,  O. Vydrov,  J. Wenzel,  J. Witte,  A. Yamada,  
 Kun Yao,  S. Yeganeh,  S. R. Yost,  A. Zech,  Igor Ying Zhang,  Xing Zhang,  
 Yu Zhang,  D. Zuev,  A. Aspuru-Guzik,  A. T. Bell,  N. A. Besley,  
 K. B. Bravaya,  B. R. Brooks,  D. Casanova,  Jeng-Da Chai,  S. Coriani,  
 C. J. Cramer,  A. E. DePrince, III,  R. A. DiStasio Jr.,  A. Dreuw,  
 B. D. Dunietz,  T. R. Furlani,  W. A. Goddard III,  S. Grimme,  
 S. Hammes-Schiffer,  T. Head-Gordon,  W. J. Hehre,  Chao-Ping Hsu,  
 T.-C. Jagau,  Yousung Jung,  A. Klamt,  Jing Kong,  D. S. Lambrecht,  
 WanZhen Liang,  N. J. Mayhall,  C. W. McCurdy,  J. B. Neaton,  T. Neudecker,  
 C. Ochsenfeld,  J. A. Parkhill,  R. Peverati,  V. A. Rassolov,  Yihan Shao,  
 L. V. Slipchenko,  R. P. Steele,  J. E. Subotnik,  A. J. W. Thom,  
 A. Tkatchenko,  D. G. Truhlar,  T. Van Voorhis,  T. A. Wesolowski,  
 K. B. Whaley,  H. L. Woodcock III,  P. M. Zimmerman,  S. Faraji,  
 P. M. W. Gill,  M. Head-Gordon,  J. M. Herbert,  A. I. Krylov

 Additional authors since Version 5.4.0: 
 Chandrima Chakravarty,  L. Cunha,  R. Kang,  Yongbin Kim,  S. Kotaru,  
 Shaozhi Li,  Xiangyuan Li,  F. Matz,  A. Molle,  V. Parravicini,  
 Haisheng Ren,  Hengyuan Shen,  Yingli Su,  Hung-Yi Tsai,  C. Utku,  
 Fang Wang,  Jeff Yang,  F. Zeller

 Contributors to earlier versions of Q-Chem not listed above: 
 R. D. Adamson,  B. Austin,  R. Baer,  J. Baker,  G. J. O. Beran,  
 K. Brandhorst,  S. T. Brown,  E. F. C. Byrd,  Arup K. Chakraborty,  
 G. K. L. Chan,  Chun-Min Chang,  Yunqing Chen,  C.-L. Cheng,  
 Siu Hung Chien,  D. M. Chipman,  D. L. Crittenden,  H. Dachsel,  
 R. J. Doerksen,  A. D. Dutoi,  R. G. Edgar,  J. Fosso-Tande,  
 L. Fusti-Molnar,  D. Ghosh,  A. Ghysels,  A. Golubeva-Zadorozhnaya,  
 J. Gonthier,  M. S. Gordon,  S. R. Gwaltney,  G. Hawkins,  J. E. Herr,  
 A. Heyden,  S. Hirata,  E. G. Hohenstein,  G. Kedziora,  F. J. Keil,  
 C. Kelley,  Jihan Kim,  R. A. King,  R. Z. Khaliullin,  P. P. Korambath,  
 W. Kurlancheek,  A. Laurent,  A. M. Lee,  M. S. Lee,  S. V. Levchenko,  
 Ching Yeh Lin,  D. Liotard,  E. Livshits,  R. C. Lochan,  I. Lotan,  
 L. A. Martinez-Martinez,  P. E. Maslen,  N. Nair,  D. P. O'Neill,  
 D. Neuhauser,  E. Neuscamman,  C. M. Oana,  R. Olivares-Amaya,  R. Olson,  
 T. M. Perrine,  B. Peters,  P. A. Pieniazek,  A. Prociuk,  Y. M. Rhee,  
 J. Ritchie,  M. A. Rohrdanz,  E. Rosta,  N. J. Russ,  H. F. Schaefer III,  
 M. W. Schmidt,  N. E. Schultz,  S. Sharma,  N. Shenvi,  C. D. Sherrill,  
 A. C. Simmonett,  A. Sodt,  T. Stein,  D. Stuck,  K. S. Thanthiriwatte,  
 V. Vanovschi,  L. Vogt,  Tao Wang,  A. Warshel,  M. A. Watson,  
 C. F. Williams,  Q. Wu,  X. Xu,  Jun Yang,  W. Zhang,  Yan Zhao

   Please cite Q-Chem as follows:
  "Software for the frontiers of quantum chemistry:
   An overview of developments in the Q-Chem 5 package"
   J. Chem. Phys. 155, 084801 (2021)
   https://doi.org/10.1063/5.0055522 (open access)

 Q-Chem 5.4.2 for Intel X86 EM64T Linux

 Parts of Q-Chem use Armadillo 9.900.5 (Nocturnal Misbehaviour).
 http://arma.sourceforge.net/

 Q-Chem begins on Fri Jun  7 08:17:19 2024  

 Host: 
0

     Scratch files written to /scratch/ari.fischer/qChem2160051.hpc-mn1/qchem2012720//
 Dec1321 |scratch|qcdevops|jenkins|workspace|build_RNUM 8249   
 Processing $rem in /usr/local/qchem-5.4.1/config/preferences:
 Processing $rem in /home/ari.fischer/.qchemrc:
 Symmetry turned off for PCM/SM12/SMD calculation


!!********************************************.
!!******************Warning*******************.
!!Desired Analytical derivatives not available.
!!Finite difference job might take a long time.
!!********************************************.
!!********************************************.


 2-order derivative to be evaluated numerically with 1-order analytical derivatives

 Checking the input file for inconsistencies... 	...done.

--------------------------------------------------------------
User input:
--------------------------------------------------------------
$molecule
0 1
H        -0.4490077689   -0.1954725624    1.5869302786
C        -0.2357269497    0.7443865731    1.0926092196
C        -1.1582782074    1.7045161843    1.0664649921
H        -2.1028951860    1.5628637793    1.5770265813
C        -1.0137061159    2.9875675837    0.3527368378
H        -0.2343301186    3.0671195745   -0.4126681275
C         1.0978091162    0.8499218405    0.4530494462
C         1.6921717346   -0.4289824194   -0.0629329205
O         1.7117974766    1.8975046854    0.3558536323
O        -1.7562780241    3.9248790565    0.5779947930
O         2.9440229668   -0.2114718826   -0.6746517761
H         0.9895972431   -0.8772074613   -0.7709264113
H         1.7812049548   -1.1167982730    0.7840300735
H         3.1556190784    0.7260621214   -0.5517893190
$end

$rem
BASIS = 6-311++G(2df,2p)
GUI = 2
JOB_TYPE = Frequency
METHOD = wB97M-V
SOLVENT_METHOD = SMD
SCF_ALGORITHM = DIIS_GDM
MAX_SCF_CYCLES = 400
SCF_CONVERGENCE = 7
THRESH = 12
$end
--------------------------------------------------------------
 ----------------------------------------------------------------
             Standard Nuclear Orientation (Angstroms)
    I     Atom           X                Y                Z
 ----------------------------------------------------------------
    1      H      -0.4490077689    -0.1954725624     1.5869302786
    2      C      -0.2357269497     0.7443865731     1.0926092196
    3      C      -1.1582782074     1.7045161843     1.0664649921
    4      H      -2.1028951860     1.5628637793     1.5770265813
    5      C      -1.0137061159     2.9875675837     0.3527368378
    6      H      -0.2343301186     3.0671195745    -0.4126681275
    7      C       1.0978091162     0.8499218405     0.4530494462
    8      C       1.6921717346    -0.4289824194    -0.0629329205
    9      O       1.7117974766     1.8975046854     0.3558536323
   10      O      -1.7562780241     3.9248790565     0.5779947930
   11      O       2.9440229668    -0.2114718826    -0.6746517761
   12      H       0.9895972431    -0.8772074613    -0.7709264113
   13      H       1.7812049548    -1.1167982730     0.7840300735
   14      H       3.1556190784     0.7260621214    -0.5517893190
 ----------------------------------------------------------------
 Nuclear Repulsion Energy =         343.74922521 hartrees
 There are       30 alpha and       30 beta electrons
 Requested basis set is 6-311++G(2df,2p)
 There are 100 shells and 332 basis functions

 Total QAlloc Memory Limit 288000 MB
 Mega-Array Size       188 MB
 MEM_STATIC part       192 MB
 
 Citation of the SMD model:
 Marenich, A.V.; Cramer, C.J.; Truhlar, D.G.
 J. Phys. Chem. B 2009, 113, 6378-6396.
 iSolventCode=           1
 Solvent: water                                                           
 
 vradii
            1           2           3           4           5           6
    1   1.2000000   1.8500000   1.8500000   1.2000000   1.8500000   1.2000000
            7           8           9          10          11          12
    1   1.8500000   1.8500000   1.5200000   1.5200000   1.5200000   1.2000000
           13          14
    1   1.2000000   1.2000000
 Changing PCM_VDW_RADII to SMD_RADIUS
 Discretize the solute cavity surface with Lebedev spheres
	Using 110 Lebedev grid points for each H atom
	Using 194 Lebedev grid points for other atoms
	Atomic van der Waals radii will be scaled by 1.20
 Remove points where switching function is < 1.0e-08
 Keep 1167 surface tesserae and discard 1045 interior tesserae
 Molecular Surface Area = 137.466 Angst**2

                       Distance Matrix (Angstroms)
             H (  1)   C (  2)   C (  3)   H (  4)   C (  5)   H (  6)
   C (  2)  1.083133
   C (  3)  2.093778  1.331778
   H (  4)  2.413957  2.095443  1.083070
   C (  5)  3.460327  2.486870  1.475307  2.171405
   H (  6)  3.832622  2.767842  2.213188  3.116602  1.095263
   C (  7)  2.184303  1.482732  2.489285  3.466427  3.006341  2.727641
   C (  8)  2.713158  2.535521  3.735294  4.589058  4.378056  4.007050
   O (  9)  3.250413  2.380198  2.963030  4.019344  2.935407  2.397089
   O ( 10)  4.438942  3.562645  2.350791  2.587919  1.216843  2.008355
   O ( 11)  4.077704  3.761341  4.850915  5.804283  5.191628  4.573809
   H ( 12)  2.844967  2.757490  3.828142  4.585885  4.495812  4.145366
   H ( 13)  2.543096  2.761747  4.084133  4.784942  4.984311  4.795794
   H ( 14)  4.291466  3.769033  4.710184  5.734463  4.828649  4.122094
             C (  7)   C (  8)   O (  9)   O ( 10)   O ( 11)   H ( 12)
   C (  8)  1.501699
   O (  9)  1.218137  2.363961
   O ( 10)  4.197236  5.590948  4.023325
   O ( 11)  2.409725  1.410192  2.651057  6.385245
   H ( 12)  2.119623  1.093513  3.080622  5.693808  2.066943
   H ( 13)  2.108214  1.094698  3.045353  6.162365  2.073527  1.761231
   H ( 14)  2.293387  1.927378  2.068989  5.969554  0.968937  2.703728
             H ( 13)
   H ( 14)  2.658865
 
 A cutoff of  1.0D-12 yielded   4500 shell pairs
 There are     49315 function pairs (     61586 Cartesian)
 Smallest overlap matrix eigenvalue = 6.85E-06
 Guess from superposition of atomic densities
 Warning:  Energy on first SCF cycle will be non-variational
 SAD guess density has 60.000000 electrons

 -----------------------------------------------------------------------
  General SCF calculation program by
  Eric Jon Sundstrom, Paul Horn, Yuezhi Mao, Dmitri Zuev, Alec White,
  David Stuck, Shaama M.S., Shane Yost, Joonho Lee, David Small,
  Daniel Levine, Susi Lehtola, Hugh Burton, Evgeny Epifanovsky,
  Bang C. Huynh
 -----------------------------------------------------------------------
 Exchange:     0.1500 Hartree-Fock + 1.0000 wB97M-V + LR-HF
 Correlation:  1.0000 wB97M-V
 Using SG-2 standard quadrature grid
 Nonlocal Correlation:  VV10 with C = 0.0100 and b = 6.00 and scale = 1.00000
 Grid used for NLC:  SG-1 standard quadrature
 using 16 threads for integral computing
 -------------------------------------------------------
 OpenMP Integral computing Module                
 Release: version 1.0, May 2013, Q-Chem Inc. Pittsburgh 
 -------------------------------------------------------
 
 Citation of the SMD model:
 Marenich, A.V.; Cramer, C.J.; Truhlar, D.G.
 J. Phys. Chem. B 2009, 113, 6378-6396.
 iSolventCode=           1
 Solvent: water                                                           
 
 vradii
            1           2           3           4           5           6
    1   1.2000000   1.8500000   1.8500000   1.2000000   1.8500000   1.2000000
            7           8           9          10          11          12
    1   1.8500000   1.8500000   1.5200000   1.5200000   1.5200000   1.2000000
           13          14
    1   1.2000000   1.2000000
 -------------------------------------------------------
 OpenMP BLAS3 based DFT computing Module                
 Release: version 1.0, May 2013, Q-Chem Inc. Pittsburgh 
 -------------------------------------------------------
 A restricted SCF calculation will be
 performed using DIIS, GDM
 SCF converges when RMS gradient is below 1.0e-07
 ---------------------------------------
  Cycle       Energy         DIIS error
 ---------------------------------------
    1    -421.6065944250      2.80e-02  
    2    -419.6304842191      3.77e-03  Done DIIS. Switching to GDM
 ---------------------------------------
  Cycle       Energy        RMS Gradient
 ---------------------------------------
    1    -419.6304842191      1.61e-01   Descent step
    2    -419.7650463357      3.66e-02   Normal BFGS step
    3    -419.7891874872      7.78e-03   Normal BFGS step
    4    -419.7902564253      3.45e-03   Normal BFGS step
    5    -419.7908493908      7.60e-04   Normal BFGS step
    6    -419.7908706788      5.03e-04   Normal BFGS step
    7    -419.7908810153      1.50e-04   Normal BFGS step
    8    -419.7908814593      8.32e-05   Normal BFGS step
    9    -419.7908815206      2.40e-05   Normal BFGS step
   10    -419.7908815298      1.63e-05   Normal BFGS step
   11    -419.7908815334      5.70e-06   Normal BFGS step
   12    -419.7908815338      3.30e-06   Normal BFGS step
   13    -419.7908815339      1.44e-06   Normal BFGS step
   14    -419.7908815339      6.00e-07   Normal BFGS step
   15    -419.7908815339      1.76e-07   Normal BFGS step
   16    -419.7908815339      6.67e-08  Convergence criterion met
 ---------------------------------------
 SCF time:   CPU 1091.10s  wall 229.00s 
(3)  G-ENP(liq) elect-nuc-pol free energy of system     -419.790881534 a.u.
(4)  G-CDS(liq) cavity-dispersion-solvent structure 
     free energy                                                5.1019 kcal/mol
(6)  G-S(liq) free energy of system                     -419.782751065 a.u.
 SCF   energy in the final basis set =     -419.7827510646
 Total energy in the final basis set =     -419.7827510646
 
 --------------------------------------------------------------
 
                    Orbital Energies (a.u.)
 --------------------------------------------------------------
 
 Alpha MOs
 -- Occupied --
-19.3530 -19.3480 -19.3431 -10.4581 -10.4452 -10.3975 -10.3773 -10.3727
 -1.2100  -1.1930  -1.1585  -0.9481  -0.8683  -0.7824  -0.7179  -0.6753
 -0.6365  -0.6122  -0.5980  -0.5842  -0.5510  -0.5470  -0.5225  -0.5137
 -0.5012  -0.4803  -0.4052  -0.3964  -0.3897  -0.3744
 -- Virtual --
 -0.0170   0.0262   0.0396   0.0431   0.0527   0.0596   0.0651   0.0710
  0.0938   0.0952   0.1039   0.1144   0.1193   0.1336   0.1389   0.1424
  0.1518   0.1580   0.1683   0.1720   0.1747   0.1814   0.1877   0.1942
  0.2025   0.2088   0.2148   0.2222   0.2513   0.2550   0.2624   0.2811
  0.2841   0.2951   0.3053   0.3074   0.3170   0.3294   0.3389   0.3406
  0.3489   0.3534   0.3633   0.3678   0.3793   0.3884   0.3906   0.3980
  0.4307   0.4424   0.4597   0.4879   0.4960   0.5391   0.5536   0.5655
  0.5737   0.5960   0.6077   0.6111   0.6235   0.6341   0.6429   0.6544
  0.6572   0.6632   0.6771   0.6879   0.6982   0.7119   0.7165   0.7370
  0.7650   0.7782   0.7801   0.7898   0.8010   0.8252   0.8417   0.8483
  0.8604   0.8753   0.8828   0.9221   0.9437   0.9857   1.0028   1.0385
  1.0556   1.0581   1.0691   1.0867   1.1052   1.1110   1.1266   1.1452
  1.1505   1.1592   1.1727   1.1909   1.1986   1.2111   1.2192   1.2285
  1.2439   1.2611   1.2759   1.3082   1.3216   1.3371   1.3631   1.3900
  1.3977   1.4129   1.4315   1.4374   1.4491   1.4609   1.5004   1.5181
  1.5361   1.5399   1.5532   1.5943   1.6081   1.6306   1.6348   1.6726
  1.7008   1.7557   1.7608   1.7965   1.8409   1.8501   1.9056   1.9406
  1.9629   1.9897   2.0490   2.0890   2.1083   2.1252   2.2038   2.2263
  2.3662   2.3835   2.4129   2.5128   2.5213   2.5776   2.5989   2.6023
  2.6404   2.6870   2.7245   2.7540   2.7860   2.7991   2.8052   2.8165
  2.8433   2.8648   2.8885   2.9028   2.9097   2.9239   2.9422   2.9745
  2.9990   3.0361   3.0641   3.0742   3.1101   3.1297   3.1619   3.1698
  3.1989   3.2186   3.2431   3.2447   3.2769   3.2883   3.3101   3.3287
  3.3390   3.3529   3.3725   3.4177   3.4424   3.4599   3.4847   3.4867
  3.5044   3.5141   3.5256   3.5376   3.5800   3.6054   3.6327   3.6507
  3.6930   3.7020   3.7242   3.7552   3.7683   3.7921   3.8036   3.8268
  3.8476   3.8544   3.8818   3.9026   3.9365   3.9796   4.0133   4.0429
  4.0612   4.1024   4.1302   4.1513   4.1994   4.2249   4.2371   4.2457
  4.2569   4.2959   4.3236   4.3766   4.3961   4.4252   4.4381   4.5022
  4.5445   4.5630   4.5962   4.6447   4.6931   4.7606   4.8424   4.8457
  4.9304   5.0087   5.1659   5.1781   5.1890   5.2015   5.2062   5.2174
  5.2233   5.2464   5.2697   5.3162   5.3981   5.4067   5.4331   5.4752
  5.5283   5.5472   5.5738   5.5835   5.5852   5.6198   5.6228   5.6685
  5.7136   5.7836   5.8620   5.9070   5.9290   6.0268   6.0961   6.3393
  6.3798   6.6102   6.7381   6.8624   6.9383   6.9958   7.0225   7.0416
  7.0926   7.1436   7.2244   7.2942   7.3229   7.3323   7.4161   7.4240
  7.5262   7.6253   7.6482   7.7343   7.7414   7.8217  24.4094  24.7506
 24.9741  25.0156  25.2384  50.6002  50.7041  50.7321
 --------------------------------------------------------------
 
          Ground-State Mulliken Net Atomic Charges

     Atom                 Charge (a.u.)
  ----------------------------------------
      1 H                     0.293454
      2 C                    -0.076950
      3 C                     0.029529
      4 H                     0.282242
      5 C                    -0.108033
      6 H                     0.215577
      7 C                     0.292519
      8 C                    -0.410567
      9 O                    -0.428059
     10 O                    -0.403436
     11 O                    -0.434831
     12 H                     0.204435
     13 H                     0.207198
     14 H                     0.336921
  ----------------------------------------
  Sum of atomic charges =     0.000000

 -----------------------------------------------------------------
                    Cartesian Multipole Moments
 -----------------------------------------------------------------
    Charge (ESU x 10^10)
                -0.0000
    Dipole Moment (Debye)
         X      -1.2785      Y      -5.3474      Z       1.1352
       Tot       5.6141
    Quadrupole Moments (Debye-Ang)
        XX     -59.7833     XY       9.4113     YY     -71.6122
        XZ       2.8507     YZ      -6.6857     ZZ     -45.7944
    Octopole Moments (Debye-Ang^2)
       XXX     -80.7346    XXY     -79.7192    XYY      21.6938
       YYY    -307.2795    XXZ      -9.7287    XYZ      -0.0768
       YYZ     -38.7328    XZZ     -24.8364    YZZ     -67.0772
       ZZZ     -50.2665
    Hexadecapole Moments (Debye-Ang^3)
      XXXX    -916.2170   XXXY     249.2897   XXYY    -451.9963
      XYYY     364.2238   YYYY   -1665.5118   XXXZ      98.1543
      XXYZ     -70.3032   XYYZ      51.8132   YYYZ    -199.8421
      XXZZ    -175.4051   XYZZ      58.7477   YYZZ    -236.8747
      XZZZ      78.0039   YZZZ    -123.7752   ZZZZ    -191.1587
 -----------------------------------------------------------------
 Calculating analytic gradient of the SCF energy
 Gradient of CDS energy
            1           2           3           4           5           6
    1   0.0000022  -0.0001698  -0.0002826  -0.0001690  -0.0012620   0.0001255
    2  -0.0001563  -0.0002859  -0.0003909  -0.0000170   0.0024568  -0.0001906
    3   0.0000864   0.0002424   0.0003788   0.0000884  -0.0003858   0.0001547
            7           8           9          10          11          12
    1   0.0009015   0.0022285  -0.0005556   0.0008888  -0.0017685  -0.0001820
    2   0.0015476  -0.0007222  -0.0010367  -0.0012571  -0.0002594   0.0001033
    3  -0.0001259  -0.0012352   0.0001577  -0.0002092   0.0008288  -0.0000376
           13          14
    1  -0.0001521   0.0003950
    2   0.0000799   0.0001285
    3   0.0002115  -0.0001550
 Gradient of SCF Energy
            1           2           3           4           5           6
    1  -0.0034902   0.0055940  -0.0002655  -0.0093179  -0.0028091   0.0031622
    2  -0.0176980  -0.0035205   0.0169845  -0.0033279  -0.0013489  -0.0017099
    3   0.0078366  -0.0015854  -0.0074455   0.0058558   0.0022858  -0.0039777
            7           8           9          10          11          12
    1  -0.0014104   0.0158173   0.0041691  -0.0007495   0.0013643  -0.0093655
    2  -0.0027238   0.0172758   0.0095559   0.0036859  -0.0078214  -0.0057038
    3  -0.0011992  -0.0068538   0.0010966   0.0009253  -0.0027989  -0.0050301
           13          14
    1  -0.0026417  -0.0000570
    2  -0.0083464   0.0046986
    3   0.0095258   0.0013648
 Max gradient component =       1.770E-02
 RMS gradient           =       7.058E-03
 Computing fast CPCM-SWIG gradient
 Updating gradient with PCM contributions...
 -- total gradient after adding PCM contribution --
---------------------------------------------------
  Atom         X              Y              Z     
---------------------------------------------------
   1      -0.000001      -0.000019       0.000003
   2      -0.000026      -0.000007      -0.000017
   3      -0.000025       0.000009      -0.000014
   4      -0.000015      -0.000013       0.000000
   5       0.000017      -0.000019       0.000012
   6       0.000036       0.000001       0.000006
   7      -0.000002       0.000007      -0.000008
   8      -0.000036      -0.000035       0.000006
   9       0.000020      -0.000011       0.000000
  10      -0.000028       0.000020      -0.000002
  11       0.000054       0.000005      -0.000024
  12      -0.000024       0.000003      -0.000003
  13      -0.000020      -0.000010       0.000019
  14       0.000050       0.000069       0.000021
---------------------------------------------------
 Number of fixed atoms: 0
 Gradient time:  CPU 139.49 s  wall 28.66 s
 ######################################################
 ######################################################
 # Starting finite difference calculation for IDERIV  #
 Finite diff step size:  1.88973e-03 a.u.
 ----------------------------------------------------------------
             Standard Nuclear Orientation (Angstroms)
    I     Atom           X                Y                Z
 ----------------------------------------------------------------
    1      H      -0.4480077689    -0.1954725624     1.5869302786
    2      C      -0.2357269497     0.7443865731     1.0926092196
    3      C      -1.1582782074     1.7045161843     1.0664649921
    4      H      -2.1028951860     1.5628637793     1.5770265813
    5      C      -1.0137061159     2.9875675837     0.3527368378
    6      H      -0.2343301186     3.0671195745    -0.4126681275
    7      C       1.0978091162     0.8499218405     0.4530494462
    8      C       1.6921717346    -0.4289824194    -0.0629329205
    9      O       1.7117974766     1.8975046854     0.3558536323
   10      O      -1.7562780241     3.9248790565     0.5779947930
   11      O       2.9440229668    -0.2114718826    -0.6746517761
   12      H       0.9895972431    -0.8772074613    -0.7709264113
   13      H       1.7812049548    -1.1167982730     0.7840300735
   14      H       3.1556190784     0.7260621214    -0.5517893190
 ----------------------------------------------------------------
 Nuclear Repulsion Energy =         343.75076381 hartrees
 There are       30 alpha and       30 beta electrons
 Discretize the solute cavity surface with Lebedev spheres
	Using 110 Lebedev grid points for each H atom
	Using 194 Lebedev grid points for other atoms
	Atomic van der Waals radii will be scaled by 1.20
 Remove points where switching function is < 1.0e-08
 Keep 1167 surface tesserae and discard 1045 interior tesserae
 Molecular Surface Area = 137.465 Angst**2

                       Distance Matrix (Angstroms)
             H (  1)   C (  2)   C (  3)   H (  4)   C (  5)   H (  6)
   C (  2)  1.082937
   C (  3)  2.094117  1.331778
   H (  4)  2.414642  2.095443  1.083070
   C (  5)  3.460490  2.486870  1.475307  2.171405
   H (  6)  3.832566  2.767842  2.213188  3.116602  1.095263
   C (  7)  2.183595  1.482732  2.489285  3.466427  3.006341  2.727641
   C (  8)  2.712369  2.535521  3.735294  4.589058  4.378056  4.007050
   O (  9)  3.249748  2.380198  2.963030  4.019344  2.935407  2.397089
   O ( 10)  4.439236  3.562645  2.350791  2.587919  1.216843  2.008355
   O ( 11)  4.076872  3.761341  4.850915  5.804283  5.191628  4.573809
   H ( 12)  2.844461  2.757490  3.828142  4.585885  4.495812  4.145366
   H ( 13)  2.542219  2.761747  4.084133  4.784942  4.984311  4.795794
   H ( 14)  4.290626  3.769033  4.710184  5.734463  4.828649  4.122094
             C (  7)   C (  8)   O (  9)   O ( 10)   O ( 11)   H ( 12)
   C (  8)  1.501699
   O (  9)  1.218137  2.363961
   O ( 10)  4.197236  5.590948  4.023325
   O ( 11)  2.409725  1.410192  2.651057  6.385245
   H ( 12)  2.119623  1.093513  3.080622  5.693808  2.066943
   H ( 13)  2.108214  1.094698  3.045353  6.162365  2.073527  1.761231
   H ( 14)  2.293387  1.927378  2.068989  5.969554  0.968937  2.703728
             H ( 13)
   H ( 14)  2.658865
 
 Requested basis set is 6-311++G(2df,2p)
 There are 100 shells and 332 basis functions
 A cutoff of  1.0D-12 yielded   4500 shell pairs
 There are     49315 function pairs (     61586 Cartesian)
 Smallest overlap matrix eigenvalue = 6.85E-06
 Guess MOs from SCF MO coefficient file

 -----------------------------------------------------------------------
  General SCF calculation program by
  Eric Jon Sundstrom, Paul Horn, Yuezhi Mao, Dmitri Zuev, Alec White,
  David Stuck, Shaama M.S., Shane Yost, Joonho Lee, David Small,
  Daniel Levine, Susi Lehtola, Hugh Burton, Evgeny Epifanovsky,
  Bang C. Huynh
 -----------------------------------------------------------------------
 Exchange:     0.1500 Hartree-Fock + 1.0000 wB97M-V + LR-HF
 Correlation:  1.0000 wB97M-V
 Using SG-2 standard quadrature grid
 Nonlocal Correlation:  VV10 with C = 0.0100 and b = 6.00 and scale = 1.00000
 Grid used for NLC:  SG-1 standard quadrature
 
 Citation of the SMD model:
 Marenich, A.V.; Cramer, C.J.; Truhlar, D.G.
 J. Phys. Chem. B 2009, 113, 6378-6396.
 iSolventCode=           1
 Solvent: water                                                           
 
 vradii
            1           2           3           4           5           6
    1   1.2000000   1.8500000   1.8500000   1.2000000   1.8500000   1.2000000
            7           8           9          10          11          12
    1   1.8500000   1.8500000   1.5200000   1.5200000   1.5200000   1.2000000
           13          14
    1   1.2000000   1.2000000
 -------------------------------------------------------
 OpenMP BLAS3 based DFT computing Module                
 Release: version 1.0, May 2013, Q-Chem Inc. Pittsburgh 
 -------------------------------------------------------
 A restricted SCF calculation will be
 performed using Roothaan-Hall, DIIS, GDM
 SCF converges when RMS gradient is below 1.0e-07
 ---------------------------------------
  Cycle       Energy         DIIS error
 ---------------------------------------
    1    -419.7572879751      5.15e-04  Roothaan Step
 ---------------------------------------
  Cycle       Energy         DIIS error
 ---------------------------------------
    1    -419.7810812443      7.19e-04  
    2    -419.7829858025      9.16e-04  Done DIIS. Switching to GDM
 ---------------------------------------
  Cycle       Energy        RMS Gradient
 ---------------------------------------
    1    -419.7829858025      3.14e-02   Normal BFGS step
    2    -419.7782782672      4.83e-02  Line search: overstep
    3    -419.7905508752      1.39e-03   Normal BFGS step
    4    -419.7908327553      2.32e-03   Normal BFGS step
    5    -419.7908668512      1.10e-03   Normal BFGS step
    6    -419.7908807447      1.99e-04   Normal BFGS step
    7    -419.7908812247      2.04e-04   Normal BFGS step
    8    -419.7908814055      2.40e-05   Normal BFGS step
    9    -419.7908814211      1.32e-05   Normal BFGS step
   10    -419.7908814253      4.86e-06   Normal BFGS step
   11    -419.7908814255      3.78e-06   Normal BFGS step
   12    -419.7908814257      9.14e-07   Normal BFGS step
   13    -419.7908814257      3.27e-07   Normal BFGS step
   14    -419.7908814257      1.69e-07   Normal BFGS step
   15    -419.7908814257      7.24e-08  Convergence criterion met
 ---------------------------------------
 SCF time:   CPU 1077.89s  wall 226.00s 
(3)  G-ENP(liq) elect-nuc-pol free energy of system     -419.790881426 a.u.
(4)  G-CDS(liq) cavity-dispersion-solvent structure 
     free energy                                                5.1019 kcal/mol
(6)  G-S(liq) free energy of system                     -419.782750952 a.u.
 SCF   energy in the final basis set =     -419.7827509520
 Total energy in the final basis set =     -419.7827509520
 
 --------------------------------------------------------------
 
                    Orbital Energies (a.u.)
 --------------------------------------------------------------
 
 Alpha MOs
 -- Occupied --
-19.3530 -19.3480 -19.3431 -10.4581 -10.4452 -10.3975 -10.3773 -10.3727
 -1.2100  -1.1930  -1.1585  -0.9481  -0.8683  -0.7824  -0.7178  -0.6753
 -0.6364  -0.6122  -0.5980  -0.5842  -0.5510  -0.5471  -0.5225  -0.5137
 -0.5012  -0.4803  -0.4052  -0.3964  -0.3897  -0.3744
 -- Virtual --
 -0.0170   0.0262   0.0396   0.0431   0.0527   0.0596   0.0651   0.0710
  0.0938   0.0952   0.1039   0.1144   0.1193   0.1336   0.1389   0.1424
  0.1518   0.1580   0.1683   0.1720   0.1747   0.1814   0.1877   0.1942
  0.2025   0.2088   0.2148   0.2223   0.2513   0.2550   0.2624   0.2811
  0.2841   0.2951   0.3053   0.3074   0.3170   0.3294   0.3389   0.3406
  0.3489   0.3534   0.3633   0.3678   0.3793   0.3884   0.3906   0.3980
  0.4307   0.4424   0.4597   0.4879   0.4960   0.5391   0.5536   0.5655
  0.5737   0.5960   0.6077   0.6111   0.6235   0.6341   0.6429   0.6544
  0.6572   0.6632   0.6771   0.6879   0.6982   0.7119   0.7165   0.7370
  0.7650   0.7782   0.7801   0.7898   0.8009   0.8253   0.8417   0.8484
  0.8604   0.8753   0.8828   0.9221   0.9438   0.9857   1.0027   1.0385
  1.0556   1.0581   1.0691   1.0867   1.1052   1.1110   1.1266   1.1452
  1.1505   1.1593   1.1727   1.1910   1.1986   1.2111   1.2192   1.2286
  1.2440   1.2611   1.2759   1.3082   1.3216   1.3372   1.3631   1.3899
  1.3977   1.4129   1.4315   1.4374   1.4490   1.4609   1.5004   1.5181
  1.5362   1.5399   1.5533   1.5943   1.6081   1.6307   1.6349   1.6726
  1.7008   1.7557   1.7608   1.7965   1.8409   1.8501   1.9056   1.9405
  1.9629   1.9897   2.0490   2.0890   2.1083   2.1251   2.2038   2.2263
  2.3661   2.3835   2.4129   2.5128   2.5213   2.5777   2.5988   2.6023
  2.6404   2.6871   2.7245   2.7540   2.7860   2.7991   2.8052   2.8165
  2.8433   2.8648   2.8885   2.9028   2.9097   2.9239   2.9422   2.9744
  2.9991   3.0360   3.0641   3.0741   3.1101   3.1297   3.1619   3.1697
  3.1988   3.2186   3.2431   3.2447   3.2768   3.2883   3.3101   3.3288
  3.3390   3.3529   3.3725   3.4178   3.4425   3.4599   3.4848   3.4867
  3.5044   3.5142   3.5257   3.5376   3.5799   3.6055   3.6327   3.6508
  3.6930   3.7020   3.7242   3.7553   3.7683   3.7921   3.8036   3.8268
  3.8477   3.8545   3.8820   3.9025   3.9363   3.9796   4.0133   4.0428
  4.0612   4.1024   4.1303   4.1512   4.1994   4.2250   4.2370   4.2458
  4.2570   4.2958   4.3238   4.3766   4.3963   4.4252   4.4382   4.5022
  4.5446   4.5632   4.5963   4.6448   4.6931   4.7607   4.8424   4.8457
  4.9301   5.0088   5.1659   5.1781   5.1890   5.2015   5.2062   5.2175
  5.2233   5.2465   5.2697   5.3162   5.3981   5.4067   5.4332   5.4752
  5.5285   5.5472   5.5738   5.5835   5.5853   5.6198   5.6227   5.6686
  5.7136   5.7837   5.8624   5.9070   5.9293   6.0268   6.0961   6.3394
  6.3798   6.6102   6.7381   6.8624   6.9383   6.9958   7.0225   7.0416
  7.0926   7.1436   7.2243   7.2942   7.3229   7.3323   7.4161   7.4240
  7.5262   7.6252   7.6482   7.7343   7.7414   7.8217  24.4096  24.7506
 24.9741  25.0157  25.2384  50.6002  50.7041  50.7321
 --------------------------------------------------------------
 
          Ground-State Mulliken Net Atomic Charges

     Atom                 Charge (a.u.)
  ----------------------------------------
      1 H                     0.293415
      2 C                    -0.077028
      3 C                     0.029287
      4 H                     0.282253
      5 C                    -0.108048
      6 H                     0.215583
      7 C                     0.292811
      8 C                    -0.410506
      9 O                    -0.428068
     10 O                    -0.403433
     11 O                    -0.434823
     12 H                     0.204431
     13 H                     0.207205
     14 H                     0.336922
  ----------------------------------------
  Sum of atomic charges =     0.000000

 -----------------------------------------------------------------
                    Cartesian Multipole Moments
 -----------------------------------------------------------------
    Charge (ESU x 10^10)
                -0.0000
    Dipole Moment (Debye)
         X      -1.2780      Y      -5.3475      Z       1.1354
       Tot       5.6141
    Quadrupole Moments (Debye-Ang)
        XX     -59.7846     XY       9.4099     YY     -71.6115
        XZ       2.8522     YZ      -6.6858     ZZ     -45.7938
    Octopole Moments (Debye-Ang^2)
       XXX     -80.7380    XXY     -79.7192    XYY      21.6906
       YYY    -307.2767    XXZ      -9.7303    XYZ      -0.0778
       YYZ     -38.7323    XZZ     -24.8343    YZZ     -67.0772
       ZZZ     -50.2644
    Hexadecapole Moments (Debye-Ang^3)
      XXXX    -916.2176   XXXY     249.2850   XXYY    -451.9954
      XYYY     364.2152   YYYY   -1665.4975   XXXZ      98.1518
      XXYZ     -70.3027   XYYZ      51.8115   YYYZ    -199.8415
      XXZZ    -175.4074   XYZZ      58.7463   YYZZ    -236.8735
      XZZZ      78.0059   YZZZ    -123.7753   ZZZZ    -191.1526
 -----------------------------------------------------------------
 Calculating analytic gradient of the SCF energy
 Gradient of CDS energy
            1           2           3           4           5           6
    1   0.0000025  -0.0001701  -0.0002826  -0.0001690  -0.0012620   0.0001255
    2  -0.0001561  -0.0002862  -0.0003908  -0.0000170   0.0024568  -0.0001906
    3   0.0000862   0.0002426   0.0003787   0.0000884  -0.0003858   0.0001547
            7           8           9          10          11          12
    1   0.0009016   0.0022285  -0.0005556   0.0008888  -0.0017685  -0.0001820
    2   0.0015476  -0.0007222  -0.0010367  -0.0012571  -0.0002594   0.0001033
    3  -0.0001260  -0.0012352   0.0001577  -0.0002092   0.0008288  -0.0000376
           13          14
    1  -0.0001521   0.0003950
    2   0.0000799   0.0001285
    3   0.0002115  -0.0001550
 Gradient of SCF Energy
            1           2           3           4           5           6
    1  -0.0033414   0.0054638  -0.0002579  -0.0093167  -0.0028107   0.0031617
    2  -0.0176166  -0.0036107   0.0170401  -0.0033300  -0.0013423  -0.0017101
    3   0.0077629  -0.0015227  -0.0074638   0.0058493   0.0022943  -0.0039789
            7           8           9          10          11          12
    1  -0.0014144   0.0158143   0.0041539  -0.0007514   0.0013644  -0.0093656
    2  -0.0027796   0.0172795   0.0095548   0.0036898  -0.0078206  -0.0057046
    3  -0.0011720  -0.0068563   0.0011005   0.0009229  -0.0027993  -0.0050301
           13          14
    1  -0.0026434  -0.0000567
    2  -0.0083471   0.0046974
    3   0.0095288   0.0013646
 Max gradient component =       1.762E-02
 RMS gradient           =       7.051E-03
 Computing fast CPCM-SWIG gradient
 Updating gradient with PCM contributions...
 -- total gradient after adding PCM contribution --
---------------------------------------------------
  Atom         X              Y              Z     
---------------------------------------------------
   1       0.000120       0.000071      -0.000071
   2      -0.000144      -0.000103       0.000053
   3      -0.000009       0.000053      -0.000034
   4      -0.000016      -0.000016      -0.000005
   5       0.000015      -0.000014       0.000022
   6       0.000036       0.000000       0.000005
   7      -0.000001      -0.000037       0.000014
   8      -0.000038      -0.000033       0.000005
   9       0.000005      -0.000013       0.000005
  10      -0.000030       0.000024      -0.000004
  11       0.000055       0.000006      -0.000025
  12      -0.000024       0.000002      -0.000003
  13      -0.000021      -0.000009       0.000020
  14       0.000050       0.000068       0.000020
---------------------------------------------------
 Number of fixed atoms: 0
 Gradient time:  CPU 138.89 s  wall 28.29 s
 ----------------------------------------------------------------
             Standard Nuclear Orientation (Angstroms)
    I     Atom           X                Y                Z
 ----------------------------------------------------------------
    1      H      -0.4500077689    -0.1954725624     1.5869302786
    2      C      -0.2357269497     0.7443865731     1.0926092196
    3      C      -1.1582782074     1.7045161843     1.0664649921
    4      H      -2.1028951860     1.5628637793     1.5770265813
    5      C      -1.0137061159     2.9875675837     0.3527368378
    6      H      -0.2343301186     3.0671195745    -0.4126681275
    7      C       1.0978091162     0.8499218405     0.4530494462
    8      C       1.6921717346    -0.4289824194    -0.0629329205
    9      O       1.7117974766     1.8975046854     0.3558536323
   10      O      -1.7562780241     3.9248790565     0.5779947930
   11      O       2.9440229668    -0.2114718826    -0.6746517761
   12      H       0.9895972431    -0.8772074613    -0.7709264113
   13      H       1.7812049548    -1.1167982730     0.7840300735
   14      H       3.1556190784     0.7260621214    -0.5517893190
 ----------------------------------------------------------------
 Nuclear Repulsion Energy =         343.74768452 hartrees
 There are       30 alpha and       30 beta electrons
 Discretize the solute cavity surface with Lebedev spheres
	Using 110 Lebedev grid points for each H atom
	Using 194 Lebedev grid points for other atoms
	Atomic van der Waals radii will be scaled by 1.20
 Remove points where switching function is < 1.0e-08
 Keep 1167 surface tesserae and discard 1045 interior tesserae
 Molecular Surface Area = 137.467 Angst**2

                       Distance Matrix (Angstroms)
             H (  1)   C (  2)   C (  3)   H (  4)   C (  5)   H (  6)
   C (  2)  1.083330
   C (  3)  2.093439  1.331778
   H (  4)  2.413272  2.095443  1.083070
   C (  5)  3.460164  2.486870  1.475307  2.171405
   H (  6)  3.832678  2.767842  2.213188  3.116602  1.095263
   C (  7)  2.185011  1.482732  2.489285  3.466427  3.006341  2.727641
   C (  8)  2.713947  2.535521  3.735294  4.589058  4.378056  4.007050
   O (  9)  3.251078  2.380198  2.963030  4.019344  2.935407  2.397089
   O ( 10)  4.438647  3.562645  2.350791  2.587919  1.216843  2.008355
   O ( 11)  4.078536  3.761341  4.850915  5.804283  5.191628  4.573809
   H ( 12)  2.845472  2.757490  3.828142  4.585885  4.495812  4.145366
   H ( 13)  2.543973  2.761747  4.084133  4.784942  4.984311  4.795794
   H ( 14)  4.292306  3.769033  4.710184  5.734463  4.828649  4.122094
             C (  7)   C (  8)   O (  9)   O ( 10)   O ( 11)   H ( 12)
   C (  8)  1.501699
   O (  9)  1.218137  2.363961
   O ( 10)  4.197236  5.590948  4.023325
   O ( 11)  2.409725  1.410192  2.651057  6.385245
   H ( 12)  2.119623  1.093513  3.080622  5.693808  2.066943
   H ( 13)  2.108214  1.094698  3.045353  6.162365  2.073527  1.761231
   H ( 14)  2.293387  1.927378  2.068989  5.969554  0.968937  2.703728
             H ( 13)
   H ( 14)  2.658865
 
 Requested basis set is 6-311++G(2df,2p)
 There are 100 shells and 332 basis functions
 A cutoff of  1.0D-12 yielded   4500 shell pairs
 There are     49315 function pairs (     61586 Cartesian)
 Smallest overlap matrix eigenvalue = 6.85E-06
 Guess MOs from SCF MO coefficient file

 -----------------------------------------------------------------------
  General SCF calculation program by
  Eric Jon Sundstrom, Paul Horn, Yuezhi Mao, Dmitri Zuev, Alec White,
  David Stuck, Shaama M.S., Shane Yost, Joonho Lee, David Small,
  Daniel Levine, Susi Lehtola, Hugh Burton, Evgeny Epifanovsky,
  Bang C. Huynh
 -----------------------------------------------------------------------
 Exchange:     0.1500 Hartree-Fock + 1.0000 wB97M-V + LR-HF
 Correlation:  1.0000 wB97M-V
 Using SG-2 standard quadrature grid
 Nonlocal Correlation:  VV10 with C = 0.0100 and b = 6.00 and scale = 1.00000
 Grid used for NLC:  SG-1 standard quadrature
 
 Citation of the SMD model:
 Marenich, A.V.; Cramer, C.J.; Truhlar, D.G.
 J. Phys. Chem. B 2009, 113, 6378-6396.
 iSolventCode=           1
 Solvent: water                                                           
 
 vradii
            1           2           3           4           5           6
    1   1.2000000   1.8500000   1.8500000   1.2000000   1.8500000   1.2000000
            7           8           9          10          11          12
    1   1.8500000   1.8500000   1.5200000   1.5200000   1.5200000   1.2000000
           13          14
    1   1.2000000   1.2000000
 -------------------------------------------------------
 OpenMP BLAS3 based DFT computing Module                
 Release: version 1.0, May 2013, Q-Chem Inc. Pittsburgh 
 -------------------------------------------------------
 A restricted SCF calculation will be
 performed using Roothaan-Hall, DIIS, GDM
 SCF converges when RMS gradient is below 1.0e-07
 ---------------------------------------
  Cycle       Energy         DIIS error
 ---------------------------------------
    1    -419.7572899348      5.15e-04  Roothaan Step
 ---------------------------------------
  Cycle       Energy         DIIS error
 ---------------------------------------
    1    -419.7810899980      7.18e-04  
    2    -419.7829947910      9.16e-04  Done DIIS. Switching to GDM
 ---------------------------------------
  Cycle       Energy        RMS Gradient
 ---------------------------------------
    1    -419.7829947910      3.14e-02   Normal BFGS step
    2    -419.7782911439      4.83e-02  Line search: overstep
    3    -419.7905511559      1.39e-03   Normal BFGS step
    4    -419.7908328441      2.31e-03   Normal BFGS step
    5    -419.7908668601      1.10e-03   Normal BFGS step
    6    -419.7908807343      1.98e-04   Normal BFGS step
    7    -419.7908812136      2.04e-04   Normal BFGS step
    8    -419.7908813937      2.39e-05   Normal BFGS step
    9    -419.7908814094      1.32e-05   Normal BFGS step
   10    -419.7908814135      4.88e-06   Normal BFGS step
   11    -419.7908814138      3.77e-06   Normal BFGS step
   12    -419.7908814139      9.16e-07   Normal BFGS step
   13    -419.7908814139      3.28e-07   Normal BFGS step
   14    -419.7908814139      1.72e-07   Normal BFGS step
   15    -419.7908814139      7.29e-08  Convergence criterion met
 ---------------------------------------
 SCF time:   CPU 1111.01s  wall 237.00s 
(3)  G-ENP(liq) elect-nuc-pol free energy of system     -419.790881414 a.u.
(4)  G-CDS(liq) cavity-dispersion-solvent structure 
     free energy                                                5.1019 kcal/mol
(6)  G-S(liq) free energy of system                     -419.782750946 a.u.
 SCF   energy in the final basis set =     -419.7827509464
 Total energy in the final basis set =     -419.7827509464
 
 --------------------------------------------------------------
 
                    Orbital Energies (a.u.)
 --------------------------------------------------------------
 
 Alpha MOs
 -- Occupied --
-19.3530 -19.3480 -19.3431 -10.4581 -10.4452 -10.3975 -10.3773 -10.3727
 -1.2100  -1.1930  -1.1585  -0.9481  -0.8683  -0.7823  -0.7179  -0.6753
 -0.6365  -0.6122  -0.5980  -0.5842  -0.5510  -0.5470  -0.5225  -0.5138
 -0.5012  -0.4803  -0.4052  -0.3964  -0.3897  -0.3744
 -- Virtual --
 -0.0170   0.0262   0.0396   0.0431   0.0527   0.0596   0.0651   0.0710
  0.0938   0.0952   0.1039   0.1144   0.1193   0.1336   0.1389   0.1424
  0.1518   0.1580   0.1683   0.1720   0.1747   0.1814   0.1877   0.1942
  0.2025   0.2088   0.2148   0.2222   0.2513   0.2549   0.2624   0.2811
  0.2841   0.2951   0.3053   0.3074   0.3170   0.3294   0.3389   0.3406
  0.3489   0.3534   0.3633   0.3677   0.3793   0.3884   0.3906   0.3980
  0.4306   0.4424   0.4597   0.4879   0.4959   0.5391   0.5536   0.5655
  0.5737   0.5960   0.6077   0.6111   0.6235   0.6341   0.6429   0.6544
  0.6572   0.6632   0.6771   0.6879   0.6981   0.7119   0.7165   0.7371
  0.7650   0.7782   0.7801   0.7898   0.8010   0.8252   0.8417   0.8483
  0.8604   0.8753   0.8828   0.9221   0.9437   0.9856   1.0029   1.0384
  1.0556   1.0581   1.0691   1.0867   1.1052   1.1110   1.1267   1.1452
  1.1505   1.1592   1.1726   1.1909   1.1986   1.2111   1.2192   1.2285
  1.2439   1.2611   1.2758   1.3082   1.3217   1.3371   1.3630   1.3901
  1.3977   1.4129   1.4315   1.4374   1.4491   1.4609   1.5004   1.5180
  1.5361   1.5399   1.5532   1.5942   1.6081   1.6304   1.6347   1.6725
  1.7007   1.7557   1.7608   1.7965   1.8408   1.8501   1.9056   1.9406
  1.9629   1.9898   2.0490   2.0890   2.1083   2.1253   2.2038   2.2263
  2.3662   2.3835   2.4130   2.5128   2.5214   2.5775   2.5989   2.6023
  2.6405   2.6870   2.7245   2.7540   2.7860   2.7991   2.8052   2.8165
  2.8433   2.8648   2.8885   2.9028   2.9097   2.9239   2.9422   2.9745
  2.9990   3.0361   3.0641   3.0742   3.1100   3.1296   3.1619   3.1698
  3.1990   3.2186   3.2431   3.2447   3.2770   3.2883   3.3102   3.3287
  3.3391   3.3530   3.3726   3.4177   3.4424   3.4598   3.4847   3.4866
  3.5044   3.5141   3.5256   3.5376   3.5800   3.6054   3.6328   3.6505
  3.6929   3.7020   3.7242   3.7552   3.7683   3.7920   3.8035   3.8268
  3.8474   3.8544   3.8817   3.9028   3.9366   3.9796   4.0133   4.0429
  4.0611   4.1024   4.1302   4.1513   4.1995   4.2248   4.2371   4.2456
  4.2569   4.2960   4.3235   4.3766   4.3959   4.4251   4.4381   4.5022
  4.5444   4.5628   4.5961   4.6446   4.6930   4.7605   4.8424   4.8458
  4.9308   5.0087   5.1659   5.1781   5.1890   5.2015   5.2062   5.2173
  5.2232   5.2463   5.2696   5.3162   5.3980   5.4067   5.4331   5.4752
  5.5280   5.5473   5.5738   5.5835   5.5852   5.6198   5.6229   5.6684
  5.7136   5.7835   5.8617   5.9069   5.9287   6.0268   6.0961   6.3393
  6.3798   6.6103   6.7381   6.8625   6.9383   6.9958   7.0225   7.0416
  7.0926   7.1436   7.2244   7.2942   7.3229   7.3323   7.4161   7.4240
  7.5262   7.6253   7.6482   7.7343   7.7414   7.8217  24.4092  24.7506
 24.9741  25.0156  25.2383  50.6002  50.7041  50.7321
 --------------------------------------------------------------
 
          Ground-State Mulliken Net Atomic Charges

     Atom                 Charge (a.u.)
  ----------------------------------------
      1 H                     0.293493
      2 C                    -0.076872
      3 C                     0.029772
      4 H                     0.282230
      5 C                    -0.108017
      6 H                     0.215571
      7 C                     0.292228
      8 C                    -0.410628
      9 O                    -0.428050
     10 O                    -0.403438
     11 O                    -0.434839
     12 H                     0.204439
     13 H                     0.207192
     14 H                     0.336919
  ----------------------------------------
  Sum of atomic charges =     0.000000

 -----------------------------------------------------------------
                    Cartesian Multipole Moments
 -----------------------------------------------------------------
    Charge (ESU x 10^10)
                -0.0000
    Dipole Moment (Debye)
         X      -1.2790      Y      -5.3474      Z       1.1350
       Tot       5.6142
    Quadrupole Moments (Debye-Ang)
        XX     -59.7820     XY       9.4126     YY     -71.6129
        XZ       2.8491     YZ      -6.6857     ZZ     -45.7951
    Octopole Moments (Debye-Ang^2)
       XXX     -80.7311    XXY     -79.7193    XYY      21.6971
       YYY    -307.2824    XXZ      -9.7270    XYZ      -0.0758
       YYZ     -38.7332    XZZ     -24.8386    YZZ     -67.0772
       ZZZ     -50.2685
    Hexadecapole Moments (Debye-Ang^3)
      XXXX    -916.2164   XXXY     249.2943   XXYY    -451.9973
      XYYY     364.2324   YYYY   -1665.5262   XXXZ      98.1569
      XXYZ     -70.3036   XYYZ      51.8149   YYYZ    -199.8427
      XXZZ    -175.4028   XYZZ      58.7491   YYZZ    -236.8759
      XZZZ      78.0020   YZZZ    -123.7751   ZZZZ    -191.1648
 -----------------------------------------------------------------
 Calculating analytic gradient of the SCF energy
 Gradient of CDS energy
            1           2           3           4           5           6
    1  -0.0000003  -0.0001666  -0.0002833  -0.0001690  -0.0012620   0.0001255
    2  -0.0001562  -0.0002843  -0.0003925  -0.0000170   0.0024568  -0.0001906
    3   0.0000874   0.0002405   0.0003797   0.0000884  -0.0003858   0.0001547
            7           8           9          10          11          12
    1   0.0009014   0.0022285  -0.0005556   0.0008888  -0.0017685  -0.0001820
    2   0.0015476  -0.0007222  -0.0010367  -0.0012571  -0.0002594   0.0001033
    3  -0.0001259  -0.0012352   0.0001577  -0.0002092   0.0008288  -0.0000376
           13          14
    1  -0.0001520   0.0003950
    2   0.0000799   0.0001285
    3   0.0002115  -0.0001550
 Gradient of SCF Energy
            1           2           3           4           5           6
    1  -0.0036414   0.0057273  -0.0002739  -0.0093190  -0.0028075   0.0031628
    2  -0.0177791  -0.0034289   0.0169273  -0.0033259  -0.0013554  -0.0017097
    3   0.0079111  -0.0016499  -0.0074263   0.0058622   0.0022773  -0.0039766
            7           8           9          10          11          12
    1  -0.0014065   0.0158203   0.0041843  -0.0007476   0.0013642  -0.0093655
    2  -0.0026682   0.0172720   0.0095571   0.0036819  -0.0078221  -0.0057030
    3  -0.0012264  -0.0068512   0.0010927   0.0009277  -0.0027986  -0.0050301
           13          14
    1  -0.0026400  -0.0000572
    2  -0.0083458   0.0046998
    3   0.0095228   0.0013651
 Max gradient component =       1.778E-02
 RMS gradient           =       7.064E-03
 Computing fast CPCM-SWIG gradient
 Updating gradient with PCM contributions...
 -- total gradient after adding PCM contribution --
---------------------------------------------------
  Atom         X              Y              Z     
---------------------------------------------------
   1      -0.000124      -0.000109       0.000078
   2       0.000095       0.000091      -0.000088
   3      -0.000042      -0.000036       0.000007
   4      -0.000014      -0.000010       0.000006
   5       0.000018      -0.000024       0.000003
   6       0.000037       0.000001       0.000007
   7      -0.000003       0.000052      -0.000029
   8      -0.000035      -0.000036       0.000007
   9       0.000035      -0.000010      -0.000004
  10      -0.000026       0.000016       0.000000
  11       0.000054       0.000005      -0.000024
  12      -0.000024       0.000003      -0.000003
  13      -0.000019      -0.000011       0.000019
  14       0.000050       0.000070       0.000021
---------------------------------------------------
 Number of fixed atoms: 0
 Gradient time:  CPU 140.65 s  wall 26.92 s
 ----------------------------------------------------------------
             Standard Nuclear Orientation (Angstroms)
    I     Atom           X                Y                Z
 ----------------------------------------------------------------
    1      H      -0.4490077689    -0.1944725624     1.5869302786
    2      C      -0.2357269497     0.7443865731     1.0926092196
    3      C      -1.1582782074     1.7045161843     1.0664649921
    4      H      -2.1028951860     1.5628637793     1.5770265813
    5      C      -1.0137061159     2.9875675837     0.3527368378
    6      H      -0.2343301186     3.0671195745    -0.4126681275
    7      C       1.0978091162     0.8499218405     0.4530494462
    8      C       1.6921717346    -0.4289824194    -0.0629329205
    9      O       1.7117974766     1.8975046854     0.3558536323
   10      O      -1.7562780241     3.9248790565     0.5779947930
   11      O       2.9440229668    -0.2114718826    -0.6746517761
   12      H       0.9895972431    -0.8772074613    -0.7709264113
   13      H       1.7812049548    -1.1167982730     0.7840300735
   14      H       3.1556190784     0.7260621214    -0.5517893190
 ----------------------------------------------------------------
 Nuclear Repulsion Energy =         343.75327200 hartrees
 There are       30 alpha and       30 beta electrons
 Discretize the solute cavity surface with Lebedev spheres
	Using 110 Lebedev grid points for each H atom
	Using 194 Lebedev grid points for other atoms
	Atomic van der Waals radii will be scaled by 1.20
 Remove points where switching function is < 1.0e-08
 Keep 1167 surface tesserae and discard 1045 interior tesserae
 Molecular Surface Area = 137.461 Angst**2

                       Distance Matrix (Angstroms)
             H (  1)   C (  2)   C (  3)   H (  4)   C (  5)   H (  6)
   C (  2)  1.082265
   C (  3)  2.092870  1.331778
   H (  4)  2.413229  2.095443  1.083070
   C (  5)  3.459407  2.486870  1.475307  2.171405
   H (  6)  3.831770  2.767842  2.213188  3.116602  1.095263
   C (  7)  2.183824  1.482732  2.489285  3.466427  3.006341  2.727641
   C (  8)  2.713244  2.535521  3.735294  4.589058  4.378056  4.007050
   O (  9)  3.249769  2.380198  2.963030  4.019344  2.935407  2.397089
   O ( 10)  4.438014  3.562645  2.350791  2.587919  1.216843  2.008355
   O ( 11)  4.077708  3.761341  4.850915  5.804283  5.191628  4.573809
   H ( 12)  2.845206  2.757490  3.828142  4.585885  4.495812  4.145366
   H ( 13)  2.543459  2.761747  4.084133  4.784942  4.984311  4.795794
   H ( 14)  4.291252  3.769033  4.710184  5.734463  4.828649  4.122094
             C (  7)   C (  8)   O (  9)   O ( 10)   O ( 11)   H ( 12)
   C (  8)  1.501699
   O (  9)  1.218137  2.363961
   O ( 10)  4.197236  5.590948  4.023325
   O ( 11)  2.409725  1.410192  2.651057  6.385245
   H ( 12)  2.119623  1.093513  3.080622  5.693808  2.066943
   H ( 13)  2.108214  1.094698  3.045353  6.162365  2.073527  1.761231
   H ( 14)  2.293387  1.927378  2.068989  5.969554  0.968937  2.703728
             H ( 13)
   H ( 14)  2.658865
 
 Requested basis set is 6-311++G(2df,2p)
 There are 100 shells and 332 basis functions
 A cutoff of  1.0D-12 yielded   4500 shell pairs
 There are     49315 function pairs (     61586 Cartesian)
 Smallest overlap matrix eigenvalue = 6.85E-06
 Guess MOs from SCF MO coefficient file

 -----------------------------------------------------------------------
  General SCF calculation program by
  Eric Jon Sundstrom, Paul Horn, Yuezhi Mao, Dmitri Zuev, Alec White,
  David Stuck, Shaama M.S., Shane Yost, Joonho Lee, David Small,
  Daniel Levine, Susi Lehtola, Hugh Burton, Evgeny Epifanovsky,
  Bang C. Huynh
 -----------------------------------------------------------------------
 Exchange:     0.1500 Hartree-Fock + 1.0000 wB97M-V + LR-HF
 Correlation:  1.0000 wB97M-V
 Using SG-2 standard quadrature grid
 Nonlocal Correlation:  VV10 with C = 0.0100 and b = 6.00 and scale = 1.00000
 Grid used for NLC:  SG-1 standard quadrature
 
 Citation of the SMD model:
 Marenich, A.V.; Cramer, C.J.; Truhlar, D.G.
 J. Phys. Chem. B 2009, 113, 6378-6396.
 iSolventCode=           1
 Solvent: water                                                           
 
 vradii
            1           2           3           4           5           6
    1   1.2000000   1.8500000   1.8500000   1.2000000   1.8500000   1.2000000
            7           8           9          10          11          12
    1   1.8500000   1.8500000   1.5200000   1.5200000   1.5200000   1.2000000
           13          14
    1   1.2000000   1.2000000
 -------------------------------------------------------
 OpenMP BLAS3 based DFT computing Module                
 Release: version 1.0, May 2013, Q-Chem Inc. Pittsburgh 
 -------------------------------------------------------
 A restricted SCF calculation will be
 performed using Roothaan-Hall, DIIS, GDM
 SCF converges when RMS gradient is below 1.0e-07
 ---------------------------------------
  Cycle       Energy         DIIS error
 ---------------------------------------
    1    -419.7572918321      5.15e-04  Roothaan Step
 ---------------------------------------
  Cycle       Energy         DIIS error
 ---------------------------------------
    1    -419.7810739381      7.19e-04  
    2    -419.7829788133      9.16e-04  Done DIIS. Switching to GDM
 ---------------------------------------
  Cycle       Energy        RMS Gradient
 ---------------------------------------
    1    -419.7829788133      3.14e-02   Normal BFGS step
    2    -419.7782689984      4.83e-02  Line search: overstep
    3    -419.7905500021      1.40e-03   Normal BFGS step
    4    -419.7908320300      2.32e-03   Normal BFGS step
    5    -419.7908661896      1.10e-03   Normal BFGS step
    6    -419.7908800945      1.99e-04   Normal BFGS step
    7    -419.7908805749      2.05e-04   Normal BFGS step
    8    -419.7908807561      2.41e-05   Normal BFGS step
    9    -419.7908807718      1.32e-05   Normal BFGS step
   10    -419.7908807759      4.86e-06   Normal BFGS step
   11    -419.7908807762      3.78e-06   Normal BFGS step
   12    -419.7908807764      9.14e-07   Normal BFGS step
   13    -419.7908807764      3.27e-07   Normal BFGS step
   14    -419.7908807764      1.70e-07   Normal BFGS step
   15    -419.7908807764      7.25e-08  Convergence criterion met
 ---------------------------------------
 SCF time:   CPU 1074.70s  wall 211.00s 
(3)  G-ENP(liq) elect-nuc-pol free energy of system     -419.790880776 a.u.
(4)  G-CDS(liq) cavity-dispersion-solvent structure 
     free energy                                                5.1018 kcal/mol
(6)  G-S(liq) free energy of system                     -419.782750602 a.u.
 SCF   energy in the final basis set =     -419.7827506018
 Total energy in the final basis set =     -419.7827506018
 
 --------------------------------------------------------------
 
                    Orbital Energies (a.u.)
 --------------------------------------------------------------
 
 Alpha MOs
 -- Occupied --
-19.3530 -19.3480 -19.3431 -10.4581 -10.4452 -10.3975 -10.3772 -10.3727
 -1.2100  -1.1930  -1.1585  -0.9481  -0.8683  -0.7824  -0.7179  -0.6753
 -0.6365  -0.6122  -0.5980  -0.5842  -0.5510  -0.5471  -0.5225  -0.5138
 -0.5012  -0.4803  -0.4052  -0.3964  -0.3897  -0.3744
 -- Virtual --
 -0.0170   0.0262   0.0396   0.0431   0.0527   0.0596   0.0650   0.0710
  0.0938   0.0952   0.1039   0.1144   0.1193   0.1336   0.1389   0.1424
  0.1518   0.1580   0.1683   0.1720   0.1747   0.1814   0.1877   0.1942
  0.2025   0.2088   0.2149   0.2223   0.2513   0.2550   0.2624   0.2811
  0.2841   0.2951   0.3053   0.3074   0.3170   0.3294   0.3389   0.3406
  0.3489   0.3535   0.3633   0.3679   0.3793   0.3884   0.3906   0.3980
  0.4307   0.4424   0.4597   0.4879   0.4959   0.5391   0.5536   0.5656
  0.5738   0.5960   0.6077   0.6111   0.6235   0.6341   0.6429   0.6544
  0.6572   0.6632   0.6771   0.6879   0.6982   0.7119   0.7165   0.7371
  0.7650   0.7783   0.7802   0.7898   0.8009   0.8252   0.8417   0.8483
  0.8605   0.8753   0.8828   0.9221   0.9438   0.9857   1.0029   1.0385
  1.0556   1.0581   1.0691   1.0867   1.1053   1.1110   1.1267   1.1452
  1.1505   1.1592   1.1727   1.1909   1.1986   1.2112   1.2192   1.2285
  1.2439   1.2611   1.2759   1.3082   1.3217   1.3372   1.3631   1.3901
  1.3978   1.4129   1.4315   1.4374   1.4491   1.4610   1.5006   1.5181
  1.5362   1.5399   1.5533   1.5943   1.6081   1.6306   1.6349   1.6726
  1.7008   1.7557   1.7608   1.7965   1.8409   1.8500   1.9056   1.9406
  1.9629   1.9899   2.0490   2.0890   2.1083   2.1252   2.2038   2.2263
  2.3662   2.3835   2.4129   2.5128   2.5213   2.5775   2.5989   2.6022
  2.6404   2.6870   2.7245   2.7540   2.7859   2.7992   2.8053   2.8165
  2.8433   2.8648   2.8885   2.9028   2.9097   2.9239   2.9423   2.9745
  2.9991   3.0361   3.0641   3.0742   3.1101   3.1297   3.1619   3.1698
  3.1990   3.2186   3.2432   3.2447   3.2769   3.2883   3.3101   3.3288
  3.3390   3.3530   3.3725   3.4178   3.4424   3.4599   3.4847   3.4867
  3.5044   3.5142   3.5256   3.5378   3.5799   3.6055   3.6327   3.6505
  3.6930   3.7021   3.7242   3.7553   3.7683   3.7922   3.8036   3.8269
  3.8477   3.8545   3.8821   3.9026   3.9367   3.9796   4.0133   4.0429
  4.0612   4.1025   4.1302   4.1513   4.1996   4.2251   4.2371   4.2458
  4.2570   4.2961   4.3238   4.3768   4.3962   4.4253   4.4386   4.5023
  4.5449   4.5631   4.5964   4.6448   4.6931   4.7607   4.8425   4.8459
  4.9312   5.0089   5.1660   5.1781   5.1890   5.2015   5.2062   5.2175
  5.2233   5.2468   5.2697   5.3162   5.3981   5.4067   5.4332   5.4754
  5.5284   5.5474   5.5738   5.5835   5.5853   5.6199   5.6231   5.6687
  5.7136   5.7837   5.8625   5.9070   5.9294   6.0270   6.0965   6.3394
  6.3798   6.6103   6.7382   6.8625   6.9383   6.9958   7.0225   7.0416
  7.0926   7.1436   7.2244   7.2942   7.3229   7.3323   7.4161   7.4241
  7.5262   7.6253   7.6482   7.7343   7.7414   7.8217  24.4102  24.7506
 24.9742  25.0158  25.2387  50.6002  50.7041  50.7321
 --------------------------------------------------------------
 
          Ground-State Mulliken Net Atomic Charges

     Atom                 Charge (a.u.)
  ----------------------------------------
      1 H                     0.293586
      2 C                    -0.077582
      3 C                     0.029929
      4 H                     0.282241
      5 C                    -0.108143
      6 H                     0.215568
      7 C                     0.292623
      8 C                    -0.410443
      9 O                    -0.428047
     10 O                    -0.403446
     11 O                    -0.434826
     12 H                     0.204420
     13 H                     0.207198
     14 H                     0.336923
  ----------------------------------------
  Sum of atomic charges =     0.000000

 -----------------------------------------------------------------
                    Cartesian Multipole Moments
 -----------------------------------------------------------------
    Charge (ESU x 10^10)
                -0.0000
    Dipole Moment (Debye)
         X      -1.2783      Y      -5.3473      Z       1.1354
       Tot       5.6140
    Quadrupole Moments (Debye-Ang)
        XX     -59.7827     XY       9.4115     YY     -71.6136
        XZ       2.8508     YZ      -6.6849     ZZ     -45.7928
    Octopole Moments (Debye-Ang^2)
       XXX     -80.7345    XXY     -79.7210    XYY      21.6960
       YYY    -307.2865    XXZ      -9.7277    XYZ      -0.0769
       YYZ     -38.7338    XZZ     -24.8366    YZZ     -67.0763
       ZZZ     -50.2605
    Hexadecapole Moments (Debye-Ang^3)
      XXXX    -916.2167   XXXY     249.2934   XXYY    -451.9994
      XYYY     364.2320   YYYY   -1665.5304   XXXZ      98.1539
      XXYZ     -70.3053   XYYZ      51.8151   YYYZ    -199.8478
      XXZZ    -175.4030   XYZZ      58.7479   YYZZ    -236.8759
      XZZZ      78.0027   YZZZ    -123.7754   ZZZZ    -191.1401
 -----------------------------------------------------------------
 Calculating analytic gradient of the SCF energy
 Gradient of CDS energy
            1           2           3           4           5           6
    1   0.0000025  -0.0001701  -0.0002826  -0.0001690  -0.0012620   0.0001255
    2  -0.0001555  -0.0002866  -0.0003909  -0.0000170   0.0024568  -0.0001906
    3   0.0000859   0.0002429   0.0003788   0.0000884  -0.0003858   0.0001547
            7           8           9          10          11          12
    1   0.0009016   0.0022284  -0.0005556   0.0008888  -0.0017685  -0.0001820
    2   0.0015476  -0.0007223  -0.0010367  -0.0012571  -0.0002594   0.0001033
    3  -0.0001259  -0.0012352   0.0001577  -0.0002092   0.0008288  -0.0000376
           13          14
    1  -0.0001520   0.0003950
    2   0.0000799   0.0001285
    3   0.0002115  -0.0001550
 Gradient of SCF Energy
            1           2           3           4           5           6
    1  -0.0034085   0.0055102  -0.0002686  -0.0093217  -0.0028016   0.0031612
    2  -0.0171623  -0.0040224   0.0169454  -0.0033281  -0.0013402  -0.0017111
    3   0.0075990  -0.0013762  -0.0074182   0.0058521   0.0022898  -0.0039779
            7           8           9          10          11          12
    1  -0.0014047   0.0158119   0.0041705  -0.0007495   0.0013634  -0.0093658
    2  -0.0027211   0.0172716   0.0095585   0.0036818  -0.0078213  -0.0057040
    3  -0.0012007  -0.0068503   0.0010980   0.0009242  -0.0027989  -0.0050305
           13          14
    1  -0.0026398  -0.0000568
    2  -0.0083459   0.0046990
    3   0.0095248   0.0013649
 Max gradient component =       1.727E-02
 RMS gradient           =       7.019E-03
 Computing fast CPCM-SWIG gradient
 Updating gradient with PCM contributions...
 -- total gradient after adding PCM contribution --
---------------------------------------------------
  Atom         X              Y              Z     
---------------------------------------------------
   1       0.000090       0.000509      -0.000243
   2      -0.000114      -0.000514       0.000206
   3      -0.000032      -0.000019       0.000010
   4      -0.000018      -0.000013      -0.000005
   5       0.000024      -0.000012       0.000017
   6       0.000036      -0.000000       0.000005
   7      -0.000003       0.000010      -0.000008
   8      -0.000036      -0.000036       0.000007
   9       0.000021      -0.000009       0.000002
  10      -0.000028       0.000016      -0.000003
  11       0.000054       0.000006      -0.000024
  12      -0.000025       0.000002      -0.000003
  13      -0.000019      -0.000010       0.000018
  14       0.000050       0.000069       0.000020
---------------------------------------------------
 Number of fixed atoms: 0
 Gradient time:  CPU 148.29 s  wall 13.97 s
 ----------------------------------------------------------------
             Standard Nuclear Orientation (Angstroms)
    I     Atom           X                Y                Z
 ----------------------------------------------------------------
    1      H      -0.4490077689    -0.1964725624     1.5869302786
    2      C      -0.2357269497     0.7443865731     1.0926092196
    3      C      -1.1582782074     1.7045161843     1.0664649921
    4      H      -2.1028951860     1.5628637793     1.5770265813
    5      C      -1.0137061159     2.9875675837     0.3527368378
    6      H      -0.2343301186     3.0671195745    -0.4126681275
    7      C       1.0978091162     0.8499218405     0.4530494462
    8      C       1.6921717346    -0.4289824194    -0.0629329205
    9      O       1.7117974766     1.8975046854     0.3558536323
   10      O      -1.7562780241     3.9248790565     0.5779947930
   11      O       2.9440229668    -0.2114718826    -0.6746517761
   12      H       0.9895972431    -0.8772074613    -0.7709264113
   13      H       1.7812049548    -1.1167982730     0.7840300735
   14      H       3.1556190784     0.7260621214    -0.5517893190
 ----------------------------------------------------------------
 Nuclear Repulsion Energy =         343.74518198 hartrees
 There are       30 alpha and       30 beta electrons
 Discretize the solute cavity surface with Lebedev spheres
	Using 110 Lebedev grid points for each H atom
	Using 194 Lebedev grid points for other atoms
	Atomic van der Waals radii will be scaled by 1.20
 Remove points where switching function is < 1.0e-08
 Keep 1167 surface tesserae and discard 1045 interior tesserae
 Molecular Surface Area = 137.471 Angst**2

                       Distance Matrix (Angstroms)
             H (  1)   C (  2)   C (  3)   H (  4)   C (  5)   H (  6)
   C (  2)  1.084001
   C (  3)  2.094685  1.331778
   H (  4)  2.414685  2.095443  1.083070
   C (  5)  3.461247  2.486870  1.475307  2.171405
   H (  6)  3.833473  2.767842  2.213188  3.116602  1.095263
   C (  7)  2.184781  1.482732  2.489285  3.466427  3.006341  2.727641
   C (  8)  2.713072  2.535521  3.735294  4.589058  4.378056  4.007050
   O (  9)  3.251057  2.380198  2.963030  4.019344  2.935407  2.397089
   O ( 10)  4.439870  3.562645  2.350791  2.587919  1.216843  2.008355
   O ( 11)  4.077700  3.761341  4.850915  5.804283  5.191628  4.573809
   H ( 12)  2.844727  2.757490  3.828142  4.585885  4.495812  4.145366
   H ( 13)  2.542734  2.761747  4.084133  4.784942  4.984311  4.795794
   H ( 14)  4.291681  3.769033  4.710184  5.734463  4.828649  4.122094
             C (  7)   C (  8)   O (  9)   O ( 10)   O ( 11)   H ( 12)
   C (  8)  1.501699
   O (  9)  1.218137  2.363961
   O ( 10)  4.197236  5.590948  4.023325
   O ( 11)  2.409725  1.410192  2.651057  6.385245
   H ( 12)  2.119623  1.093513  3.080622  5.693808  2.066943
   H ( 13)  2.108214  1.094698  3.045353  6.162365  2.073527  1.761231
   H ( 14)  2.293387  1.927378  2.068989  5.969554  0.968937  2.703728
             H ( 13)
   H ( 14)  2.658865
 
 Requested basis set is 6-311++G(2df,2p)
 There are 100 shells and 332 basis functions
 A cutoff of  1.0D-12 yielded   4500 shell pairs
 There are     49315 function pairs (     61586 Cartesian)
 Smallest overlap matrix eigenvalue = 6.85E-06
 Guess MOs from SCF MO coefficient file

 -----------------------------------------------------------------------
  General SCF calculation program by
  Eric Jon Sundstrom, Paul Horn, Yuezhi Mao, Dmitri Zuev, Alec White,
  David Stuck, Shaama M.S., Shane Yost, Joonho Lee, David Small,
  Daniel Levine, Susi Lehtola, Hugh Burton, Evgeny Epifanovsky,
  Bang C. Huynh
 -----------------------------------------------------------------------
 Exchange:     0.1500 Hartree-Fock + 1.0000 wB97M-V + LR-HF
 Correlation:  1.0000 wB97M-V
 Using SG-2 standard quadrature grid
 Nonlocal Correlation:  VV10 with C = 0.0100 and b = 6.00 and scale = 1.00000
 Grid used for NLC:  SG-1 standard quadrature
 
 Citation of the SMD model:
 Marenich, A.V.; Cramer, C.J.; Truhlar, D.G.
 J. Phys. Chem. B 2009, 113, 6378-6396.
 iSolventCode=           1
 Solvent: water                                                           
 
 vradii
            1           2           3           4           5           6
    1   1.2000000   1.8500000   1.8500000   1.2000000   1.8500000   1.2000000
            7           8           9          10          11          12
    1   1.8500000   1.8500000   1.5200000   1.5200000   1.5200000   1.2000000
           13          14
    1   1.2000000   1.2000000
 -------------------------------------------------------
 OpenMP BLAS3 based DFT computing Module                
 Release: version 1.0, May 2013, Q-Chem Inc. Pittsburgh 
 -------------------------------------------------------
 A restricted SCF calculation will be
 performed using Roothaan-Hall, DIIS, GDM
 SCF converges when RMS gradient is below 1.0e-07
 ---------------------------------------
  Cycle       Energy         DIIS error
 ---------------------------------------
    1    -419.7572822565      5.15e-04  Roothaan Step
 ---------------------------------------
  Cycle       Energy         DIIS error
 ---------------------------------------
    1    -419.7810990536      7.18e-04  
    2    -419.7830026960      9.15e-04  Done DIIS. Switching to GDM
 ---------------------------------------
  Cycle       Energy        RMS Gradient
 ---------------------------------------
    1    -419.7830026960      3.14e-02   Normal BFGS step
    2    -419.7783017246      4.83e-02  Line search: overstep
    3    -419.7905513608      1.39e-03   Normal BFGS step
    4    -419.7908328278      2.30e-03   Normal BFGS step
    5    -419.7908667594      1.10e-03   Normal BFGS step
    6    -419.7908806171      1.98e-04   Normal BFGS step
    7    -419.7908810963      2.04e-04   Normal BFGS step
    8    -419.7908812759      2.39e-05   Normal BFGS step
    9    -419.7908812915      1.32e-05   Normal BFGS step
   10    -419.7908812956      4.87e-06   Normal BFGS step
   11    -419.7908812958      3.76e-06   Normal BFGS step
   12    -419.7908812960      9.15e-07   Normal BFGS step
   13    -419.7908812960      3.27e-07   Normal BFGS step
   14    -419.7908812960      1.68e-07   Normal BFGS step
   15    -419.7908812960      7.22e-08  Convergence criterion met
 ---------------------------------------
 SCF time:   CPU 736.23s  wall 56.00s 
(3)  G-ENP(liq) elect-nuc-pol free energy of system     -419.790881296 a.u.
(4)  G-CDS(liq) cavity-dispersion-solvent structure 
     free energy                                                5.1021 kcal/mol
(6)  G-S(liq) free energy of system                     -419.782750531 a.u.
 SCF   energy in the final basis set =     -419.7827505306
 Total energy in the final basis set =     -419.7827505306
 
 --------------------------------------------------------------
 
                    Orbital Energies (a.u.)
 --------------------------------------------------------------
 
 Alpha MOs
 -- Occupied --
-19.3530 -19.3480 -19.3431 -10.4581 -10.4452 -10.3975 -10.3774 -10.3727
 -1.2100  -1.1930  -1.1585  -0.9480  -0.8683  -0.7823  -0.7178  -0.6753
 -0.6364  -0.6122  -0.5979  -0.5842  -0.5510  -0.5470  -0.5225  -0.5137
 -0.5012  -0.4803  -0.4052  -0.3964  -0.3897  -0.3744
 -- Virtual --
 -0.0170   0.0262   0.0396   0.0431   0.0527   0.0596   0.0651   0.0710
  0.0938   0.0952   0.1039   0.1144   0.1193   0.1336   0.1389   0.1424
  0.1518   0.1580   0.1683   0.1720   0.1747   0.1814   0.1877   0.1942
  0.2025   0.2088   0.2148   0.2222   0.2513   0.2549   0.2624   0.2811
  0.2841   0.2951   0.3053   0.3074   0.3170   0.3294   0.3389   0.3406
  0.3489   0.3534   0.3633   0.3677   0.3793   0.3884   0.3906   0.3980
  0.4306   0.4424   0.4597   0.4879   0.4960   0.5391   0.5536   0.5655
  0.5737   0.5960   0.6077   0.6111   0.6235   0.6341   0.6429   0.6544
  0.6572   0.6632   0.6771   0.6879   0.6981   0.7119   0.7165   0.7370
  0.7650   0.7782   0.7800   0.7898   0.8010   0.8253   0.8416   0.8484
  0.8604   0.8753   0.8828   0.9221   0.9437   0.9856   1.0027   1.0384
  1.0556   1.0581   1.0691   1.0867   1.1052   1.1110   1.1266   1.1452
  1.1505   1.1592   1.1726   1.1909   1.1986   1.2111   1.2192   1.2286
  1.2439   1.2610   1.2758   1.3082   1.3216   1.3371   1.3631   1.3899
  1.3977   1.4129   1.4315   1.4374   1.4490   1.4609   1.5003   1.5180
  1.5361   1.5398   1.5531   1.5943   1.6080   1.6305   1.6346   1.6725
  1.7007   1.7557   1.7607   1.7965   1.8409   1.8501   1.9055   1.9406
  1.9629   1.9896   2.0490   2.0890   2.1083   2.1253   2.2038   2.2263
  2.3662   2.3835   2.4130   2.5128   2.5213   2.5777   2.5988   2.6024
  2.6404   2.6871   2.7244   2.7540   2.7861   2.7991   2.8051   2.8165
  2.8433   2.8649   2.8885   2.9028   2.9097   2.9239   2.9422   2.9744
  2.9990   3.0360   3.0641   3.0742   3.1101   3.1297   3.1619   3.1698
  3.1987   3.2186   3.2431   3.2447   3.2769   3.2882   3.3101   3.3287
  3.3390   3.3528   3.3726   3.4176   3.4425   3.4599   3.4848   3.4866
  3.5044   3.5141   3.5256   3.5373   3.5801   3.6054   3.6327   3.6508
  3.6930   3.7019   3.7242   3.7552   3.7683   3.7919   3.8035   3.8268
  3.8474   3.8544   3.8815   3.9027   3.9362   3.9796   4.0133   4.0428
  4.0611   4.1024   4.1303   4.1512   4.1993   4.2247   4.2370   4.2457
  4.2569   4.2957   4.3235   4.3764   4.3960   4.4250   4.4377   4.5021
  4.5442   4.5628   4.5960   4.6446   4.6930   4.7605   4.8423   4.8455
  4.9297   5.0086   5.1659   5.1781   5.1890   5.2014   5.2062   5.2173
  5.2232   5.2460   5.2696   5.3162   5.3980   5.4066   5.4331   5.4751
  5.5281   5.5471   5.5737   5.5835   5.5852   5.6197   5.6226   5.6683
  5.7136   5.7835   5.8615   5.9069   5.9286   6.0266   6.0958   6.3393
  6.3798   6.6102   6.7381   6.8623   6.9383   6.9958   7.0225   7.0416
  7.0926   7.1436   7.2243   7.2942   7.3229   7.3323   7.4161   7.4240
  7.5262   7.6252   7.6482   7.7343   7.7414   7.8217  24.4086  24.7506
 24.9740  25.0155  25.2380  50.6002  50.7041  50.7321
 --------------------------------------------------------------
 
          Ground-State Mulliken Net Atomic Charges

     Atom                 Charge (a.u.)
  ----------------------------------------
      1 H                     0.293323
      2 C                    -0.076320
      3 C                     0.029130
      4 H                     0.282243
      5 C                    -0.107923
      6 H                     0.215586
      7 C                     0.292417
      8 C                    -0.410691
      9 O                    -0.428071
     10 O                    -0.403426
     11 O                    -0.434837
     12 H                     0.204450
     13 H                     0.207199
     14 H                     0.336919
  ----------------------------------------
  Sum of atomic charges =     0.000000

 -----------------------------------------------------------------
                    Cartesian Multipole Moments
 -----------------------------------------------------------------
    Charge (ESU x 10^10)
                -0.0000
    Dipole Moment (Debye)
         X      -1.2786      Y      -5.3475      Z       1.1350
       Tot       5.6142
    Quadrupole Moments (Debye-Ang)
        XX     -59.7839     XY       9.4110     YY     -71.6108
        XZ       2.8505     YZ      -6.6866     ZZ     -45.7960
    Octopole Moments (Debye-Ang^2)
       XXX     -80.7346    XXY     -79.7174    XYY      21.6917
       YYY    -307.2725    XXZ      -9.7296    XYZ      -0.0768
       YYZ     -38.7317    XZZ     -24.8363    YZZ     -67.0781
       ZZZ     -50.2724
    Hexadecapole Moments (Debye-Ang^3)
      XXXX    -916.2173   XXXY     249.2860   XXYY    -451.9933
      XYYY     364.2155   YYYY   -1665.4933   XXXZ      98.1548
[...]
 O          0.028  0.169  0.022    0.017  0.010 -0.024   -0.057 -0.106  0.021
 H          0.111 -0.155  0.006    0.093 -0.064 -0.045   -0.152  0.224  0.010
 H          0.176 -0.045 -0.004   -0.012  0.039  0.024   -0.221  0.108  0.016
 H         -0.351  0.301 -0.304    0.465 -0.203  0.806    0.195 -0.177  0.092
 TransDip  -0.019  0.026  0.038    0.195 -0.120  0.310    0.113 -0.038  0.067

 Mode:                 7                      8                      9
 Frequency:       313.64                 348.58                 420.38
 Force Cnst:      0.1759                 0.4022                 0.4777
 Red. Mass:       3.0350                 5.6184                 4.5876
 IR Active:          YES                    YES                    YES
 IR Intens:       30.116                 35.368                 13.108
 Raman Active:       YES                    YES                    YES
               X      Y      Z        X      Y      Z        X      Y      Z
 H          0.053  0.112  0.271    0.165 -0.035 -0.218    0.017 -0.108 -0.321
 C          0.060  0.049  0.157   -0.045  0.064 -0.128    0.045 -0.053 -0.200
 C         -0.014 -0.037 -0.173   -0.233 -0.105  0.146    0.243  0.082  0.029
 H         -0.098 -0.053 -0.334   -0.166 -0.268  0.221    0.291  0.237  0.153
 C          0.066  0.033 -0.027   -0.109 -0.143  0.149    0.113 -0.033 -0.116
 H          0.198  0.217  0.129    0.031 -0.389  0.261   -0.139  0.022 -0.368
 C          0.004 -0.045  0.070   -0.006  0.083 -0.122   -0.039  0.053 -0.112
 C         -0.070 -0.038 -0.009   -0.052  0.010  0.049   -0.150  0.030  0.075
 O          0.056 -0.095 -0.152    0.317 -0.099 -0.088    0.058  0.022  0.047
 O         -0.013 -0.050  0.059    0.100  0.073 -0.092   -0.017 -0.194  0.083
 O         -0.081  0.158  0.048   -0.071  0.127  0.070   -0.176  0.091  0.117
 H         -0.037  0.091 -0.122    0.006 -0.173  0.113   -0.128 -0.125  0.153
 H         -0.096 -0.172 -0.117    0.014  0.172  0.179   -0.146  0.203  0.223
 H          0.038  0.054  0.668   -0.244  0.175  0.051   -0.289  0.122  0.103
 TransDip  -0.016  0.041  0.170   -0.159 -0.038  0.098   -0.065  0.057 -0.077

 Mode:                10                     11                     12
 Frequency:       524.50                 614.62                 713.79
 Force Cnst:      0.3727                 0.9068                 0.6898
 Red. Mass:       2.2993                 4.0744                 2.2979
 IR Active:          YES                    YES                    YES
 IR Intens:       11.551                 13.998                 55.306
 Raman Active:       YES                    YES                    YES
               X      Y      Z        X      Y      Z        X      Y      Z
 H         -0.184 -0.259 -0.473    0.376 -0.055  0.124   -0.267 -0.325 -0.289
 C          0.027 -0.102 -0.084    0.254 -0.071  0.039   -0.042 -0.134  0.168
 C          0.085 -0.022  0.064    0.121 -0.175 -0.071    0.065 -0.019  0.034
 H          0.005 -0.218 -0.134    0.171 -0.459 -0.055   -0.185 -0.096 -0.441
 C         -0.073  0.025  0.022   -0.100  0.069  0.064    0.006  0.058 -0.025
 H         -0.247 -0.122 -0.178   -0.026  0.097  0.139   -0.182  0.018 -0.228
 C          0.122 -0.031  0.186    0.005 -0.035 -0.159   -0.093  0.032 -0.022
 C         -0.009 -0.010  0.054   -0.069 -0.091 -0.046   -0.027  0.158 -0.045
 O         -0.002  0.023 -0.077   -0.092  0.045  0.098    0.081 -0.070 -0.031
 O         -0.015  0.090 -0.042   -0.018  0.190 -0.069   -0.023  0.033 -0.006
 O         -0.054  0.026 -0.002   -0.068  0.028  0.066    0.037 -0.023  0.003
 H         -0.163  0.403 -0.072    0.037 -0.411  0.062    0.074 -0.180  0.084
 H         -0.086 -0.347 -0.224   -0.022  0.206  0.204    0.006  0.435  0.190
 H         -0.004 -0.005  0.144   -0.211  0.060  0.087    0.154 -0.038 -0.098
 TransDip  -0.087 -0.051  0.039    0.019 -0.118 -0.006   -0.179  0.090 -0.129

 Mode:                13                     14                     15
 Frequency:       766.25                 892.14                1002.51
 Force Cnst:      0.6434                 2.0206                 1.2737
 Red. Mass:       1.8599                 4.3088                 2.1510
 IR Active:          YES                    YES                    YES
 IR Intens:       51.358                 17.105                 42.468
 Raman Active:       YES                    YES                    YES
               X      Y      Z        X      Y      Z        X      Y      Z
 H         -0.233 -0.078 -0.526   -0.052  0.229 -0.222   -0.290  0.114  0.040
 C          0.054  0.157  0.049    0.171  0.232 -0.096   -0.024  0.006 -0.044
 C         -0.017  0.075  0.054    0.061  0.050 -0.036    0.009  0.033 -0.064
 H         -0.281 -0.223 -0.520    0.078 -0.433 -0.160    0.184  0.101  0.274
 C          0.013 -0.039  0.020   -0.051 -0.087  0.073   -0.036 -0.051  0.042
 H         -0.116 -0.173 -0.128    0.011 -0.196  0.126    0.025 -0.096  0.104
 C          0.004  0.019 -0.015   -0.070 -0.144  0.013    0.123 -0.047  0.173
 C         -0.003 -0.149 -0.060   -0.001  0.267  0.069   -0.085  0.031 -0.173
 O         -0.030  0.050  0.025   -0.120 -0.211  0.017   -0.014  0.021 -0.038
 O          0.014 -0.053  0.007    0.027 -0.022 -0.008    0.009 -0.002 -0.004
 O          0.015  0.005  0.003   -0.003 -0.012 -0.004    0.013 -0.004  0.036
 H          0.088 -0.291 -0.052   -0.066  0.342  0.084   -0.031 -0.539  0.160
 H          0.080 -0.054  0.012   -0.096  0.210  0.029    0.148  0.514  0.222
 H         -0.131  0.031  0.079    0.338 -0.070 -0.207   -0.003 -0.005  0.077
 TransDip  -0.167 -0.058 -0.146    0.096 -0.072 -0.056    0.115 -0.132  0.113

 Mode:                16                     17                     18
 Frequency:      1030.95                1047.37                1095.85
 Force Cnst:      0.8958                 1.0464                 1.7962
 Red. Mass:       1.4306                 1.6189                 2.5386
 IR Active:          YES                    YES                    YES
 IR Intens:        9.967                  3.275                 98.231
 Raman Active:       YES                    YES                    YES
               X      Y      Z        X      Y      Z        X      Y      Z
 H          0.197  0.231  0.505   -0.239 -0.160 -0.416    0.690 -0.182 -0.246
 C         -0.040 -0.016 -0.061    0.035  0.044  0.088    0.077  0.056 -0.069
 C          0.013  0.014 -0.023   -0.044 -0.055 -0.139   -0.147 -0.110  0.109
 H         -0.143 -0.055 -0.333    0.273  0.290  0.541   -0.094 -0.093  0.229
 C          0.081  0.027  0.149    0.061  0.021  0.111    0.135  0.148 -0.099
 H         -0.456 -0.288 -0.435   -0.316 -0.188 -0.295   -0.082  0.174 -0.332
 C          0.011 -0.002  0.005   -0.024  0.011 -0.031   -0.032  0.003  0.130
 C         -0.003  0.001 -0.007    0.013 -0.008  0.027   -0.039  0.018 -0.053
 O          0.002 -0.000 -0.001    0.005 -0.003  0.006   -0.037 -0.051 -0.010
 O         -0.022 -0.011 -0.032   -0.017 -0.004 -0.026   -0.025 -0.016  0.010
 O         -0.001  0.001  0.002    0.000  0.001 -0.006    0.023 -0.008  0.004
 H         -0.002 -0.020  0.007    0.015  0.075 -0.032   -0.002 -0.188  0.051
 H         -0.002  0.023  0.013   -0.025 -0.081 -0.033    0.152  0.113  0.006
 H         -0.001  0.001  0.002    0.004  0.001 -0.014    0.044 -0.012  0.008
 TransDip   0.054 -0.063  0.058   -0.002 -0.036  0.045   -0.088  0.302 -0.041

 Mode:                19                     20                     21
 Frequency:      1127.93                1219.07                1235.59
 Force Cnst:      3.2835                 1.0298                 1.1657
 Red. Mass:       4.3805                 1.1761                 1.2960
 IR Active:          YES                    YES                    YES
 IR Intens:      241.576                 27.613                214.636
 Raman Active:       YES                    YES                    YES
               X      Y      Z        X      Y      Z        X      Y      Z
 H         -0.228 -0.037 -0.044    0.489 -0.213 -0.163   -0.087  0.037  0.035
 C          0.006 -0.013  0.068    0.036 -0.019 -0.001   -0.004 -0.002 -0.003
 C         -0.171 -0.010  0.089    0.013  0.039 -0.031   -0.007 -0.005  0.007
 H         -0.360  0.352 -0.121   -0.205  0.732 -0.234    0.019 -0.080  0.036
 C          0.064  0.055 -0.050   -0.055 -0.063  0.043    0.009  0.009 -0.008
 H         -0.037  0.061 -0.158    0.003 -0.048  0.115    0.003  0.007 -0.016
 C          0.354 -0.228 -0.218   -0.001  0.003  0.020    0.019 -0.006  0.005
 C          0.050  0.082 -0.014   -0.002  0.007 -0.009    0.034  0.011 -0.006
 O         -0.051  0.015  0.029   -0.014 -0.018  0.000    0.010  0.017 -0.004
 O         -0.016 -0.008  0.012    0.002  0.019 -0.004   -0.001 -0.002  0.001
 O         -0.091  0.021  0.052   -0.013  0.001  0.011   -0.118  0.017  0.055
 H         -0.288  0.281  0.184    0.032 -0.047 -0.008    0.529 -0.269 -0.310
 H         -0.216  0.265  0.174    0.089 -0.022 -0.044    0.125 -0.163 -0.153
 H          0.046 -0.006 -0.021    0.093 -0.020 -0.050    0.551 -0.114 -0.363
 TransDip   0.379 -0.198 -0.255    0.135 -0.100  0.008    0.407 -0.062 -0.226

 Mode:                22                     23                     24
 Frequency:      1290.76                1354.19                1387.14
 Force Cnst:      1.0881                 2.1853                 1.4699
 Red. Mass:       1.1085                 2.0225                 1.2965
 IR Active:          YES                    YES                    YES
 IR Intens:       17.907                 13.143                 63.924
 Raman Active:       YES                    YES                    YES
               X      Y      Z        X      Y      Z        X      Y      Z
 H         -0.040  0.007  0.012   -0.110  0.047  0.032   -0.416  0.225  0.103
 C         -0.010  0.000  0.012    0.012 -0.002 -0.010    0.060  0.027 -0.046
 C          0.009  0.001 -0.004    0.001 -0.026  0.014    0.003 -0.100  0.052
 H          0.025 -0.076  0.000   -0.039  0.088 -0.025   -0.144  0.338 -0.092
 C          0.001  0.001  0.002    0.000 -0.004 -0.000   -0.019 -0.033  0.029
 H         -0.005  0.001 -0.003   -0.027  0.099 -0.017   -0.237  0.695 -0.110
 C         -0.020  0.009 -0.041    0.026 -0.003 -0.017   -0.029  0.021  0.015
 C         -0.002  0.011 -0.047   -0.203 -0.090  0.084    0.004  0.022  0.001
 O          0.007  0.004  0.005    0.002  0.004  0.001    0.001 -0.007 -0.001
 O          0.001 -0.001 -0.001    0.002  0.003 -0.003    0.033 -0.005 -0.028
 O         -0.016 -0.002  0.053    0.122  0.090 -0.043   -0.001 -0.016 -0.002
 H         -0.455  0.040  0.356   -0.286 -0.143  0.187    0.075 -0.044 -0.024
 H          0.691 -0.196 -0.313   -0.289 -0.121  0.074    0.087 -0.048 -0.070
 H          0.177 -0.045 -0.026    0.703 -0.025 -0.381   -0.129  0.009  0.073
 TransDip   0.115 -0.028 -0.065    0.006 -0.115 -0.016   -0.198  0.149  0.066

 Mode:                25                     26                     27
 Frequency:      1427.76                1442.90                1506.79
 Force Cnst:      1.5517                 1.7008                 2.3006
 Red. Mass:       1.2920                 1.3866                 1.7198
 IR Active:          YES                    YES                    YES
 IR Intens:       48.733                 48.962                 29.353
 Raman Active:       YES                    YES                    YES
               X      Y      Z        X      Y      Z        X      Y      Z
 H          0.167 -0.073 -0.055    0.372 -0.187 -0.117    0.067 -0.055 -0.015
 C         -0.044  0.011  0.014   -0.085  0.008  0.043   -0.018 -0.013  0.016
 C          0.013  0.024 -0.014    0.002  0.080 -0.034   -0.013  0.034 -0.009
 H          0.071 -0.141  0.038    0.128 -0.312  0.077    0.020 -0.084  0.020
 C         -0.021 -0.024  0.029   -0.034 -0.034  0.049   -0.005 -0.002  0.007
 H         -0.147  0.378 -0.048   -0.228  0.553 -0.071   -0.028  0.053 -0.008
 C         -0.006  0.023  0.015    0.050 -0.034 -0.021    0.074 -0.036 -0.043
 C          0.041 -0.110 -0.042    0.002  0.058  0.009   -0.188  0.038  0.100
 O         -0.004 -0.013 -0.002   -0.003  0.007  0.001   -0.010  0.003  0.005
 O          0.028 -0.017 -0.018    0.047 -0.033 -0.027    0.007 -0.008 -0.003
 O         -0.032  0.019  0.021    0.006 -0.002 -0.005    0.059 -0.021 -0.032
 H         -0.156  0.501 -0.223    0.029 -0.316  0.206    0.369  0.151 -0.482
 H          0.138  0.424  0.377   -0.237 -0.235 -0.191    0.677  0.072 -0.005
 H          0.244 -0.033 -0.139   -0.069  0.013  0.038   -0.217  0.027  0.123
 TransDip   0.157  0.158 -0.016    0.054 -0.217  0.010   -0.145 -0.003  0.096

 Mode:                28                     29                     30
 Frequency:      1704.30                1743.26                1745.82
 Force Cnst:     16.2635                14.8955                17.2022
 Red. Mass:       9.5033                 8.3192                 9.5793
 IR Active:          YES                    YES                    YES
 IR Intens:      303.040                558.599                208.892
 Raman Active:       YES                    YES                    YES
               X      Y      Z        X      Y      Z        X      Y      Z
 H         -0.288 -0.063  0.224    0.076  0.063 -0.054   -0.325 -0.036  0.173
 C          0.387 -0.300 -0.044   -0.191  0.139  0.023    0.167 -0.206 -0.002
 C         -0.278  0.335 -0.039    0.172 -0.230  0.018   -0.151  0.215 -0.023
 H         -0.177 -0.105  0.159    0.029  0.298 -0.115   -0.030 -0.230  0.143
 C         -0.216  0.280  0.082   -0.307  0.444  0.049    0.052 -0.076 -0.006
 H         -0.174 -0.017  0.107    0.026 -0.437  0.257   -0.022  0.087 -0.060
 C         -0.192 -0.139  0.043    0.155  0.166 -0.035    0.267  0.573 -0.047
 C          0.004 -0.005  0.002    0.000 -0.004 -0.004    0.015 -0.033 -0.008
 O          0.079  0.113 -0.011   -0.078 -0.119  0.013   -0.198 -0.354  0.032
 O          0.179 -0.238 -0.054    0.203 -0.258 -0.058   -0.025  0.024  0.011
 O          0.004  0.002 -0.001   -0.006  0.001  0.003   -0.012  0.004  0.007
 H         -0.076  0.082  0.017    0.039 -0.067  0.006    0.030 -0.143  0.057
 H         -0.009  0.034  0.041   -0.009 -0.036 -0.034   -0.045 -0.135 -0.100
 H          0.063 -0.006 -0.033   -0.022  0.001  0.012   -0.051  0.004  0.025
 TransDip  -0.494  0.231  0.114   -0.181  0.735 -0.025    0.365  0.284  0.016

 Mode:                31                     32                     33
 Frequency:      3044.07                3062.31                3078.47
 Force Cnst:      5.7875                 6.0100                 6.1578
 Red. Mass:       1.0601                 1.0877                 1.1028
 IR Active:          YES                    YES                    YES
 IR Intens:       41.890                 34.608                  8.581
 Raman Active:       YES                    YES                    YES
               X      Y      Z        X      Y      Z        X      Y      Z
 H          0.003  0.012 -0.006    0.003  0.001 -0.000    0.004  0.013 -0.008
 C         -0.000 -0.001  0.001   -0.000 -0.001  0.000   -0.000 -0.001  0.001
 C         -0.000  0.000  0.000    0.001  0.003 -0.002    0.000  0.000 -0.000
 H         -0.001 -0.000  0.000   -0.014  0.000  0.009   -0.002 -0.000  0.001
 C         -0.001 -0.000  0.001   -0.060 -0.009  0.060   -0.000 -0.000  0.000
 H          0.012  0.001 -0.011    0.710  0.084 -0.693    0.001  0.000 -0.001
 C          0.000  0.001 -0.000   -0.000 -0.001 -0.000   -0.001  0.000 -0.001
 C          0.024  0.062 -0.017   -0.000 -0.001  0.001   -0.046  0.004 -0.081
 O         -0.001 -0.001  0.000   -0.000  0.001 -0.000   -0.000  0.000 -0.000
 O          0.000 -0.000  0.000    0.000 -0.000 -0.000   -0.000  0.000  0.000
 O          0.001 -0.002 -0.000    0.000  0.000 -0.000    0.000  0.000  0.001
 H         -0.379 -0.237 -0.408    0.005  0.004  0.006    0.493  0.341  0.521
 H          0.089 -0.496  0.612   -0.001  0.009 -0.011    0.058 -0.394  0.448
 H         -0.002  0.015  0.004    0.000  0.000 -0.000   -0.002 -0.002 -0.006
 TransDip   0.182  0.008 -0.098   -0.106 -0.010  0.155   -0.068  0.020 -0.061

 Mode:                34                     35                     36
 Frequency:      3187.02                3202.26                3721.03
 Force Cnst:      6.5018                 6.6308                 8.6931
 Red. Mass:       1.0865                 1.0975                 1.0656
 IR Active:          YES                    YES                    YES
 IR Intens:        0.802                  0.489                176.489
 Raman Active:       YES                    YES                    YES
               X      Y      Z        X      Y      Z        X      Y      Z
 H          0.146  0.611 -0.325    0.140  0.606 -0.322   -0.001  0.001  0.000
 C         -0.013 -0.052  0.028   -0.007 -0.057  0.028   -0.000 -0.000  0.000
 C          0.051  0.009 -0.029   -0.057 -0.004  0.029    0.000  0.000 -0.000
 H         -0.609 -0.096  0.333    0.616  0.096 -0.333    0.000  0.000  0.000
 C          0.001 -0.001 -0.001   -0.001  0.002  0.000    0.000 -0.000 -0.000
 H         -0.009 -0.001  0.010    0.007  0.001 -0.008   -0.000 -0.000  0.000
 C          0.000 -0.000 -0.001    0.001 -0.000 -0.001    0.001  0.000 -0.000
 C          0.000 -0.001  0.001   -0.000 -0.001  0.001   -0.001 -0.002  0.000
 O          0.000  0.000  0.000    0.000 -0.000  0.000   -0.000  0.000  0.000
 O         -0.000  0.000  0.000    0.000 -0.001 -0.000   -0.000  0.000  0.000
 O         -0.000  0.000  0.000   -0.000  0.000  0.000   -0.016 -0.060 -0.007
 H         -0.003 -0.002 -0.002   -0.002 -0.001 -0.001    0.010  0.002  0.005
 H         -0.001  0.010 -0.012   -0.001  0.008 -0.010    0.002  0.004 -0.010
 H          0.000 -0.001 -0.000    0.000 -0.000 -0.000    0.250  0.960  0.110
 TransDip   0.023 -0.014 -0.010   -0.017  0.015  0.002    0.045  0.418  0.067

 STANDARD THERMODYNAMIC QUANTITIES AT   298.15 K  AND     1.00 ATM

   This Molecule has  0 Imaginary Frequencies
   Zero point vibrational energy:       65.939 kcal/mol

   Atom    1 Element H  Has Mass    1.00783
   Atom    2 Element C  Has Mass   12.00000
   Atom    3 Element C  Has Mass   12.00000
   Atom    4 Element H  Has Mass    1.00783
   Atom    5 Element C  Has Mass   12.00000
   Atom    6 Element H  Has Mass    1.00783
   Atom    7 Element C  Has Mass   12.00000
   Atom    8 Element C  Has Mass   12.00000
   Atom    9 Element O  Has Mass   15.99491
   Atom   10 Element O  Has Mass   15.99491
   Atom   11 Element O  Has Mass   15.99491
   Atom   12 Element H  Has Mass    1.00783
   Atom   13 Element H  Has Mass    1.00783
   Atom   14 Element H  Has Mass    1.00783
   Molecular Mass:   114.031710 amu
   Principal axes and moments of inertia in amu*Bohr^2:
                             1           2           3
    Eigenvalues --      305.90690  1844.65985  2060.30753
          X               0.74937     0.53801     0.38599
          Y              -0.63609     0.74684     0.19394
          Z              -0.18393    -0.39086     0.90189
   Rotational Symmetry Number is   1
   The Molecule is an Asymmetric Top
   Translational Enthalpy:        0.889 kcal/mol
   Rotational Enthalpy:           0.889 kcal/mol
   Vibrational Enthalpy:         69.621 kcal/mol
   gas constant (RT):             0.592 kcal/mol
   Translational Entropy:        40.109  cal/mol.K
   Rotational Entropy:           28.543  cal/mol.K
   Vibrational Entropy:          24.525  cal/mol.K

   Total Enthalpy:               71.991 kcal/mol
   Total Entropy:                93.177  cal/mol.K
 Total job time:  8418.63s(wall), 81257.22s(cpu) 
 Fri Jun  7 10:37:37 2024

        *************************************************************
        *                                                           *
        *  Thank you very much for using Q-Chem.  Have a nice day.  *
        *                                                           *
        *************************************************************


