
Running Job 1 of 2 Q_in.in
qchem Q_in.in_55828.0 /scratch/ari.fischer/qChem2104542.hpc-mn1/qchem55828/ 0
/usr/local/qchem-5.4.1/exe/qcprog.exe_s Q_in.in_55828.0 /scratch/ari.fischer/qChem2104542.hpc-mn1/qchem55828/
                  Welcome to Q-Chem
     A Quantum Leap Into The Future Of Chemistry


 Q-Chem 5.4, Q-Chem, Inc., Pleasanton, CA (2021)

 License issued to: Nanyang Technological University (site)

 E. Epifanovsky,  A. T. B. Gilbert,  Xintian Feng,  Joonho Lee,  Yuezhi Mao,  
 N. Mardirossian,  P. Pokhilko,  A. White,  M. Wormit,  M. P. Coons,  
 A. L. Dempwolff,  Zhengting Gan,  D. Hait,  P. R. Horn,  L. D. Jacobson,  
 I. Kaliman,  J. Kussmann,  A. W. Lange,  Ka Un Lao,  D. S. Levine,  Jie Liu,  
 S. C. McKenzie,  A. F. Morrison,  K. Nanda,  F. Plasser,  D. R. Rehn,  
 M. L. Vidal,  Zhi-Qiang You,  Ying Zhu,  B. Alam,  B. Albrecht,  
 A. Aldossary,  E. Alguire,  J. H. Andersen,  D. Barton,  K. Begam,  A. Behn,  
 Y. A. Bernard,  E. J. Berquist,  H. Burton,  A. Carreras,  K. Carter-Fenk,  
 R. Chakraborty,  A. D. Chien,  K. D. Closser,  V. Cofer-Shabica,  
 S. Dasgupta,  Jia Deng,  M. de Wergifosse,  M. Diedenhofen,  Hainam Do,  
 S. Ehlert,  Po-Tung Fang,  S. Fatehi,  Qingguo Feng,  T. Friedhoff,  
 J. Gayvert,  Qinghui Ge,  G. Gidofalvi,  M. Goldey,  J. Gomes,  
 C. Gonzalez-Espinoza,  S. Gulania,  A. Gunina,  M. W. D. Hanson-Heine,  
 P. H. P. Harbach,  A. W. Hauser,  M. F. Herbst,  M. Hernandez Vera,  
 M. Hodecker,  Z. C. Holden,  S. Houck,  Xunkun Huang,  Kerwin Hui,  
 B. C. Huynh,  M. Ivanov,  Hyunjun Ji,  Hanjie Jiang,  B. Kaduk,  S. Kaehler,  
 K. Khistyaev,  Jaehoon Kim,  P. Klunzinger,  Z. Koczor-Benda,  
 Joong Hoon Koh,  D. Kosenkov,  L. Koulias,  T. Kowalczyk,  C. M. Krauter,  
 K. Kue,  A. Kunitsa,  T. Kus,  A. Landau,  K. V. Lawler,  D. Lefrancois,  
 S. Lehtola,  Rain Li,  Yi-Pei Li,  Jiashu Liang,  M. Liebenthal,  
 Hung-Hsuan Lin,  You-Sheng Lin,  Fenglai Liu,  Kuan-Yu Liu,  
 M. Loipersberger,  A. Luenser,  A. Manjanath,  P. Manohar,  E. Mansoor,  
 S. F. Manzer,  Shan-Ping Mao,  A. V. Marenich,  T. Markovich,  S. Mason,  
 S. A. Maurer,  P. F. McLaughlin,  M. F. S. J. Menger,  J.-M. Mewes,  
 S. A. Mewes,  P. Morgante,  J. W. Mullinax,  K. J. Oosterbaan,  G. Paran,  
 Alexander C. Paul,  Suranjan K. Paul,  F. Pavosevic,  Zheng Pei,  S. Prager,  
 E. I. Proynov,  E. Ramos,  B. Rana,  A. E. Rask,  A. Rettig,  R. M. Richard,  
 F. Rob,  E. Rossomme,  T. Scheele,  M. Scheurer,  M. Schneider,  
 N. Sergueev,  S. M. Sharada,  W. Skomorowski,  D. W. Small,  C. J. Stein,  
 Yu-Chuan Su,  E. J. Sundstrom,  Zhen Tao,  J. Thirman,  T. Tsuchimochi,  
 N. M. Tubman,  S. P. Veccham,  O. Vydrov,  J. Wenzel,  J. Witte,  A. Yamada,  
 Kun Yao,  S. Yeganeh,  S. R. Yost,  A. Zech,  Igor Ying Zhang,  Xing Zhang,  
 Yu Zhang,  D. Zuev,  A. Aspuru-Guzik,  A. T. Bell,  N. A. Besley,  
 K. B. Bravaya,  B. R. Brooks,  D. Casanova,  Jeng-Da Chai,  S. Coriani,  
 C. J. Cramer,  A. E. DePrince, III,  R. A. DiStasio Jr.,  A. Dreuw,  
 B. D. Dunietz,  T. R. Furlani,  W. A. Goddard III,  S. Grimme,  
 S. Hammes-Schiffer,  T. Head-Gordon,  W. J. Hehre,  Chao-Ping Hsu,  
 T.-C. Jagau,  Yousung Jung,  A. Klamt,  Jing Kong,  D. S. Lambrecht,  
 WanZhen Liang,  N. J. Mayhall,  C. W. McCurdy,  J. B. Neaton,  
 C. Ochsenfeld,  J. A. Parkhill,  R. Peverati,  V. A. Rassolov,  Yihan Shao,  
 L. V. Slipchenko,  T. Stauch,  R. P. Steele,  J. E. Subotnik,  
 A. J. W. Thom,  A. Tkatchenko,  D. G. Truhlar,  T. Van Voorhis,  
 T. A. Wesolowski,  K. B. Whaley,  H. L. Woodcock III,  P. M. Zimmerman,  
 S. Faraji,  P. M. W. Gill,  M. Head-Gordon,  J. M. Herbert,  A. I. Krylov

 Additional authors for Version 5.4.1: 
 S. Kotaru,  Shaozhi Li,  Xiangyuan Li,  F. Matz,  A. Molle,  Haisheng Ren,  
 Yingli Su,  Hung-Yi Tsai,  C. Utku,  Fang Wang

 Contributors to earlier versions of Q-Chem not listed above: 
 R. D. Adamson,  B. Austin,  R. Baer,  J. Baker,  G. J. O. Beran,  
 K. Brandhorst,  S. T. Brown,  E. F. C. Byrd,  A. K. Chakraborty,  
 G. K. L. Chan,  Chun-Min Chang,  Yunqing Chen,  C.-L. Cheng,  
 Siu Hung Chien,  D. M. Chipman,  D. L. Crittenden,  H. Dachsel,  
 R. J. Doerksen,  A. D. Dutoi,  R. G. Edgar,  J. Fosso-Tande,  
 L. Fusti-Molnar,  D. Ghosh,  A. Ghysels,  A. Golubeva-Zadorozhnaya,  
 J. Gonthier,  M. S. Gordon,  S. R. Gwaltney,  G. Hawkins,  J. E. Herr,  
 A. Heyden,  S. Hirata,  E. G. Hohenstein,  G. Kedziora,  F. J. Keil,  
 C. Kelley,  Jihan Kim,  R. A. King,  R. Z. Khaliullin,  P. P. Korambath,  
 W. Kurlancheek,  A. Laurent,  A. M. Lee,  M. S. Lee,  S. V. Levchenko,  
 Ching Yeh Lin,  D. Liotard,  E. Livshits,  R. C. Lochan,  I. Lotan,  
 L. A. Martinez-Martinez,  P. E. Maslen,  N. Nair,  D. P. O'Neill,  
 D. Neuhauser,  E. Neuscamman,  C. M. Oana,  R. Olivares-Amaya,  R. Olson,  
 T. M. Perrine,  B. Peters,  P. A. Pieniazek,  A. Prociuk,  Y. M. Rhee,  
 J. Ritchie,  M. A. Rohrdanz,  E. Rosta,  N. J. Russ,  H. F. Schaefer III,  
 M. W. Schmidt,  N. E. Schultz,  S. Sharma,  N. Shenvi,  C. D. Sherrill,  
 A. C. Simmonett,  A. Sodt,  T. Stein,  D. Stuck,  K. S. Thanthiriwatte,  
 V. Vanovschi,  L. Vogt,  Tao Wang,  A. Warshel,  M. A. Watson,  
 C. F. Williams,  Q. Wu,  X. Xu,  Jun Yang,  W. Zhang,  Yan Zhao

 Please cite Q-Chem as follows:
 Y. Shao et al., Mol. Phys. 113, 184-215 (2015)
 DOI: 10.1080/00268976.2014.952696

 Q-Chem 5.4.1 for Intel X86 EM64T Linux

 Parts of Q-Chem use Armadillo 9.800.1 (Horizon Scraper).
 http://arma.sourceforge.net/

 Q-Chem begins on Thu May 16 09:39:43 2024  

 Host: 
0

     Scratch files written to /scratch/ari.fischer/qChem2104542.hpc-mn1/qchem55828//
 Aug1521 |scratch|qcdevops|jenkins|workspace|build_RNUM 8249   
 Processing $rem in /usr/local/qchem-5.4.1/config/preferences:
 Processing $rem in /home/ari.fischer/.qchemrc:
 Symmetry turned off for PCM/SM12/SMD calculation


!!********************************************.
!!******************Warning*******************.
!!Desired Analytical derivatives not available.
!!Finite difference job might take a long time.
!!********************************************.
!!********************************************.


 2-order derivative to be evaluated numerically with 1-order analytical derivatives

 Checking the input file for inconsistencies... 	...done.

--------------------------------------------------------------
User input:
--------------------------------------------------------------
$molecule
0 2
C         0.9575543508    0.0630275269   -1.0186033935
O         1.1826766902    1.3709075328   -0.4575272313
O         0.0025554246    1.6644977930    0.3493286879
C        -0.5508724494    0.0954893375   -1.2609691175
C        -0.9366581026    0.7541457492    0.0267791143
C        -0.5808220408   -0.8819405893    1.5225329375
O        -1.5981069274   -1.5915667271    1.5758127926
C         0.6990976350   -1.4322286665    0.9757024414
C         1.3830120288   -1.0386899037   -0.0918356525
H         1.5289827942    0.0664912190   -1.9424259433
H        -0.7668430366    0.7729192243   -2.0923236379
H        -1.9320622090    1.0332215614    0.3434719797
H        -0.4880012539   -0.0137331687    2.1875136977
H         1.0753544910   -2.2646257403    1.5635108090
H         2.3042605793   -1.5483684985   -0.3408290218
O        -1.1121460809   -1.1726929908   -1.4851441138
H        -1.8490400932   -1.0699737592   -2.0960434485
$end

$rem
BASIS = 6-311++G(2df,2p)
GUI = 2
JOB_TYPE = Frequency
METHOD = wB97M-V
SOLVENT_METHOD = SMD
SCF_ALGORITHM = DIIS_GDM
MAX_SCF_CYCLES = 400
SCF_CONVERGENCE = 7
THRESH = 12
$end

--------------------------------------------------------------
 ----------------------------------------------------------------
             Standard Nuclear Orientation (Angstroms)
    I     Atom           X                Y                Z
 ----------------------------------------------------------------
    1      C       0.9575543508     0.0630275269    -1.0186033935
    2      O       1.1826766902     1.3709075328    -0.4575272313
    3      O       0.0025554246     1.6644977930     0.3493286879
    4      C      -0.5508724494     0.0954893375    -1.2609691175
    5      C      -0.9366581026     0.7541457492     0.0267791143
    6      C      -0.5808220408    -0.8819405893     1.5225329375
    7      O      -1.5981069274    -1.5915667271     1.5758127926
    8      C       0.6990976350    -1.4322286665     0.9757024414
    9      C       1.3830120288    -1.0386899037    -0.0918356525
   10      H       1.5289827942     0.0664912190    -1.9424259433
   11      H      -0.7668430366     0.7729192243    -2.0923236379
   12      H      -1.9320622090     1.0332215614     0.3434719797
   13      H      -0.4880012539    -0.0137331687     2.1875136977
   14      H       1.0753544910    -2.2646257403     1.5635108090
   15      H       2.3042605793    -1.5483684985    -0.3408290218
   16      O      -1.1121460809    -1.1726929908    -1.4851441138
   17      H      -1.8490400932    -1.0699737592    -2.0960434485
 ----------------------------------------------------------------
 Nuclear Repulsion Energy =         563.28039221 hartrees
 There are       38 alpha and       37 beta electrons
 Requested basis set is 6-311++G(2df,2p)
 There are 122 shells and 410 basis functions

 Total QAlloc Memory Limit 288000 MB
 Mega-Array Size       188 MB
 MEM_STATIC part       192 MB
 
 Citation of the SMD model:
 Marenich, A.V.; Cramer, C.J.; Truhlar, D.G.
 J. Phys. Chem. B 2009, 113, 6378-6396.
 iSolventCode=           1
 Solvent: water                                                           
 
 vradii
            1           2           3           4           5           6
    1   1.8500000   1.5200000   1.5200000   1.8500000   1.8500000   1.8500000
            7           8           9          10          11          12
    1   1.5200000   1.8500000   1.8500000   1.2000000   1.2000000   1.2000000
           13          14          15          16          17
    1   1.2000000   1.2000000   1.2000000   1.5200000   1.2000000
 Changing PCM_VDW_RADII to SMD_RADIUS
 Discretize the solute cavity surface with Lebedev spheres
	Using 110 Lebedev grid points for each H atom
	Using 194 Lebedev grid points for other atoms
	Atomic van der Waals radii will be scaled by 1.20
 Remove points where switching function is < 1.0e-08
 Keep 1277 surface tesserae and discard 1433 interior tesserae
 Molecular Surface Area = 147.958 Angst**2
 A cutoff of  1.0D-12 yielded   6939 shell pairs
 There are     79395 function pairs (     99947 Cartesian)
 Smallest overlap matrix eigenvalue = 5.01E-06
 Guess from superposition of atomic densities
 Warning:  Energy on first SCF cycle will be non-variational
 SAD guess density has 75.000000 electrons

 -----------------------------------------------------------------------
  General SCF calculation program by
  Eric Jon Sundstrom, Paul Horn, Yuezhi Mao, Dmitri Zuev, Alec White,
  David Stuck, Shaama M.S., Shane Yost, Joonho Lee, David Small,
  Daniel Levine, Susi Lehtola, Hugh Burton, Evgeny Epifanovsky,
  Bang C. Huynh
 -----------------------------------------------------------------------
 Exchange:     0.1500 Hartree-Fock + 1.0000 wB97M-V + LR-HF
 Correlation:  1.0000 wB97M-V
 Using SG-2 standard quadrature grid
 Nonlocal Correlation:  VV10 with C = 0.0100 and b = 6.00 and scale = 1.00000
 Grid used for NLC:  SG-1 standard quadrature
 using 16 threads for integral computing
 -------------------------------------------------------
 OpenMP Integral computing Module                
 Release: version 1.0, May 2013, Q-Chem Inc. Pittsburgh 
 -------------------------------------------------------
 
 Citation of the SMD model:
 Marenich, A.V.; Cramer, C.J.; Truhlar, D.G.
 J. Phys. Chem. B 2009, 113, 6378-6396.
 iSolventCode=           1
 Solvent: water                                                           
 
 vradii
            1           2           3           4           5           6
    1   1.8500000   1.5200000   1.5200000   1.8500000   1.8500000   1.8500000
            7           8           9          10          11          12
    1   1.5200000   1.8500000   1.8500000   1.2000000   1.2000000   1.2000000
           13          14          15          16          17
    1   1.2000000   1.2000000   1.2000000   1.5200000   1.2000000
 -------------------------------------------------------
 OpenMP BLAS3 based DFT computing Module                
 Release: version 1.0, May 2013, Q-Chem Inc. Pittsburgh 
 -------------------------------------------------------
 A unrestricted SCF calculation will be
 performed using DIIS, GDM
 SCF converges when RMS gradient is below 1.0e-07
 ---------------------------------------
  Cycle       Energy         DIIS error
 ---------------------------------------
    1    -536.0877107729      1.24e-02  
    2    -533.3892913446      1.51e-03  Done DIIS. Switching to GDM
 ---------------------------------------
  Cycle       Energy        RMS Gradient
 ---------------------------------------
    1    -533.3892913446      1.46e-01   Descent step
    2    -533.5352608877      2.34e-02   Normal BFGS step
    3    -533.5551859057      1.30e-02   Normal BFGS step
    4    -533.5580913896      5.55e-03   Normal BFGS step
    5    -533.5590097276      3.82e-03   Normal BFGS step
    6    -533.5592133471      2.52e-03   Normal BFGS step
    7    -533.5592837102      9.79e-04   Normal BFGS step
    8    -533.5592918059      4.25e-04   Normal BFGS step
    9    -533.5592959765      1.67e-04   Normal BFGS step
   10    -533.5592964207      7.69e-05   Normal BFGS step
   11    -533.5592964903      3.08e-05   Normal BFGS step
   12    -533.5592965071      1.85e-05   Normal BFGS step
   13    -533.5592965117      9.00e-06   Normal BFGS step
   14    -533.5592965135      6.05e-06   Normal BFGS step
   15    -533.5592965139      3.67e-06   Normal BFGS step
   16    -533.5592965140      1.16e-06   Normal BFGS step
   17    -533.5592965140      5.79e-07   Normal BFGS step
   18    -533.5592965141      1.75e-07   Normal BFGS step
   19    -533.5592965141      9.42e-08  Convergence criterion met
 ---------------------------------------
 SCF time:   CPU 2518.23s  wall 173.00s 
<S^2> =          0.758968704
(3)  G-ENP(liq) elect-nuc-pol free energy of system     -533.559296514 a.u.
(4)  G-CDS(liq) cavity-dispersion-solvent structure 
     free energy                                                4.0209 kcal/mol
(6)  G-S(liq) free energy of system                     -533.552888846 a.u.
 SCF   energy in the final basis set =     -533.5528888464
 Total energy in the final basis set =     -533.5528888464
 
 --------------------------------------------------------------
 
                    Orbital Energies (a.u.)
 --------------------------------------------------------------
 
 Alpha MOs
 -- Occupied --
-19.4461 -19.4203 -19.3539 -19.3258 -10.4335 -10.4272 -10.4220 -10.4157
-10.3565 -10.3546  -1.3095  -1.1791  -1.1670  -1.1005  -0.9543  -0.8965
 -0.8054  -0.7626  -0.7341  -0.6900  -0.6683  -0.6469  -0.6077  -0.5935
 -0.5780  -0.5672  -0.5514  -0.5357  -0.5303  -0.5108  -0.4983  -0.4739
 -0.4698  -0.4181  -0.3951  -0.3768  -0.3670  -0.2903
 -- Virtual --
  0.0249   0.0345   0.0373   0.0420   0.0502   0.0569   0.0586   0.0680
  0.0753   0.0925   0.0958   0.1086   0.1105   0.1305   0.1330   0.1340
  0.1365   0.1452   0.1458   0.1493   0.1562   0.1620   0.1662   0.1704
  0.1790   0.1814   0.1905   0.1964   0.1983   0.2120   0.2279   0.2312
  0.2393   0.2472   0.2552   0.2734   0.2788   0.2857   0.2982   0.3056
  0.3145   0.3248   0.3263   0.3401   0.3444   0.3494   0.3520   0.3605
  0.3674   0.3705   0.3756   0.3773   0.3817   0.3889   0.3934   0.4012
  0.4101   0.4140   0.4188   0.4295   0.4476   0.4666   0.4800   0.4998
  0.5053   0.5136   0.5375   0.5641   0.5859   0.5928   0.6017   0.6091
  0.6201   0.6442   0.6521   0.6559   0.6641   0.6893   0.6945   0.6998
  0.7115   0.7152   0.7209   0.7273   0.7377   0.7450   0.7643   0.7690
  0.7738   0.8000   0.8041   0.8152   0.8264   0.8345   0.8507   0.8766
  0.8864   0.9344   0.9394   0.9778   1.0035   1.0284   1.0371   1.0576
  1.0590   1.0737   1.0992   1.1120   1.1175   1.1322   1.1416   1.1506
  1.1646   1.1813   1.1932   1.2053   1.2072   1.2164   1.2202   1.2307
  1.2403   1.2497   1.2549   1.2687   1.2769   1.2951   1.3011   1.3061
  1.3210   1.3332   1.3515   1.3668   1.3954   1.4048   1.4126   1.4188
  1.4378   1.4579   1.4697   1.4796   1.4871   1.4937   1.5261   1.5385
  1.5451   1.5618   1.5768   1.5876   1.5955   1.6090   1.6324   1.6582
  1.6664   1.6806   1.6956   1.7214   1.7497   1.7581   1.7704   1.8078
  1.8576   1.8817   1.9099   1.9346   1.9789   1.9920   2.0104   2.0167
  2.0513   2.0572   2.1117   2.1479   2.1739   2.2415   2.2429   2.2643
  2.3112   2.3527   2.3891   2.4283   2.4462   2.4853   2.5681   2.6207
  2.6508   2.6727   2.6989   2.7171   2.7370   2.7773   2.7983   2.8163
  2.8296   2.8350   2.8612   2.8970   2.9086   2.9196   2.9487   2.9544
  2.9619   2.9851   3.0026   3.0060   3.0229   3.0550   3.0722   3.0835
  3.1323   3.1397   3.1527   3.1605   3.2043   3.2225   3.2297   3.2602
  3.2742   3.2981   3.3154   3.3278   3.3453   3.3613   3.3830   3.4036
  3.4162   3.4394   3.4438   3.4717   3.4842   3.5006   3.5257   3.5439
  3.5566   3.5776   3.6087   3.6211   3.6281   3.6372   3.6681   3.6837
  3.7156   3.7357   3.7421   3.7641   3.7717   3.7887   3.7950   3.8025
  3.8377   3.8422   3.8711   3.8840   3.8892   3.9253   3.9529   3.9687
  3.9877   3.9909   4.0153   4.0437   4.0702   4.0955   4.1291   4.1572
  4.1697   4.1966   4.2210   4.2492   4.2694   4.2952   4.3145   4.3388
  4.3552   4.3848   4.3935   4.4094   4.4257   4.4301   4.4786   4.4853
  4.5126   4.5363   4.5535   4.6099   4.6463   4.6505   4.6616   4.7069
  4.7219   4.7598   4.7834   4.8327   4.8908   4.9370   4.9804   5.0806
  5.1376   5.1558   5.1926   5.2043   5.2241   5.2630   5.2739   5.2981
  5.3080   5.3211   5.3337   5.3478   5.3840   5.3908   5.4112   5.4445
  5.4787   5.5018   5.5202   5.5306   5.5380   5.5585   5.5798   5.6039
  5.6824   5.6925   5.7430   5.7723   5.8165   5.8413   5.8762   5.9028
  5.9464   5.9913   6.0293   6.0976   6.1472   6.3212   6.3299   6.5784
  6.6001   6.7075   6.7362   6.8310   6.9737   6.9888   7.0110   7.0913
  7.1817   7.2561   7.3009   7.3333   7.3506   7.3827   7.4113   7.4254
  7.4369   7.5271   7.5402   7.6134   7.6971   7.7899   7.8416   7.8826
  7.9289   8.2073  24.3830  24.6685  24.7966  24.8599  24.9852  25.1967
 50.5618  50.6170  50.6427  50.7116
 
 Beta MOs
 -- Occupied --
-19.4412 -19.4204 -19.3538 -19.3200 -10.4339 -10.4221 -10.4181 -10.4156
-10.3564 -10.3544  -1.3035  -1.1783  -1.1576  -1.0955  -0.9505  -0.8922
 -0.7998  -0.7549  -0.7263  -0.6829  -0.6635  -0.6443  -0.6014  -0.5870
 -0.5744  -0.5606  -0.5409  -0.5272  -0.5194  -0.5062  -0.4961  -0.4688
 -0.4463  -0.4131  -0.3877  -0.3751  -0.3609
 -- Virtual --
 -0.0243   0.0249   0.0356   0.0374   0.0431   0.0532   0.0585   0.0599
  0.0750   0.0782   0.0933   0.1074   0.1110   0.1191   0.1310   0.1329
  0.1352   0.1367   0.1455   0.1468   0.1497   0.1563   0.1618   0.1679
  0.1712   0.1810   0.1820   0.1910   0.1972   0.1982   0.2127   0.2280
  0.2312   0.2399   0.2483   0.2574   0.2745   0.2817   0.2872   0.3022
  0.3078   0.3154   0.3259   0.3284   0.3415   0.3469   0.3511   0.3554
  0.3648   0.3681   0.3712   0.3773   0.3784   0.3837   0.3899   0.3959
  0.4022   0.4108   0.4163   0.4220   0.4329   0.4521   0.4676   0.4816
  0.5015   0.5070   0.5171   0.5394   0.5654   0.5880   0.5943   0.6042
  0.6108   0.6217   0.6458   0.6545   0.6584   0.6683   0.6918   0.6989
  0.7036   0.7177   0.7186   0.7226   0.7309   0.7392   0.7525   0.7656
  0.7722   0.7765   0.8027   0.8055   0.8188   0.8293   0.8370   0.8518
  0.8789   0.8888   0.9363   0.9423   0.9803   1.0052   1.0297   1.0415
  1.0609   1.0612   1.0771   1.1055   1.1149   1.1200   1.1346   1.1439
  1.1548   1.1675   1.1829   1.1955   1.2082   1.2134   1.2190   1.2241
  1.2341   1.2421   1.2536   1.2577   1.2701   1.2811   1.2985   1.3050
  1.3104   1.3254   1.3357   1.3539   1.3731   1.3988   1.4071   1.4157
  1.4216   1.4408   1.4615   1.4750   1.4829   1.4907   1.4969   1.5278
  1.5418   1.5486   1.5652   1.5800   1.5938   1.6010   1.6133   1.6381
  1.6635   1.6712   1.6844   1.6992   1.7249   1.7542   1.7630   1.7787
  1.8134   1.8609   1.8846   1.9177   1.9414   1.9858   1.9972   2.0140
  2.0231   2.0585   2.0607   2.1154   2.1502   2.1793   2.2462   2.2477
  2.2690   2.3157   2.3551   2.3913   2.4355   2.4493   2.4923   2.5730
  2.6255   2.6558   2.6789   2.7092   2.7213   2.7472   2.7823   2.8064
  2.8238   2.8341   2.8411   2.8694   2.9054   2.9166   2.9292   2.9535
  2.9592   2.9718   2.9897   3.0076   3.0100   3.0326   3.0651   3.0844
  3.0937   3.1480   3.1522   3.1643   3.1736   3.2160   3.2327   3.2400
  3.2688   3.2817   3.3076   3.3207   3.3411   3.3494   3.3676   3.3919
  3.4071   3.4200   3.4498   3.4588   3.4780   3.4955   3.5177   3.5325
  3.5467   3.5674   3.5879   3.6157   3.6305   3.6491   3.6518   3.6764
  3.6913   3.7263   3.7415   3.7501   3.7722   3.7777   3.7991   3.8045
  3.8177   3.8449   3.8491   3.8826   3.8893   3.8966   3.9308   3.9597
  3.9731   3.9944   3.9996   4.0250   4.0506   4.0760   4.1057   4.1354
  4.1705   4.1742   4.2006   4.2265   4.2547   4.2797   4.3033   4.3242
  4.3442   4.3584   4.3967   4.3997   4.4152   4.4355   4.4375   4.4855
  4.4986   4.5216   4.5422   4.5605   4.6185   4.6497   4.6563   4.6713
  4.7146   4.7310   4.7644   4.7909   4.8441   4.8942   4.9457   4.9849
  5.0848   5.1481   5.1697   5.2075   5.2159   5.2392   5.2698   5.2794
  5.3031   5.3205   5.3285   5.3370   5.3586   5.3908   5.3971   5.4183
  5.4472   5.4839   5.5077   5.5284   5.5366   5.5500   5.5659   5.5903
  5.6140   5.6863   5.7003   5.7478   5.7790   5.8285   5.8502   5.8812
  5.9074   5.9620   5.9971   6.0335   6.0997   6.1493   6.3299   6.3425
  6.5824   6.6007   6.7104   6.7415   6.8412   6.9853   7.0151   7.0345
  7.0935   7.1869   7.2649   7.3070   7.3361   7.3594   7.3852   7.4264
  7.4323   7.4482   7.5338   7.5448   7.6207   7.6977   7.8015   7.8436
  7.8847   7.9310   8.2096  24.3831  24.6716  24.7970  24.8653  24.9851
 25.1968  50.5633  50.6199  50.6428  50.7158
 --------------------------------------------------------------
 
          Ground-State Mulliken Net Atomic Charges

     Atom                 Charge (a.u.)    Spin (a.u.)
  --------------------------------------------------------
      1 C                    -0.079325      -0.012422
      2 O                    -0.118069      -0.002889
      3 O                    -0.010319       0.124675
      4 C                    -0.018006       0.002613
      5 C                    -0.333828       0.583498
      6 C                    -0.206254       0.062656
      7 O                    -0.458497       0.205789
      8 C                    -0.051531      -0.027870
      9 C                    -0.346394       0.030939
     10 H                     0.290876      -0.002254
     11 H                     0.260461       0.029393
     12 H                     0.322357      -0.007944
     13 H                     0.229673       0.007576
     14 H                     0.276212       0.002367
     15 H                     0.302140       0.000445
     16 O                    -0.413947       0.003693
     17 H                     0.354452      -0.000265
  --------------------------------------------------------
  Sum of atomic charges =     0.000000
  Sum of spin   charges =     1.000000

 -----------------------------------------------------------------
                    Cartesian Multipole Moments
 -----------------------------------------------------------------
    Charge (ESU x 10^10)
                 0.0000
    Dipole Moment (Debye)
         X       1.1410      Y       2.5921      Z      -4.7203
       Tot       5.5047
    Quadrupole Moments (Debye-Ang)
        XX     -56.5795     XY     -13.4219     YY     -69.2066
        XZ       8.0993     YZ       2.4715     ZZ     -50.9154
    Octopole Moments (Debye-Ang^2)
       XXX      13.4205    XXY      20.4694    XYY      15.5275
       YYY      49.0016    XXZ     -27.9428    XYZ     -14.6809
       YYZ      -3.3781    XZZ       4.2123    YZZ      20.0028
       ZZZ     -22.7680
    Hexadecapole Moments (Debye-Ang^3)
      XXXX    -434.2693   XXXY     -75.0165   XXYY    -174.7042
      XYYY     -80.9124   YYYY    -574.9002   XXXZ      69.0937
      XXYZ      55.1873   XYYZ      39.1549   YYYZ      68.3538
      XXZZ    -142.8458   XYZZ     -26.6716   YYZZ    -178.9857
      XZZZ      75.2114   YZZZ      76.9811   ZZZZ    -442.0351
 -----------------------------------------------------------------
 Calculating analytic gradient of the SCF energy
 Gradient of CDS energy
            1           2           3           4           5           6
    1   0.0000708  -0.0000920  -0.0023284  -0.0008642   0.0020634  -0.0022439
    2   0.0002482  -0.0000375  -0.0025291  -0.0023676   0.0032354  -0.0012453
    3  -0.0001422  -0.0000167  -0.0008565  -0.0005483   0.0009586   0.0009971
            7           8           9          10          11          12
    1   0.0015392   0.0001932   0.0002827   0.0001320   0.0000518  -0.0000458
    2   0.0009933  -0.0002369  -0.0001125   0.0000488   0.0001140  -0.0001119
    3  -0.0001713  -0.0000065  -0.0000587  -0.0001732  -0.0001461   0.0001103
           13          14          15          16          17
    1   0.0001075   0.0001199   0.0001796   0.0011958  -0.0003615
    2   0.0001886  -0.0001555  -0.0000968   0.0022955  -0.0002308
    3  -0.0001921   0.0000645  -0.0000593   0.0004947  -0.0002544
 Gradient of SCF Energy
            1           2           3           4           5           6
    1  -0.0098429   0.0017606   0.0019596   0.0058171   0.0085772  -0.0065367
    2   0.0099738   0.0006984   0.0023857  -0.0154698   0.0003554  -0.0091598
    3   0.0084451   0.0005301   0.0015099   0.0130683  -0.0054079   0.0018870
            7           8           9          10          11          12
    1   0.0007683   0.0018972  -0.0057339   0.0067752  -0.0047056  -0.0103099
    2  -0.0019134   0.0089945  -0.0028823  -0.0003742   0.0087443   0.0044582
    3  -0.0004492  -0.0037658   0.0047265  -0.0116455  -0.0129247   0.0024855
           13          14          15          16          17
    1   0.0013667   0.0022023   0.0069429   0.0114365  -0.0123746
    2   0.0020228  -0.0012160  -0.0032906  -0.0097072   0.0063800
    3   0.0004049   0.0011371  -0.0021804   0.0155534  -0.0133744
 Max gradient component =       1.555E-02
 RMS gradient           =       7.173E-03
 Computing fast CPCM-SWIG gradient
 Updating gradient with PCM contributions...
 -- total gradient after adding PCM contribution --
---------------------------------------------------
  Atom         X              Y              Z     
---------------------------------------------------
   1       0.000007       0.000007      -0.000001
   2      -0.000000      -0.000011      -0.000028
   3      -0.000013       0.000011      -0.000000
   4       0.000153       0.000312       0.000036
   5       0.000013       0.000025       0.000006
   6       0.000018       0.000028       0.000003
   7      -0.000010       0.000012       0.000010
   8       0.000002       0.000006       0.000008
   9      -0.000002      -0.000001       0.000002
  10      -0.000001      -0.000018      -0.000003
  11      -0.000005      -0.000003      -0.000003
  12      -0.000002      -0.000004      -0.000006
  13       0.000001       0.000027      -0.000009
  14       0.000002       0.000014       0.000014
  15       0.000001      -0.000001       0.000010
  16      -0.000189      -0.000366      -0.000014
  17       0.000025      -0.000037      -0.000026
---------------------------------------------------
 Number of fixed atoms: 0
 Gradient time:  CPU 413.18 s  wall 34.19 s
 ######################################################
 ######################################################
 # Starting finite difference calculation for IDERIV  #
 Finite diff step size:  1.88973e-03 a.u.
 ----------------------------------------------------------------
             Standard Nuclear Orientation (Angstroms)
    I     Atom           X                Y                Z
 ----------------------------------------------------------------
    1      C       0.9585543508     0.0630275269    -1.0186033935
    2      O       1.1826766902     1.3709075328    -0.4575272313
    3      O       0.0025554246     1.6644977930     0.3493286879
    4      C      -0.5508724494     0.0954893375    -1.2609691175
    5      C      -0.9366581026     0.7541457492     0.0267791143
    6      C      -0.5808220408    -0.8819405893     1.5225329375
    7      O      -1.5981069274    -1.5915667271     1.5758127926
    8      C       0.6990976350    -1.4322286665     0.9757024414
    9      C       1.3830120288    -1.0386899037    -0.0918356525
   10      H       1.5289827942     0.0664912190    -1.9424259433
   11      H      -0.7668430366     0.7729192243    -2.0923236379
   12      H      -1.9320622090     1.0332215614     0.3434719797
   13      H      -0.4880012539    -0.0137331687     2.1875136977
   14      H       1.0753544910    -2.2646257403     1.5635108090
   15      H       2.3042605793    -1.5483684985    -0.3408290218
   16      O      -1.1121460809    -1.1726929908    -1.4851441138
   17      H      -1.8490400932    -1.0699737592    -2.0960434485
 ----------------------------------------------------------------
 Nuclear Repulsion Energy =         563.26641044 hartrees
 There are       38 alpha and       37 beta electrons
 Discretize the solute cavity surface with Lebedev spheres
	Using 110 Lebedev grid points for each H atom
	Using 194 Lebedev grid points for other atoms
	Atomic van der Waals radii will be scaled by 1.20
 Remove points where switching function is < 1.0e-08
 Keep 1277 surface tesserae and discard 1433 interior tesserae
 Molecular Surface Area = 147.958 Angst**2
 Requested basis set is 6-311++G(2df,2p)
 There are 122 shells and 410 basis functions
 A cutoff of  1.0D-12 yielded   6939 shell pairs
 There are     79395 function pairs (     99947 Cartesian)
 Smallest overlap matrix eigenvalue = 5.01E-06
 Guess MOs from SCF MO coefficient file

 -----------------------------------------------------------------------
  General SCF calculation program by
  Eric Jon Sundstrom, Paul Horn, Yuezhi Mao, Dmitri Zuev, Alec White,
  David Stuck, Shaama M.S., Shane Yost, Joonho Lee, David Small,
  Daniel Levine, Susi Lehtola, Hugh Burton, Evgeny Epifanovsky,
  Bang C. Huynh
 -----------------------------------------------------------------------
 Exchange:     0.1500 Hartree-Fock + 1.0000 wB97M-V + LR-HF
 Correlation:  1.0000 wB97M-V
 Using SG-2 standard quadrature grid
 Nonlocal Correlation:  VV10 with C = 0.0100 and b = 6.00 and scale = 1.00000
 Grid used for NLC:  SG-1 standard quadrature
 
 Citation of the SMD model:
 Marenich, A.V.; Cramer, C.J.; Truhlar, D.G.
 J. Phys. Chem. B 2009, 113, 6378-6396.
 iSolventCode=           1
 Solvent: water                                                           
 
 vradii
            1           2           3           4           5           6
    1   1.8500000   1.5200000   1.5200000   1.8500000   1.8500000   1.8500000
            7           8           9          10          11          12
    1   1.5200000   1.8500000   1.8500000   1.2000000   1.2000000   1.2000000
           13          14          15          16          17
    1   1.2000000   1.2000000   1.2000000   1.5200000   1.2000000
 -------------------------------------------------------
 OpenMP BLAS3 based DFT computing Module                
 Release: version 1.0, May 2013, Q-Chem Inc. Pittsburgh 
 -------------------------------------------------------
 A unrestricted SCF calculation will be
 performed using Roothaan-Hall, DIIS, GDM
 SCF converges when RMS gradient is below 1.0e-07
 ---------------------------------------
  Cycle       Energy         DIIS error
 ---------------------------------------
    1    -533.5139613272      2.47e-04  Roothaan Step
 ---------------------------------------
  Cycle       Energy         DIIS error
 ---------------------------------------
    1    -533.5475651824      3.07e-04  
    2    -533.5528984683      3.35e-04  Done DIIS. Switching to GDM
 ---------------------------------------
  Cycle       Energy        RMS Gradient
 ---------------------------------------
    1    -533.5528984683      2.48e-02   Normal BFGS step
    2    -533.5501012433      4.41e-02  Line search: overstep
    3    -533.5589183545      6.56e-03   Normal BFGS step
    4    -533.5592037663      2.15e-03   Normal BFGS step
    5    -533.5592808618      9.84e-04   Normal BFGS step
    6    -533.5592912180      3.22e-04   Normal BFGS step
    7    -533.5592946551      2.50e-04   Normal BFGS step
    8    -533.5592954419      7.57e-05   Normal BFGS step
    9    -533.5592956100      5.33e-05   Normal BFGS step
   10    -533.5592956717      2.47e-05   Normal BFGS step
   11    -533.5592956785      1.30e-05   Normal BFGS step
   12    -533.5592956807      6.52e-06   Normal BFGS step
   13    -533.5592956813      3.11e-06   Normal BFGS step
   14    -533.5592956814      2.11e-06   Normal BFGS step
   15    -533.5592956815      1.45e-06   Normal BFGS step
   16    -533.5592956815      7.45e-07   Normal BFGS step
   17    -533.5592956815      1.62e-07   Normal BFGS step
   18    -533.5592956815      9.61e-08  Convergence criterion met
 ---------------------------------------
 SCF time:   CPU 2567.27s  wall 176.00s 
<S^2> =          0.758969461
(3)  G-ENP(liq) elect-nuc-pol free energy of system     -533.559295682 a.u.
(4)  G-CDS(liq) cavity-dispersion-solvent structure 
     free energy                                                4.0210 kcal/mol
(6)  G-S(liq) free energy of system                     -533.552887878 a.u.
 SCF   energy in the final basis set =     -533.5528878781
 Total energy in the final basis set =     -533.5528878781
 
 --------------------------------------------------------------
 
                    Orbital Energies (a.u.)
 --------------------------------------------------------------
 
 Alpha MOs
 -- Occupied --
-19.4461 -19.4202 -19.3539 -19.3258 -10.4335 -10.4272 -10.4220 -10.4157
-10.3565 -10.3545  -1.3094  -1.1790  -1.1670  -1.1006  -0.9542  -0.8964
 -0.8055  -0.7626  -0.7341  -0.6900  -0.6683  -0.6469  -0.6077  -0.5935
 -0.5780  -0.5672  -0.5514  -0.5357  -0.5303  -0.5108  -0.4983  -0.4739
 -0.4699  -0.4181  -0.3951  -0.3768  -0.3670  -0.2903
 -- Virtual --
  0.0249   0.0345   0.0373   0.0420   0.0502   0.0569   0.0586   0.0680
  0.0753   0.0925   0.0958   0.1086   0.1105   0.1305   0.1330   0.1340
  0.1365   0.1452   0.1458   0.1493   0.1562   0.1620   0.1662   0.1704
  0.1791   0.1814   0.1905   0.1964   0.1984   0.2120   0.2279   0.2312
  0.2393   0.2472   0.2552   0.2734   0.2787   0.2857   0.2983   0.3056
  0.3145   0.3248   0.3263   0.3401   0.3444   0.3494   0.3520   0.3605
  0.3674   0.3705   0.3755   0.3773   0.3817   0.3889   0.3934   0.4012
  0.4101   0.4140   0.4188   0.4295   0.4476   0.4665   0.4800   0.4999
  0.5052   0.5136   0.5376   0.5641   0.5859   0.5928   0.6017   0.6091
  0.6201   0.6442   0.6521   0.6559   0.6641   0.6893   0.6945   0.6998
  0.7115   0.7151   0.7210   0.7273   0.7377   0.7450   0.7643   0.7690
  0.7738   0.8000   0.8041   0.8152   0.8264   0.8345   0.8507   0.8765
  0.8863   0.9344   0.9394   0.9777   1.0035   1.0284   1.0371   1.0576
  1.0589   1.0737   1.0992   1.1120   1.1175   1.1322   1.1415   1.1506
  1.1646   1.1813   1.1932   1.2053   1.2072   1.2164   1.2202   1.2307
  1.2403   1.2496   1.2550   1.2687   1.2770   1.2951   1.3012   1.3061
  1.3211   1.3332   1.3516   1.3668   1.3954   1.4048   1.4126   1.4187
  1.4378   1.4579   1.4697   1.4796   1.4870   1.4937   1.5261   1.5386
  1.5451   1.5618   1.5769   1.5876   1.5955   1.6090   1.6323   1.6582
  1.6664   1.6806   1.6955   1.7213   1.7497   1.7581   1.7704   1.8079
  1.8575   1.8816   1.9098   1.9345   1.9789   1.9920   2.0105   2.0167
  2.0512   2.0572   2.1117   2.1479   2.1740   2.2414   2.2430   2.2643
  2.3112   2.3527   2.3891   2.4283   2.4462   2.4855   2.5681   2.6207
  2.6508   2.6727   2.6989   2.7169   2.7368   2.7773   2.7980   2.8162
  2.8295   2.8349   2.8612   2.8970   2.9085   2.9196   2.9486   2.9542
  2.9618   2.9851   3.0026   3.0057   3.0229   3.0550   3.0722   3.0834
  3.1321   3.1397   3.1526   3.1605   3.2044   3.2225   3.2298   3.2601
  3.2744   3.2982   3.3154   3.3277   3.3453   3.3613   3.3830   3.4037
  3.4161   3.4395   3.4437   3.4716   3.4844   3.5006   3.5257   3.5438
  3.5565   3.5774   3.6087   3.6211   3.6281   3.6373   3.6681   3.6837
  3.7154   3.7355   3.7420   3.7641   3.7718   3.7886   3.7950   3.8025
  3.8377   3.8424   3.8710   3.8840   3.8891   3.9253   3.9528   3.9687
  3.9876   3.9909   4.0152   4.0437   4.0701   4.0953   4.1291   4.1571
  4.1698   4.1966   4.2210   4.2492   4.2692   4.2952   4.3144   4.3386
  4.3550   4.3849   4.3936   4.4092   4.4257   4.4302   4.4786   4.4855
  4.5128   4.5361   4.5536   4.6099   4.6462   4.6504   4.6615   4.7068
  4.7220   4.7596   4.7832   4.8328   4.8908   4.9369   4.9806   5.0807
  5.1375   5.1557   5.1925   5.2041   5.2239   5.2630   5.2739   5.2981
  5.3080   5.3211   5.3336   5.3478   5.3840   5.3909   5.4112   5.4445
  5.4787   5.5017   5.5202   5.5306   5.5381   5.5587   5.5798   5.6039
  5.6824   5.6926   5.7434   5.7722   5.8164   5.8412   5.8764   5.9031
  5.9464   5.9914   6.0294   6.0978   6.1470   6.3214   6.3301   6.5785
  6.6005   6.7074   6.7362   6.8310   6.9737   6.9888   7.0110   7.0913
  7.1817   7.2561   7.3008   7.3332   7.3505   7.3827   7.4113   7.4255
  7.4369   7.5271   7.5404   7.6133   7.6970   7.7899   7.8416   7.8825
  7.9290   8.2073  24.3832  24.6686  24.7959  24.8598  24.9852  25.1967
 50.5618  50.6170  50.6427  50.7116
 
 Beta MOs
 -- Occupied --
-19.4412 -19.4204 -19.3538 -19.3200 -10.4339 -10.4222 -10.4181 -10.4156
-10.3564 -10.3544  -1.3034  -1.1783  -1.1576  -1.0956  -0.9504  -0.8921
 -0.7999  -0.7549  -0.7262  -0.6828  -0.6634  -0.6443  -0.6015  -0.5871
 -0.5744  -0.5606  -0.5409  -0.5272  -0.5195  -0.5061  -0.4961  -0.4687
 -0.4463  -0.4132  -0.3876  -0.3751  -0.3609
 -- Virtual --
 -0.0243   0.0249   0.0356   0.0374   0.0431   0.0531   0.0585   0.0599
  0.0750   0.0782   0.0933   0.1074   0.1110   0.1191   0.1310   0.1329
  0.1352   0.1367   0.1455   0.1468   0.1497   0.1564   0.1618   0.1679
  0.1712   0.1810   0.1820   0.1910   0.1972   0.1982   0.2127   0.2280
  0.2312   0.2399   0.2483   0.2574   0.2745   0.2817   0.2873   0.3023
  0.3078   0.3153   0.3259   0.3284   0.3415   0.3469   0.3511   0.3554
  0.3647   0.3681   0.3712   0.3772   0.3784   0.3837   0.3899   0.3959
  0.4021   0.4108   0.4163   0.4220   0.4329   0.4521   0.4676   0.4816
  0.5016   0.5070   0.5171   0.5394   0.5654   0.5879   0.5943   0.6042
  0.6108   0.6216   0.6457   0.6545   0.6584   0.6683   0.6917   0.6989
  0.7036   0.7177   0.7186   0.7226   0.7309   0.7392   0.7525   0.7656
  0.7722   0.7765   0.8027   0.8055   0.8188   0.8293   0.8370   0.8517
  0.8788   0.8887   0.9362   0.9422   0.9803   1.0051   1.0298   1.0415
  1.0608   1.0612   1.0771   1.1054   1.1149   1.1200   1.1346   1.1438
  1.1548   1.1675   1.1829   1.1955   1.2082   1.2134   1.2190   1.2241
  1.2341   1.2421   1.2536   1.2577   1.2701   1.2811   1.2985   1.3050
  1.3104   1.3254   1.3356   1.3539   1.3730   1.3988   1.4071   1.4156
  1.4216   1.4407   1.4614   1.4750   1.4829   1.4905   1.4969   1.5278
  1.5418   1.5485   1.5653   1.5801   1.5938   1.6010   1.6133   1.6381
  1.6635   1.6711   1.6845   1.6991   1.7249   1.7542   1.7630   1.7787
  1.8136   1.8608   1.8846   1.9176   1.9414   1.9858   1.9971   2.0140
  2.0230   2.0584   2.0607   2.1154   2.1502   2.1794   2.2462   2.2476
  2.2690   2.3157   2.3551   2.3913   2.4355   2.4492   2.4925   2.5730
  2.6254   2.6558   2.6789   2.7091   2.7211   2.7470   2.7823   2.8062
  2.8237   2.8340   2.8409   2.8694   2.9054   2.9165   2.9292   2.9534
  2.9591   2.9717   2.9897   3.0075   3.0098   3.0326   3.0651   3.0844
  3.0936   3.1478   3.1522   3.1642   3.1736   3.2160   3.2327   3.2401
  3.2688   3.2817   3.3076   3.3207   3.3409   3.3494   3.3676   3.3919
  3.4071   3.4199   3.4498   3.4589   3.4780   3.4957   3.5176   3.5325
  3.5467   3.5673   3.5878   3.6157   3.6305   3.6491   3.6517   3.6765
  3.6913   3.7262   3.7413   3.7500   3.7721   3.7779   3.7990   3.8046
  3.8177   3.8449   3.8492   3.8825   3.8893   3.8966   3.9307   3.9595
  3.9731   3.9945   3.9995   4.0248   4.0506   4.0759   4.1055   4.1354
  4.1705   4.1742   4.2006   4.2264   4.2546   4.2794   4.3033   4.3241
  4.3440   4.3582   4.3968   4.3999   4.4150   4.4356   4.4376   4.4855
  4.4988   4.5218   4.5421   4.5607   4.6184   4.6495   4.6563   4.6713
  4.7145   4.7311   4.7642   4.7907   4.8442   4.8942   4.9457   4.9851
  5.0849   5.1481   5.1696   5.2074   5.2157   5.2390   5.2698   5.2793
  5.3031   5.3205   5.3284   5.3369   5.3586   5.3908   5.3971   5.4183
  5.4472   5.4839   5.5076   5.5285   5.5366   5.5500   5.5661   5.5903
  5.6140   5.6863   5.7004   5.7483   5.7789   5.8284   5.8501   5.8814
  5.9076   5.9620   5.9971   6.0335   6.0999   6.1491   6.3302   6.3426
  6.5824   6.6010   6.7103   6.7416   6.8411   6.9853   7.0151   7.0345
  7.0935   7.1869   7.2649   7.3070   7.3361   7.3594   7.3852   7.4265
  7.4324   7.4482   7.5338   7.5450   7.6206   7.6976   7.8015   7.8436
  7.8846   7.9311   8.2096  24.3833  24.6717  24.7963  24.8652  24.9851
 25.1969  50.5633  50.6199  50.6427  50.7158
 --------------------------------------------------------------
 
          Ground-State Mulliken Net Atomic Charges

     Atom                 Charge (a.u.)    Spin (a.u.)
  --------------------------------------------------------
      1 C                    -0.080236      -0.012366
      2 O                    -0.118072      -0.002900
      3 O                    -0.010222       0.124641
      4 C                    -0.018130       0.002572
      5 C                    -0.333673       0.583510
      6 C                    -0.206253       0.062665
      7 O                    -0.458490       0.205801
      8 C                    -0.051900      -0.027860
      9 C                    -0.345486       0.030937
     10 H                     0.291037      -0.002256
     11 H                     0.260497       0.029390
     12 H                     0.322363      -0.007950
     13 H                     0.229674       0.007575
     14 H                     0.276231       0.002366
     15 H                     0.302131       0.000445
     16 O                    -0.413922       0.003692
     17 H                     0.354450      -0.000265
  --------------------------------------------------------
  Sum of atomic charges =     0.000000
  Sum of spin   charges =     1.000000

 -----------------------------------------------------------------
                    Cartesian Multipole Moments
 -----------------------------------------------------------------
    Charge (ESU x 10^10)
                 0.0000
    Dipole Moment (Debye)
         X       1.1415      Y       2.5922      Z      -4.7201
       Tot       5.5047
    Quadrupole Moments (Debye-Ang)
        XX     -56.5790     XY     -13.4220     YY     -69.2079
        XZ       8.0971     YZ       2.4713     ZZ     -50.9136
    Octopole Moments (Debye-Ang^2)
       XXX      13.4053    XXY      20.4724    XYY      15.5190
       YYY      49.0022    XXZ     -27.9447    XYZ     -14.6814
       YYZ      -3.3765    XZZ       4.2130    YZZ      20.0017
       ZZZ     -22.7711
    Hexadecapole Moments (Debye-Ang^3)
      XXXX    -434.3306   XXXY     -75.0109   XXYY    -174.7231
      XYYY     -80.9161   YYYY    -574.9067   XXXZ      69.0999
      XXYZ      55.1855   XYYZ      39.1579   YYYZ      68.3521
      XXZZ    -142.8491   XYZZ     -26.6739   YYZZ    -178.9826
      XZZZ      75.2130   YZZZ      76.9795   ZZZZ    -442.0163
 -----------------------------------------------------------------
 Calculating analytic gradient of the SCF energy
 Gradient of CDS energy
            1           2           3           4           5           6
    1   0.0000728  -0.0000922  -0.0023284  -0.0008648   0.0020635  -0.0022439
    2   0.0002483  -0.0000375  -0.0025291  -0.0023676   0.0032354  -0.0012453
    3  -0.0001428  -0.0000165  -0.0008565  -0.0005486   0.0009586   0.0009971
            7           8           9          10          11          12
    1   0.0015392   0.0001933   0.0002821   0.0001313   0.0000518  -0.0000458
    2   0.0009933  -0.0002369  -0.0001125   0.0000488   0.0001141  -0.0001119
    3  -0.0001713  -0.0000065  -0.0000584  -0.0001728  -0.0001461   0.0001103
           13          14          15          16          17
    1   0.0001075   0.0001199   0.0001796   0.0011958  -0.0003615
    2   0.0001886  -0.0001555  -0.0000968   0.0022955  -0.0002308
    3  -0.0001921   0.0000645  -0.0000593   0.0004948  -0.0002544
 Gradient of SCF Energy
            1           2           3           4           5           6
    1  -0.0088192   0.0015802   0.0019525   0.0054934   0.0085203  -0.0065417
    2   0.0098775   0.0005949   0.0024380  -0.0154046   0.0003902  -0.0091707
    3   0.0082273   0.0005082   0.0015440   0.0130292  -0.0053603   0.0018815
            7           8           9          10          11          12
    1   0.0007665   0.0019198  -0.0059307   0.0065326  -0.0047283  -0.0103099
    2  -0.0019110   0.0089767  -0.0028273  -0.0003877   0.0087461   0.0044603
    3  -0.0004488  -0.0037547   0.0047107  -0.0114222  -0.0129221   0.0024872
           13          14          15          16          17
    1   0.0013681   0.0022065   0.0069377   0.0114261  -0.0123739
    2   0.0020227  -0.0012105  -0.0032492  -0.0097275   0.0063821
    3   0.0004062   0.0011504  -0.0022118   0.0155446  -0.0133694
 Max gradient component =       1.554E-02
 RMS gradient           =       7.118E-03
 Computing fast CPCM-SWIG gradient
 Updating gradient with PCM contributions...
 -- total gradient after adding PCM contribution --
---------------------------------------------------
  Atom         X              Y              Z     
---------------------------------------------------
   1       0.001018      -0.000078      -0.000233
   2      -0.000174      -0.000116      -0.000050
   3      -0.000019       0.000064       0.000035
   4      -0.000172       0.000361       0.000006
   5      -0.000045       0.000060       0.000051
   6       0.000014       0.000018      -0.000003
   7      -0.000012       0.000014       0.000011
   8       0.000024      -0.000015       0.000022
   9      -0.000203       0.000063      -0.000021
  10      -0.000236      -0.000031       0.000234
  11      -0.000025      -0.000001      -0.000003
  12      -0.000002      -0.000003      -0.000004
  13       0.000003       0.000026      -0.000008
  14       0.000006       0.000019       0.000027
  15      -0.000003       0.000037      -0.000020
  16      -0.000198      -0.000386      -0.000022
  17       0.000024      -0.000035      -0.000022
---------------------------------------------------
 Number of fixed atoms: 0
 Gradient time:  CPU 418.85 s  wall 32.61 s
 ----------------------------------------------------------------
             Standard Nuclear Orientation (Angstroms)
    I     Atom           X                Y                Z
 ----------------------------------------------------------------
    1      C       0.9565543508     0.0630275269    -1.0186033935
    2      O       1.1826766902     1.3709075328    -0.4575272313
    3      O       0.0025554246     1.6644977930     0.3493286879
    4      C      -0.5508724494     0.0954893375    -1.2609691175
    5      C      -0.9366581026     0.7541457492     0.0267791143
    6      C      -0.5808220408    -0.8819405893     1.5225329375
    7      O      -1.5981069274    -1.5915667271     1.5758127926
    8      C       0.6990976350    -1.4322286665     0.9757024414
    9      C       1.3830120288    -1.0386899037    -0.0918356525
   10      H       1.5289827942     0.0664912190    -1.9424259433
   11      H      -0.7668430366     0.7729192243    -2.0923236379
   12      H      -1.9320622090     1.0332215614     0.3434719797
   13      H      -0.4880012539    -0.0137331687     2.1875136977
   14      H       1.0753544910    -2.2646257403     1.5635108090
   15      H       2.3042605793    -1.5483684985    -0.3408290218
   16      O      -1.1121460809    -1.1726929908    -1.4851441138
   17      H      -1.8490400932    -1.0699737592    -2.0960434485
 ----------------------------------------------------------------
 Nuclear Repulsion Energy =         563.29437360 hartrees
 There are       38 alpha and       37 beta electrons
 Discretize the solute cavity surface with Lebedev spheres
	Using 110 Lebedev grid points for each H atom
	Using 194 Lebedev grid points for other atoms
	Atomic van der Waals radii will be scaled by 1.20
 Remove points where switching function is < 1.0e-08
 Keep 1277 surface tesserae and discard 1433 interior tesserae
 Molecular Surface Area = 147.958 Angst**2
 Requested basis set is 6-311++G(2df,2p)
 There are 122 shells and 410 basis functions
 A cutoff of  1.0D-12 yielded   6939 shell pairs
 There are     79395 function pairs (     99947 Cartesian)
 Smallest overlap matrix eigenvalue = 5.00E-06
 Guess MOs from SCF MO coefficient file

 -----------------------------------------------------------------------
  General SCF calculation program by
  Eric Jon Sundstrom, Paul Horn, Yuezhi Mao, Dmitri Zuev, Alec White,
  David Stuck, Shaama M.S., Shane Yost, Joonho Lee, David Small,
  Daniel Levine, Susi Lehtola, Hugh Burton, Evgeny Epifanovsky,
  Bang C. Huynh
 -----------------------------------------------------------------------
 Exchange:     0.1500 Hartree-Fock + 1.0000 wB97M-V + LR-HF
 Correlation:  1.0000 wB97M-V
 Using SG-2 standard quadrature grid
 Nonlocal Correlation:  VV10 with C = 0.0100 and b = 6.00 and scale = 1.00000
 Grid used for NLC:  SG-1 standard quadrature
 
 Citation of the SMD model:
 Marenich, A.V.; Cramer, C.J.; Truhlar, D.G.
 J. Phys. Chem. B 2009, 113, 6378-6396.
 iSolventCode=           1
 Solvent: water                                                           
 
 vradii
            1           2           3           4           5           6
    1   1.8500000   1.5200000   1.5200000   1.8500000   1.8500000   1.8500000
            7           8           9          10          11          12
    1   1.5200000   1.8500000   1.8500000   1.2000000   1.2000000   1.2000000
           13          14          15          16          17
    1   1.2000000   1.2000000   1.2000000   1.5200000   1.2000000
 -------------------------------------------------------
 OpenMP BLAS3 based DFT computing Module                
 Release: version 1.0, May 2013, Q-Chem Inc. Pittsburgh 
 -------------------------------------------------------
 A unrestricted SCF calculation will be
 performed using Roothaan-Hall, DIIS, GDM
 SCF converges when RMS gradient is below 1.0e-07
 ---------------------------------------
  Cycle       Energy         DIIS error
 ---------------------------------------
    1    -533.5139511102      2.47e-04  Roothaan Step
 ---------------------------------------
  Cycle       Energy         DIIS error
 ---------------------------------------
    1    -533.5475616431      3.07e-04  
    2    -533.5528912491      3.35e-04  Done DIIS. Switching to GDM
 ---------------------------------------
  Cycle       Energy        RMS Gradient
 ---------------------------------------
    1    -533.5528912491      2.48e-02   Normal BFGS step
    2    -533.5500895641      4.42e-02  Line search: overstep
    3    -533.5589182903      6.57e-03   Normal BFGS step
    4    -533.5592034926      2.14e-03   Normal BFGS step
    5    -533.5592806275      9.87e-04   Normal BFGS step
    6    -533.5592909607      3.20e-04   Normal BFGS step
    7    -533.5592944090      2.51e-04   Normal BFGS step
    8    -533.5592951958      7.64e-05   Normal BFGS step
    9    -533.5592953660      5.29e-05   Normal BFGS step
   10    -533.5592954277      2.47e-05   Normal BFGS step
   11    -533.5592954345      1.31e-05   Normal BFGS step
   12    -533.5592954368      6.46e-06   Normal BFGS step
   13    -533.5592954374      3.14e-06   Normal BFGS step
   14    -533.5592954376      2.12e-06   Normal BFGS step
   15    -533.5592954376      1.46e-06   Normal BFGS step
   16    -533.5592954376      7.47e-07   Normal BFGS step
   17    -533.5592954376      1.62e-07   Normal BFGS step
   18    -533.5592954376      9.59e-08  Convergence criterion met
 ---------------------------------------
 SCF time:   CPU 2562.75s  wall 175.00s 
<S^2> =          0.758967941
(3)  G-ENP(liq) elect-nuc-pol free energy of system     -533.559295438 a.u.
(4)  G-CDS(liq) cavity-dispersion-solvent structure 
     free energy                                                4.0208 kcal/mol
(6)  G-S(liq) free energy of system                     -533.552887902 a.u.
 SCF   energy in the final basis set =     -533.5528879017
 Total energy in the final basis set =     -533.5528879017
 
 --------------------------------------------------------------
 
                    Orbital Energies (a.u.)
 --------------------------------------------------------------
 
 Alpha MOs
 -- Occupied --
-19.4461 -19.4203 -19.3539 -19.3258 -10.4335 -10.4272 -10.4220 -10.4158
-10.3564 -10.3546  -1.3095  -1.1791  -1.1670  -1.1005  -0.9543  -0.8965
 -0.8054  -0.7626  -0.7341  -0.6900  -0.6683  -0.6469  -0.6077  -0.5935
 -0.5780  -0.5672  -0.5514  -0.5357  -0.5302  -0.5109  -0.4983  -0.4740
 -0.4698  -0.4181  -0.3952  -0.3768  -0.3670  -0.2903
 -- Virtual --
  0.0249   0.0345   0.0373   0.0420   0.0502   0.0569   0.0586   0.0680
  0.0753   0.0926   0.0958   0.1086   0.1105   0.1305   0.1329   0.1340
  0.1365   0.1452   0.1458   0.1493   0.1562   0.1620   0.1662   0.1704
  0.1790   0.1814   0.1905   0.1964   0.1983   0.2120   0.2279   0.2312
  0.2393   0.2471   0.2552   0.2735   0.2788   0.2857   0.2982   0.3056
  0.3145   0.3248   0.3263   0.3401   0.3444   0.3494   0.3520   0.3606
  0.3674   0.3705   0.3756   0.3773   0.3818   0.3889   0.3934   0.4013
  0.4101   0.4141   0.4188   0.4294   0.4475   0.4666   0.4800   0.4998
  0.5053   0.5136   0.5375   0.5642   0.5859   0.5928   0.6017   0.6091
  0.6201   0.6443   0.6521   0.6559   0.6641   0.6893   0.6945   0.6998
  0.7115   0.7152   0.7209   0.7273   0.7377   0.7450   0.7643   0.7690
  0.7739   0.8000   0.8041   0.8152   0.8264   0.8345   0.8507   0.8766
  0.8864   0.9345   0.9394   0.9778   1.0036   1.0283   1.0372   1.0576
  1.0591   1.0737   1.0992   1.1120   1.1175   1.1322   1.1416   1.1506
  1.1646   1.1813   1.1932   1.2053   1.2072   1.2164   1.2202   1.2308
  1.2403   1.2497   1.2549   1.2688   1.2769   1.2951   1.3011   1.3062
  1.3210   1.3332   1.3515   1.3668   1.3955   1.4048   1.4126   1.4189
  1.4378   1.4580   1.4697   1.4796   1.4872   1.4938   1.5262   1.5385
  1.5452   1.5617   1.5767   1.5877   1.5955   1.6090   1.6324   1.6582
  1.6665   1.6806   1.6956   1.7214   1.7497   1.7581   1.7704   1.8077
  1.8576   1.8817   1.9100   1.9346   1.9790   1.9921   2.0103   2.0168
  2.0513   2.0572   2.1116   2.1478   2.1739   2.2416   2.2429   2.2643
  2.3112   2.3527   2.3892   2.4282   2.4463   2.4852   2.5681   2.6208
  2.6508   2.6727   2.6988   2.7173   2.7372   2.7773   2.7985   2.8163
  2.8297   2.8351   2.8612   2.8970   2.9087   2.9196   2.9488   2.9546
  2.9619   2.9851   3.0027   3.0062   3.0229   3.0550   3.0722   3.0836
  3.1324   3.1397   3.1528   3.1606   3.2043   3.2226   3.2297   3.2602
  3.2741   3.2980   3.3155   3.3279   3.3452   3.3613   3.3830   3.4036
  3.4163   3.4394   3.4438   3.4717   3.4840   3.5007   3.5257   3.5439
  3.5567   3.5778   3.6087   3.6212   3.6282   3.6371   3.6680   3.6837
  3.7158   3.7358   3.7422   3.7641   3.7717   3.7888   3.7950   3.8025
  3.8377   3.8421   3.8711   3.8841   3.8892   3.9254   3.9530   3.9687
  3.9878   3.9908   4.0154   4.0437   4.0702   4.0957   4.1291   4.1573
  4.1697   4.1967   4.2211   4.2493   4.2696   4.2952   4.3147   4.3389
  4.3554   4.3848   4.3934   4.4096   4.4256   4.4299   4.4786   4.4851
  4.5124   4.5364   4.5533   4.6100   4.6465   4.6505   4.6617   4.7070
  4.7218   4.7599   4.7836   4.8326   4.8908   4.9370   4.9803   5.0806
  5.1377   5.1559   5.1926   5.2045   5.2244   5.2630   5.2739   5.2982
  5.3079   5.3211   5.3337   5.3478   5.3840   5.3908   5.4113   5.4445
  5.4787   5.5020   5.5201   5.5307   5.5380   5.5583   5.5798   5.6039
  5.6823   5.6925   5.7425   5.7724   5.8166   5.8414   5.8760   5.9026
  5.9463   5.9913   6.0292   6.0973   6.1473   6.3210   6.3297   6.5784
  6.5997   6.7076   6.7362   6.8311   6.9736   6.9888   7.0110   7.0913
  7.1817   7.2562   7.3010   7.3333   7.3506   7.3827   7.4113   7.4253
  7.4369   7.5271   7.5400   7.6135   7.6971   7.7899   7.8416   7.8827
  7.9288   8.2073  24.3828  24.6684  24.7972  24.8601  24.9852  25.1966
 50.5618  50.6170  50.6427  50.7116
 
 Beta MOs
 -- Occupied --
-19.4412 -19.4204 -19.3539 -19.3200 -10.4339 -10.4221 -10.4181 -10.4156
-10.3564 -10.3544  -1.3035  -1.1784  -1.1576  -1.0955  -0.9505  -0.8923
 -0.7998  -0.7549  -0.7263  -0.6829  -0.6635  -0.6443  -0.6014  -0.5870
 -0.5744  -0.5606  -0.5409  -0.5272  -0.5193  -0.5062  -0.4961  -0.4688
 -0.4462  -0.4131  -0.3878  -0.3751  -0.3609
 -- Virtual --
 -0.0243   0.0249   0.0356   0.0374   0.0431   0.0532   0.0585   0.0599
  0.0750   0.0782   0.0933   0.1073   0.1110   0.1191   0.1310   0.1329
  0.1352   0.1367   0.1455   0.1468   0.1497   0.1563   0.1618   0.1679
  0.1712   0.1810   0.1820   0.1910   0.1973   0.1982   0.2127   0.2280
  0.2312   0.2399   0.2483   0.2574   0.2745   0.2818   0.2872   0.3022
  0.3078   0.3154   0.3259   0.3283   0.3415   0.3469   0.3511   0.3553
  0.3648   0.3681   0.3712   0.3773   0.3785   0.3837   0.3898   0.3959
  0.4022   0.4108   0.4164   0.4221   0.4329   0.4520   0.4676   0.4816
  0.5015   0.5070   0.5171   0.5394   0.5654   0.5880   0.5943   0.6042
  0.6108   0.6217   0.6458   0.6545   0.6584   0.6683   0.6918   0.6989
  0.7036   0.7177   0.7186   0.7225   0.7309   0.7392   0.7525   0.7656
  0.7722   0.7766   0.8026   0.8055   0.8188   0.8293   0.8370   0.8518
  0.8789   0.8888   0.9363   0.9423   0.9804   1.0052   1.0297   1.0415
  1.0609   1.0613   1.0771   1.1055   1.1149   1.1200   1.1346   1.1439
  1.1548   1.1675   1.1829   1.1955   1.2082   1.2134   1.2191   1.2242
  1.2341   1.2421   1.2536   1.2577   1.2701   1.2810   1.2984   1.3050
  1.3104   1.3254   1.3357   1.3539   1.3731   1.3988   1.4071   1.4157
  1.4217   1.4408   1.4615   1.4750   1.4829   1.4908   1.4969   1.5279
  1.5418   1.5486   1.5652   1.5799   1.5939   1.6010   1.6133   1.6381
  1.6634   1.6712   1.6844   1.6992   1.7250   1.7543   1.7630   1.7787
  1.8133   1.8609   1.8847   1.9177   1.9414   1.9859   1.9972   2.0139
  2.0231   2.0585   2.0607   2.1153   2.1502   2.1793   2.2461   2.2478
  2.2690   2.3157   2.3551   2.3914   2.4355   2.4494   2.4922   2.5730
  2.6255   2.6558   2.6789   2.7092   2.7215   2.7474   2.7823   2.8066
  2.8239   2.8342   2.8412   2.8694   2.9055   2.9167   2.9292   2.9536
  2.9594   2.9719   2.9896   3.0076   3.0102   3.0326   3.0651   3.0844
  3.0938   3.1481   3.1523   3.1643   3.1736   3.2160   3.2328   3.2400
  3.2688   3.2816   3.3075   3.3207   3.3412   3.3493   3.3676   3.3919
  3.4071   3.4201   3.4498   3.4588   3.4780   3.4954   3.5177   3.5325
  3.5468   3.5675   3.5881   3.6156   3.6305   3.6490   3.6518   3.6764
  3.6913   3.7265   3.7417   3.7502   3.7722   3.7776   3.7992   3.8044
  3.8177   3.8449   3.8490   3.8827   3.8894   3.8967   3.9309   3.9598
  3.9731   3.9944   3.9997   4.0251   4.0506   4.0760   4.1060   4.1354
  4.1705   4.1742   4.2006   4.2265   4.2547   4.2800   4.3033   4.3243
  4.3443   4.3586   4.3967   4.3996   4.4154   4.4353   4.4374   4.4855
  4.4984   4.5215   4.5424   4.5604   4.6185   4.6498   4.6564   4.6713
  4.7147   4.7309   4.7645   4.7911   4.8440   4.8941   4.9457   4.9848
  5.0847   5.1482   5.1698   5.2076   5.2162   5.2393   5.2698   5.2794
  5.3032   5.3204   5.3285   5.3370   5.3586   5.3908   5.3971   5.4183
  5.4472   5.4840   5.5079   5.5283   5.5366   5.5500   5.5657   5.5903
  5.6140   5.6863   5.7002   5.7474   5.7792   5.8285   5.8503   5.8810
  5.9071   5.9620   5.9970   6.0334   6.0994   6.1495   6.3296   6.3424
  6.5824   6.6003   6.7106   6.7415   6.8412   6.9853   7.0151   7.0345
  7.0935   7.1869   7.2650   7.3071   7.3362   7.3595   7.3852   7.4264
  7.4323   7.4482   7.5338   7.5446   7.6208   7.6977   7.8015   7.8436
  7.8848   7.9310   8.2095  24.3830  24.6714  24.7976  24.8655  24.9851
 25.1967  50.5633  50.6199  50.6428  50.7158
 --------------------------------------------------------------
 
          Ground-State Mulliken Net Atomic Charges

     Atom                 Charge (a.u.)    Spin (a.u.)
  --------------------------------------------------------
      1 C                    -0.078413      -0.012478
      2 O                    -0.118067      -0.002879
      3 O                    -0.010417       0.124710
      4 C                    -0.017885       0.002654
      5 C                    -0.333982       0.583485
      6 C                    -0.206255       0.062646
      7 O                    -0.458504       0.205777
      8 C                    -0.051161      -0.027879
      9 C                    -0.347301       0.030941
     10 H                     0.290714      -0.002253
     11 H                     0.260426       0.029396
     12 H                     0.322350      -0.007938
     13 H                     0.229671       0.007576
     14 H                     0.276193       0.002367
     15 H                     0.302148       0.000445
     16 O                    -0.413973       0.003694
     17 H                     0.354455      -0.000265
  --------------------------------------------------------
  Sum of atomic charges =     0.000000
  Sum of spin   charges =     1.000000

 -----------------------------------------------------------------
                    Cartesian Multipole Moments
 -----------------------------------------------------------------
    Charge (ESU x 10^10)
                 0.0000
    Dipole Moment (Debye)
         X       1.1405      Y       2.5919      Z      -4.7204
       Tot       5.5046
    Quadrupole Moments (Debye-Ang)
        XX     -56.5800     XY     -13.4217     YY     -69.2053
        XZ       8.1016     YZ       2.4717     ZZ     -50.9173
    Octopole Moments (Debye-Ang^2)
       XXX      13.4358    XXY      20.4664    XYY      15.5360
       YYY      49.0010    XXZ     -27.9410    XYZ     -14.6804
       YYZ      -3.3797    XZZ       4.2116    YZZ      20.0038
       ZZZ     -22.7648
    Hexadecapole Moments (Debye-Ang^3)
      XXXX    -434.2081   XXXY     -75.0222   XXYY    -174.6854
      XYYY     -80.9088   YYYY    -574.8938   XXXZ      69.0875
      XXYZ      55.1891   XYYZ      39.1520   YYYZ      68.3555
      XXZZ    -142.8425   XYZZ     -26.6693   YYZZ    -178.9888
      XZZZ      75.2100   YZZZ      76.9827   ZZZZ    -442.0540
 -----------------------------------------------------------------
 Calculating analytic gradient of the SCF energy
 Gradient of CDS energy
            1           2           3           4           5           6
    1   0.0000687  -0.0000917  -0.0023284  -0.0008635   0.0020633  -0.0022439
    2   0.0002481  -0.0000375  -0.0025291  -0.0023676   0.0032354  -0.0012453
    3  -0.0001417  -0.0000168  -0.0008565  -0.0005479   0.0009585   0.0009971
            7           8           9          10          11          12
    1   0.0015392   0.0001932   0.0002833   0.0001328   0.0000517  -0.0000458
    2   0.0009933  -0.0002369  -0.0001125   0.0000489   0.0001140  -0.0001119
    3  -0.0001713  -0.0000064  -0.0000589  -0.0001735  -0.0001462   0.0001103
           13          14          15          16          17
    1   0.0001075   0.0001199   0.0001796   0.0011959  -0.0003615
    2   0.0001886  -0.0001555  -0.0000968   0.0022955  -0.0002307
    3  -0.0001921   0.0000645  -0.0000593   0.0004946  -0.0002544
 Gradient of SCF Energy
            1           2           3           4           5           6
    1  -0.0108694   0.0019410   0.0019668   0.0061434   0.0086342  -0.0065318
    2   0.0100700   0.0008021   0.0023335  -0.0155350   0.0003205  -0.0091489
    3   0.0086615   0.0005522   0.0014757   0.0131080  -0.0054555   0.0018925
            7           8           9          10          11          12
    1   0.0007701   0.0018747  -0.0055371   0.0070178  -0.0046829  -0.0103099
    2  -0.0019158   0.0090124  -0.0029372  -0.0003607   0.0087425   0.0044560
    3  -0.0004495  -0.0037770   0.0047424  -0.0118680  -0.0129274   0.0024839
           13          14          15          16          17
    1   0.0013654   0.0021982   0.0069480   0.0114469  -0.0123754
    2   0.0020230  -0.0012214  -0.0033320  -0.0096869   0.0063780
    3   0.0004036   0.0011237  -0.0021489   0.0155622  -0.0133793
 Max gradient component =       1.556E-02
 RMS gradient           =       7.231E-03
 Computing fast CPCM-SWIG gradient
 Updating gradient with PCM contributions...
 -- total gradient after adding PCM contribution --
---------------------------------------------------
  Atom         X              Y              Z     
---------------------------------------------------
   1      -0.001007       0.000093       0.000230
   2       0.000174       0.000093      -0.000006
   3      -0.000006      -0.000042      -0.000035
   4       0.000480       0.000263       0.000065
   5       0.000071      -0.000010      -0.000039
   6       0.000022       0.000038       0.000008
   7      -0.000008       0.000009       0.000009
   8      -0.000021       0.000027      -0.000005
   9       0.000199      -0.000065       0.000025
  10       0.000234      -0.000005      -0.000239
  11       0.000015      -0.000006      -0.000004
  12      -0.000002      -0.000006      -0.000007
  13       0.000000       0.000028      -0.000010
  14      -0.000002       0.000008       0.000002
  15       0.000005      -0.000040       0.000040
  16      -0.000180      -0.000346      -0.000006
  17       0.000026      -0.000039      -0.000029
---------------------------------------------------
 Number of fixed atoms: 0
 Gradient time:  CPU 411.38 s  wall 32.13 s
 ----------------------------------------------------------------
             Standard Nuclear Orientation (Angstroms)
    I     Atom           X                Y                Z
 ----------------------------------------------------------------
    1      C       0.9575543508     0.0640275269    -1.0186033935
    2      O       1.1826766902     1.3709075328    -0.4575272313
    3      O       0.0025554246     1.6644977930     0.3493286879
    4      C      -0.5508724494     0.0954893375    -1.2609691175
    5      C      -0.9366581026     0.7541457492     0.0267791143
    6      C      -0.5808220408    -0.8819405893     1.5225329375
    7      O      -1.5981069274    -1.5915667271     1.5758127926
    8      C       0.6990976350    -1.4322286665     0.9757024414
    9      C       1.3830120288    -1.0386899037    -0.0918356525
   10      H       1.5289827942     0.0664912190    -1.9424259433
   11      H      -0.7668430366     0.7729192243    -2.0923236379
   12      H      -1.9320622090     1.0332215614     0.3434719797
   13      H      -0.4880012539    -0.0137331687     2.1875136977
   14      H       1.0753544910    -2.2646257403     1.5635108090
   15      H       2.3042605793    -1.5483684985    -0.3408290218
   16      O      -1.1121460809    -1.1726929908    -1.4851441138
   17      H      -1.8490400932    -1.0699737592    -2.0960434485
 ----------------------------------------------------------------
 Nuclear Repulsion Energy =         563.28425435 hartrees
 There are       38 alpha and       37 beta electrons
 Discretize the solute cavity surface with Lebedev spheres
	Using 110 Lebedev grid points for each H atom
	Using 194 Lebedev grid points for other atoms
	Atomic van der Waals radii will be scaled by 1.20
 Remove points where switching function is < 1.0e-08
 Keep 1277 surface tesserae and discard 1433 interior tesserae
 Molecular Surface Area = 147.957 Angst**2
 Requested basis set is 6-311++G(2df,2p)
 There are 122 shells and 410 basis functions
 A cutoff of  1.0D-12 yielded   6939 shell pairs
 There are     79395 function pairs (     99947 Cartesian)
 Smallest overlap matrix eigenvalue = 5.02E-06
 Guess MOs from SCF MO coefficient file

 -----------------------------------------------------------------------
  General SCF calculation program by
  Eric Jon Sundstrom, Paul Horn, Yuezhi Mao, Dmitri Zuev, Alec White,
  David Stuck, Shaama M.S., Shane Yost, Joonho Lee, David Small,
  Daniel Levine, Susi Lehtola, Hugh Burton, Evgeny Epifanovsky,
  Bang C. Huynh
 -----------------------------------------------------------------------
 Exchange:     0.1500 Hartree-Fock + 1.0000 wB97M-V + LR-HF
 Correlation:  1.0000 wB97M-V
 Using SG-2 standard quadrature grid
 Nonlocal Correlation:  VV10 with C = 0.0100 and b = 6.00 and scale = 1.00000
 Grid used for NLC:  SG-1 standard quadrature
 
 Citation of the SMD model:
 Marenich, A.V.; Cramer, C.J.; Truhlar, D.G.
 J. Phys. Chem. B 2009, 113, 6378-6396.
 iSolventCode=           1
 Solvent: water                                                           
 
 vradii
            1           2           3           4           5           6
    1   1.8500000   1.5200000   1.5200000   1.8500000   1.8500000   1.8500000
            7           8           9          10          11          12
    1   1.5200000   1.8500000   1.8500000   1.2000000   1.2000000   1.2000000
           13          14          15          16          17
    1   1.2000000   1.2000000   1.2000000   1.5200000   1.2000000
 -------------------------------------------------------
 OpenMP BLAS3 based DFT computing Module                
 Release: version 1.0, May 2013, Q-Chem Inc. Pittsburgh 
 -------------------------------------------------------
 A unrestricted SCF calculation will be
 performed using Roothaan-Hall, DIIS, GDM
 SCF converges when RMS gradient is below 1.0e-07
 ---------------------------------------
  Cycle       Energy         DIIS error
 ---------------------------------------
    1    -533.5139597956      2.47e-04  Roothaan Step
 ---------------------------------------
  Cycle       Energy         DIIS error
 ---------------------------------------
    1    -533.5475696606      3.07e-04  
    2    -533.5529034419      3.35e-04  Done DIIS. Switching to GDM
 ---------------------------------------
  Cycle       Energy        RMS Gradient
 ---------------------------------------
    1    -533.5529034419      2.48e-02   Normal BFGS step
    2    -533.5501075006      4.41e-02  Line search: overstep
    3    -533.5589189834      6.56e-03   Normal BFGS step
    4    -533.5592044146      2.15e-03   Normal BFGS step
    5    -533.5592814373      9.83e-04   Normal BFGS step
    6    -533.5592917718      3.21e-04   Normal BFGS step
    7    -533.5592951999      2.49e-04   Normal BFGS step
    8    -533.5592959843      7.56e-05   Normal BFGS step
    9    -533.5592961508      5.34e-05   Normal BFGS step
   10    -533.5592962124      2.46e-05   Normal BFGS step
   11    -533.5592962192      1.31e-05   Normal BFGS step
   12    -533.5592962215      6.52e-06   Normal BFGS step
   13    -533.5592962220      3.10e-06   Normal BFGS step
   14    -533.5592962222      2.12e-06   Normal BFGS step
   15    -533.5592962222      1.46e-06   Normal BFGS step
   16    -533.5592962223      7.46e-07   Normal BFGS step
   17    -533.5592962223      1.63e-07   Normal BFGS step
   18    -533.5592962223      9.60e-08  Convergence criterion met
 ---------------------------------------
 SCF time:   CPU 2566.78s  wall 175.00s 
<S^2> =          0.758968598
(3)  G-ENP(liq) elect-nuc-pol free energy of system     -533.559296222 a.u.
(4)  G-CDS(liq) cavity-dispersion-solvent structure 
     free energy                                                4.0212 kcal/mol
(6)  G-S(liq) free energy of system                     -533.552888084 a.u.
 SCF   energy in the final basis set =     -533.5528880842
 Total energy in the final basis set =     -533.5528880842
 
 --------------------------------------------------------------
 
                    Orbital Energies (a.u.)
 --------------------------------------------------------------
 
 Alpha MOs
 -- Occupied --
-19.4461 -19.4203 -19.3539 -19.3258 -10.4335 -10.4272 -10.4220 -10.4157
-10.3564 -10.3546  -1.3096  -1.1791  -1.1670  -1.1007  -0.9542  -0.8965
 -0.8053  -0.7627  -0.7341  -0.6900  -0.6683  -0.6469  -0.6077  -0.5935
 -0.5780  -0.5672  -0.5513  -0.5357  -0.5303  -0.5109  -0.4983  -0.4739
 -0.4698  -0.4181  -0.3951  -0.3768  -0.3670  -0.2903
 -- Virtual --
  0.0249   0.0345   0.0373   0.0420   0.0502   0.0569   0.0586   0.0679
  0.0753   0.0925   0.0958   0.1086   0.1104   0.1305   0.1330   0.1340
  0.1365   0.1452   0.1458   0.1493   0.1562   0.1620   0.1662   0.1704
  0.1791   0.1814   0.1905   0.1964   0.1983   0.2120   0.2279   0.2312
  0.2394   0.2472   0.2552   0.2734   0.2788   0.2856   0.2983   0.3056
  0.3145   0.3248   0.3263   0.3401   0.3445   0.3494   0.3519   0.3606
  0.3673   0.3706   0.3756   0.3773   0.3817   0.3890   0.3934   0.4013
  0.4101   0.4140   0.4187   0.4295   0.4475   0.4666   0.4799   0.4998
  0.5053   0.5136   0.5375   0.5642   0.5859   0.5928   0.6016   0.6091
  0.6201   0.6442   0.6521   0.6559   0.6641   0.6893   0.6945   0.6998
  0.7115   0.7152   0.7209   0.7273   0.7377   0.7450   0.7642   0.7690
  0.7738   0.8000   0.8041   0.8152   0.8264   0.8345   0.8507   0.8765
  0.8864   0.9344   0.9394   0.9778   1.0035   1.0283   1.0371   1.0576
  1.0590   1.0737   1.0992   1.1120   1.1175   1.1322   1.1416   1.1506
  1.1646   1.1813   1.1932   1.2053   1.2072   1.2164   1.2202   1.2307
  1.2403   1.2496   1.2549   1.2687   1.2769   1.2951   1.3011   1.3061
  1.3211   1.3331   1.3516   1.3668   1.3955   1.4048   1.4126   1.4188
  1.4378   1.4579   1.4698   1.4796   1.4871   1.4937   1.5261   1.5386
  1.5451   1.5617   1.5768   1.5876   1.5955   1.6090   1.6323   1.6581
  1.6664   1.6807   1.6955   1.7213   1.7497   1.7580   1.7704   1.8077
  1.8576   1.8818   1.9099   1.9346   1.9789   1.9921   2.0103   2.0168
  2.0512   2.0572   2.1117   2.1481   2.1739   2.2415   2.2430   2.2645
  2.3115   2.3527   2.3892   2.4285   2.4462   2.4856   2.5681   2.6207
  2.6508   2.6726   2.6988   2.7170   2.7371   2.7774   2.7983   2.8163
  2.8296   2.8350   2.8611   2.8971   2.9086   2.9196   2.9487   2.9543
  2.9618   2.9851   3.0028   3.0062   3.0229   3.0550   3.0722   3.0835
  3.1321   3.1397   3.1527   3.1605   3.2043   3.2225   3.2298   3.2601
  3.2741   3.2981   3.3155   3.3278   3.3452   3.3613   3.3830   3.4035
  3.4163   3.4395   3.4438   3.4716   3.4843   3.5007   3.5257   3.5438
  3.5566   3.5777   3.6088   3.6211   3.6281   3.6372   3.6681   3.6838
  3.7155   3.7355   3.7421   3.7640   3.7719   3.7886   3.7950   3.8025
  3.8377   3.8422   3.8711   3.8841   3.8891   3.9254   3.9528   3.9687
  3.9877   3.9910   4.0152   4.0436   4.0702   4.0955   4.1291   4.1571
  4.1695   4.1964   4.2210   4.2493   4.2694   4.2950   4.3146   4.3386
  4.3551   4.3848   4.3934   4.4093   4.4257   4.4300   4.4786   4.4850
  4.5126   4.5363   4.5533   4.6096   4.6462   4.6505   4.6615   4.7069
  4.7217   4.7597   4.7832   4.8325   4.8905   4.9368   4.9803   5.0802
  5.1377   5.1558   5.1926   5.2044   5.2242   5.2628   5.2739   5.2981
  5.3080   5.3212   5.3336   5.3478   5.3840   5.3910   5.4112   5.4449
  5.4783   5.5019   5.5202   5.5307   5.5380   5.5587   5.5800   5.6038
  5.6825   5.6925   5.7432   5.7724   5.8168   5.8415   5.8764   5.9032
  5.9464   5.9915   6.0294   6.0971   6.1472   6.3214   6.3300   6.5784
  6.6027   6.7074   6.7362   6.8310   6.9737   6.9888   7.0110   7.0913
  7.1817   7.2563   7.3010   7.3333   7.3506   7.3829   7.4113   7.4255
  7.4369   7.5271   7.5404   7.6136   7.6971   7.7899   7.8417   7.8826
  7.9291   8.2074  24.3829  24.6685  24.7969  24.8600  24.9852  25.1963
 50.5619  50.6171  50.6427  50.7116
 
 Beta MOs
 -- Occupied --
-19.4412 -19.4204 -19.3539 -19.3200 -10.4339 -10.4221 -10.4181 -10.4156
-10.3563 -10.3544  -1.3036  -1.1783  -1.1576  -1.0957  -0.9504  -0.8922
 -0.7997  -0.7550  -0.7262  -0.6829  -0.6635  -0.6443  -0.6014  -0.5871
 -0.5744  -0.5606  -0.5409  -0.5272  -0.5194  -0.5062  -0.4962  -0.4688
 -0.4462  -0.4131  -0.3877  -0.3751  -0.3609
 -- Virtual --
 -0.0243   0.0249   0.0356   0.0374   0.0431   0.0532   0.0585   0.0599
  0.0750   0.0782   0.0933   0.1074   0.1110   0.1191   0.1310   0.1329
  0.1352   0.1367   0.1455   0.1468   0.1497   0.1563   0.1618   0.1679
  0.1712   0.1810   0.1820   0.1911   0.1972   0.1982   0.2127   0.2280
  0.2312   0.2399   0.2483   0.2575   0.2745   0.2818   0.2872   0.3023
  0.3077   0.3154   0.3259   0.3284   0.3415   0.3469   0.3511   0.3553
  0.3648   0.3681   0.3713   0.3773   0.3785   0.3837   0.3899   0.3960
  0.4022   0.4108   0.4163   0.4220   0.4329   0.4520   0.4676   0.4815
  0.5015   0.5070   0.5171   0.5394   0.5654   0.5880   0.5943   0.6042
  0.6108   0.6217   0.6458   0.6545   0.6584   0.6683   0.6918   0.6989
  0.7036   0.7177   0.7186   0.7226   0.7309   0.7392   0.7525   0.7656
  0.7722   0.7765   0.8027   0.8055   0.8188   0.8294   0.8370   0.8518
  0.8788   0.8888   0.9363   0.9423   0.9803   1.0051   1.0297   1.0415
  1.0609   1.0612   1.0771   1.1055   1.1149   1.1200   1.1346   1.1439
  1.1548   1.1675   1.1829   1.1955   1.2081   1.2134   1.2190   1.2241
  1.2341   1.2421   1.2536   1.2577   1.2701   1.2811   1.2985   1.3050
  1.3104   1.3254   1.3356   1.3539   1.3731   1.3988   1.4070   1.4156
  1.4216   1.4407   1.4614   1.4750   1.4829   1.4907   1.4969   1.5278
  1.5418   1.5486   1.5652   1.5800   1.5938   1.6010   1.6133   1.6381
  1.6634   1.6711   1.6845   1.6991   1.7249   1.7542   1.7630   1.7787
  1.8134   1.8609   1.8848   1.9176   1.9414   1.9858   1.9972   2.0139
  2.0232   2.0584   2.0607   2.1154   2.1504   2.1793   2.2462   2.2477
  2.2692   2.3161   2.3551   2.3913   2.4357   2.4493   2.4925   2.5730
  2.6254   2.6558   2.6789   2.7091   2.7211   2.7473   2.7824   2.8064
  2.8238   2.8342   2.8411   2.8694   2.9055   2.9166   2.9292   2.9535
  2.9591   2.9718   2.9896   3.0077   3.0103   3.0327   3.0651   3.0844
  3.0938   3.1478   3.1522   3.1643   3.1736   3.2159   3.2328   3.2401
  3.2686   3.2816   3.3076   3.3207   3.3410   3.3493   3.3676   3.3919
  3.4069   3.4201   3.4498   3.4589   3.4779   3.4956   3.5177   3.5325
  3.5466   3.5674   3.5880   3.6157   3.6305   3.6490   3.6518   3.6765
  3.6915   3.7262   3.7413   3.7500   3.7721   3.7779   3.7990   3.8044
  3.8177   3.8449   3.8490   3.8827   3.8893   3.8966   3.9308   3.9595
  3.9732   3.9946   3.9995   4.0248   4.0505   4.0760   4.1058   4.1354
  4.1703   4.1741   4.2004   4.2265   4.2548   4.2798   4.3032   4.3243
  4.3440   4.3583   4.3968   4.3995   4.4152   4.4354   4.4375   4.4855
  4.4984   4.5216   4.5423   4.5604   4.6182   4.6496   4.6563   4.6712
  4.7146   4.7308   4.7643   4.7907   4.8439   4.8939   4.9455   4.9848
  5.0844   5.1482   5.1697   5.2076   5.2160   5.2392   5.2696   5.2794
  5.3031   5.3206   5.3284   5.3370   5.3586   5.3908   5.3972   5.4182
  5.4476   5.4836   5.5078   5.5284   5.5367   5.5500   5.5660   5.5905
  5.6140   5.6864   5.7003   5.7480   5.7791   5.8287   5.8506   5.8814
  5.9077   5.9621   5.9972   6.0335   6.0992   6.1493   6.3302   6.3426
  6.5824   6.6033   6.7104   6.7416   6.8412   6.9853   7.0151   7.0345
[...]
     (0,0,2)       -3.00000E-11
 Nucleus-field energy     =     0.0000000004 hartrees
 Requested basis set is 6-311++G(2df,2p)
 There are 122 shells and 410 basis functions
 A cutoff of  1.0D-12 yielded   6949 shell pairs
 There are     79498 function pairs (    100077 Cartesian)
 Smallest overlap matrix eigenvalue = 4.87E-06
 Guess MOs from SCF MO coefficient file

 -----------------------------------------------------------------------
  General SCF calculation program by
  Eric Jon Sundstrom, Paul Horn, Yuezhi Mao, Dmitri Zuev, Alec White,
  David Stuck, Shaama M.S., Shane Yost, Joonho Lee, David Small,
  Daniel Levine, Susi Lehtola, Hugh Burton, Evgeny Epifanovsky,
  Bang C. Huynh
 -----------------------------------------------------------------------
 Exchange:     0.1500 Hartree-Fock + 1.0000 wB97M-V + LR-HF
 Correlation:  1.0000 wB97M-V
 Using SG-2 standard quadrature grid
 Nonlocal Correlation:  VV10 with C = 0.0100 and b = 6.00 and scale = 1.00000
 Grid used for NLC:  SG-1 standard quadrature
 
 Citation of the SMD model:
 Marenich, A.V.; Cramer, C.J.; Truhlar, D.G.
 J. Phys. Chem. B 2009, 113, 6378-6396.
 iSolventCode=           1
 Solvent: water                                                           
 
 vradii
            1           2           3           4           5           6
    1   1.8500000   1.5200000   1.5200000   1.8500000   1.8500000   1.8500000
            7           8           9          10          11          12
    1   1.5200000   1.8500000   1.8500000   1.2000000   1.2000000   1.2000000
           13          14          15          16          17
    1   1.2000000   1.2000000   1.2000000   1.5200000   1.2000000
 -------------------------------------------------------
 OpenMP BLAS3 based DFT computing Module                
 Release: version 1.0, May 2013, Q-Chem Inc. Pittsburgh 
 -------------------------------------------------------
 A unrestricted SCF calculation will be
 performed using Roothaan-Hall, DIIS, GDM
 SCF converges when RMS gradient is below 1.0e-07
 ---------------------------------------
  Cycle       Energy         DIIS error
 ---------------------------------------
    1    -533.5130961984      2.50e-04  Roothaan Step
 ---------------------------------------
  Cycle       Energy         DIIS error
 ---------------------------------------
    1    -533.5471411683      3.11e-04  
    2    -533.5525852885      3.42e-04  Done DIIS. Switching to GDM
 ---------------------------------------
  Cycle       Energy        RMS Gradient
 ---------------------------------------
    1    -533.5525852885      2.66e-02   Normal BFGS step
    2    -533.5496274240      4.71e-02  Line search: overstep
    3    -533.5588774982      7.16e-03   Normal BFGS step
    4    -533.5591744920      2.76e-03   Normal BFGS step
    5    -533.5592563889      1.18e-03   Normal BFGS step
    6    -533.5592674819      3.12e-04   Normal BFGS step
    7    -533.5592713368      2.60e-04   Normal BFGS step
    8    -533.5592722474      1.10e-04   Normal BFGS step
    9    -533.5592724696      6.10e-05   Normal BFGS step
   10    -533.5592725399      3.29e-05   Normal BFGS step
   11    -533.5592725495      1.60e-05   Normal BFGS step
   12    -533.5592725530      9.03e-06   Normal BFGS step
   13    -533.5592725539      5.39e-06   Normal BFGS step
   14    -533.5592725541      2.52e-06   Normal BFGS step
   15    -533.5592725542      1.35e-06   Normal BFGS step
   16    -533.5592725542      6.56e-07   Normal BFGS step
   17    -533.5592725542      2.58e-07   Normal BFGS step
   18    -533.5592725542      1.27e-07   Normal BFGS step
   19    -533.5592725542      8.86e-08  Convergence criterion met
 ---------------------------------------
 SCF time:   CPU 2667.64s  wall 182.00s 
<S^2> =          0.760145538
(3)  G-ENP(liq) elect-nuc-pol free energy of system     -533.559272554 a.u.
(4)  G-CDS(liq) cavity-dispersion-solvent structure 
     free energy                                                3.9592 kcal/mol
(6)  G-S(liq) free energy of system                     -533.552963142 a.u.
 SCF   energy in the final basis set =     -533.5529631416
 Total energy in the final basis set =     -533.5529631416
 
 --------------------------------------------------------------
 
                    Orbital Energies (a.u.)
 --------------------------------------------------------------
 
 Alpha MOs
 -- Occupied --
-19.4473 -19.4209 -19.3546 -19.3241 -10.4328 -10.4307 -10.4229 -10.4160
-10.3559 -10.3536  -1.3107  -1.1802  -1.1632  -1.1020  -0.9557  -0.8960
 -0.8060  -0.7647  -0.7337  -0.6913  -0.6698  -0.6469  -0.6082  -0.5932
 -0.5775  -0.5663  -0.5511  -0.5365  -0.5308  -0.5114  -0.4986  -0.4744
 -0.4685  -0.4188  -0.3957  -0.3761  -0.3663  -0.2960
 -- Virtual --
  0.0249   0.0351   0.0373   0.0424   0.0506   0.0575   0.0588   0.0700
  0.0753   0.0927   0.0992   0.1089   0.1102   0.1309   0.1332   0.1341
  0.1365   0.1453   0.1462   0.1489   0.1561   0.1619   0.1663   0.1708
  0.1793   0.1816   0.1905   0.1964   0.1980   0.2116   0.2279   0.2314
  0.2390   0.2467   0.2550   0.2734   0.2793   0.2868   0.3000   0.3058
  0.3146   0.3242   0.3271   0.3398   0.3444   0.3493   0.3533   0.3595
  0.3674   0.3713   0.3753   0.3785   0.3820   0.3889   0.3933   0.4011
  0.4099   0.4131   0.4189   0.4292   0.4468   0.4667   0.4794   0.4995
  0.5053   0.5146   0.5374   0.5630   0.5863   0.5924   0.6020   0.6084
  0.6201   0.6440   0.6518   0.6542   0.6658   0.6899   0.6943   0.6996
  0.7119   0.7158   0.7218   0.7273   0.7379   0.7455   0.7647   0.7684
  0.7737   0.7989   0.8048   0.8176   0.8280   0.8395   0.8506   0.8777
  0.8869   0.9351   0.9437   0.9815   1.0031   1.0297   1.0426   1.0601
  1.0632   1.0727   1.1104   1.1172   1.1210   1.1342   1.1412   1.1508
  1.1672   1.1835   1.1932   1.2050   1.2106   1.2160   1.2223   1.2332
  1.2429   1.2492   1.2566   1.2708   1.2778   1.2967   1.3018   1.3125
  1.3227   1.3351   1.3510   1.3658   1.3981   1.4045   1.4130   1.4206
  1.4357   1.4589   1.4688   1.4829   1.4887   1.4942   1.5246   1.5364
  1.5461   1.5626   1.5771   1.5882   1.5954   1.6106   1.6360   1.6606
  1.6689   1.6857   1.6973   1.7232   1.7529   1.7601   1.7716   1.8093
  1.8573   1.8780   1.9071   1.9409   1.9820   1.9958   2.0126   2.0181
  2.0483   2.0588   2.1143   2.1448   2.1773   2.2412   2.2446   2.2684
  2.3123   2.3483   2.3895   2.4259   2.4474   2.4893   2.5666   2.6177
  2.6495   2.6715   2.6943   2.7143   2.7329   2.7791   2.8013   2.8140
  2.8281   2.8365   2.8643   2.8958   2.9033   2.9130   2.9480   2.9547
  2.9578   2.9848   3.0011   3.0096   3.0186   3.0535   3.0738   3.0891
  3.1424   3.1449   3.1591   3.1723   3.2108   3.2316   3.2393   3.2700
  3.2767   3.3073   3.3166   3.3342   3.3491   3.3618   3.3900   3.4032
  3.4178   3.4483   3.4574   3.4769   3.4954   3.5098   3.5327   3.5469
  3.5644   3.5869   3.6155   3.6310   3.6327   3.6434   3.6813   3.6892
  3.7248   3.7408   3.7504   3.7675   3.7730   3.7922   3.7952   3.8135
  3.8432   3.8505   3.8798   3.8884   3.8935   3.9263   3.9609   3.9718
  3.9966   3.9995   4.0222   4.0465   4.0750   4.1008   4.1345   4.1613
  4.1702   4.2008   4.2248   4.2540   4.2754   4.2990   4.3201   4.3440
  4.3564   4.3907   4.3966   4.4154   4.4288   4.4295   4.4793   4.4897
  4.5154   4.5407   4.5544   4.6104   4.6475   4.6511   4.6662   4.7038
  4.7245   4.7591   4.7821   4.8352   4.8834   4.9380   4.9779   5.0787
  5.1383   5.1576   5.1935   5.2066   5.2257   5.2690   5.2726   5.2995
  5.3091   5.3228   5.3358   5.3490   5.3811   5.3904   5.4118   5.4448
  5.4823   5.5003   5.5192   5.5322   5.5386   5.5595   5.5803   5.6046
  5.6796   5.6912   5.7406   5.7760   5.8056   5.8325   5.8717   5.9057
  5.9509   5.9913   6.0313   6.0905   6.1511   6.3074   6.3244   6.5436
  6.5997   6.7152   6.7347   6.8375   6.9741   6.9925   7.0092   7.0904
  7.1715   7.2589   7.3030   7.3348   7.3552   7.3840   7.4162   7.4267
  7.4379   7.5271   7.5393   7.6136   7.7007   7.7913   7.8408   7.8830
  7.9280   8.2084  24.3820  24.6727  24.8003  24.8542  24.9746  25.2005
 50.5625  50.6189  50.6442  50.7083
 
 Beta MOs
 -- Occupied --
-19.4426 -19.4210 -19.3546 -19.3171 -10.4311 -10.4243 -10.4230 -10.4158
-10.3558 -10.3535  -1.3049  -1.1796  -1.1518  -1.0972  -0.9519  -0.8919
 -0.8000  -0.7573  -0.7259  -0.6843  -0.6652  -0.6442  -0.6016  -0.5871
 -0.5739  -0.5592  -0.5394  -0.5277  -0.5214  -0.5065  -0.4963  -0.4695
 -0.4406  -0.4139  -0.3878  -0.3745  -0.3590
 -- Virtual --
 -0.0314   0.0248   0.0357   0.0375   0.0431   0.0528   0.0585   0.0600
  0.0751   0.0783   0.0934   0.1078   0.1107   0.1239   0.1315   0.1331
  0.1360   0.1367   0.1461   0.1470   0.1494   0.1563   0.1618   0.1681
  0.1716   0.1812   0.1826   0.1911   0.1975   0.1978   0.2125   0.2281
  0.2313   0.2396   0.2478   0.2570   0.2744   0.2823   0.2882   0.3043
  0.3080   0.3155   0.3253   0.3295   0.3417   0.3467   0.3510   0.3567
  0.3635   0.3682   0.3719   0.3773   0.3798   0.3837   0.3897   0.3957
  0.4022   0.4108   0.4154   0.4218   0.4325   0.4513   0.4676   0.4811
  0.5013   0.5069   0.5179   0.5393   0.5643   0.5884   0.5941   0.6045
  0.6099   0.6217   0.6455   0.6542   0.6566   0.6694   0.6921   0.6987
  0.7029   0.7171   0.7198   0.7236   0.7304   0.7392   0.7536   0.7659
  0.7716   0.7758   0.8016   0.8060   0.8207   0.8302   0.8425   0.8516
  0.8801   0.8894   0.9368   0.9463   0.9840   1.0050   1.0312   1.0456
  1.0618   1.0668   1.0767   1.1160   1.1191   1.1248   1.1365   1.1437
  1.1551   1.1702   1.1853   1.1956   1.2078   1.2167   1.2194   1.2259
  1.2367   1.2445   1.2547   1.2587   1.2722   1.2823   1.3000   1.3058
  1.3164   1.3267   1.3382   1.3530   1.3722   1.4012   1.4067   1.4166
  1.4235   1.4388   1.4624   1.4739   1.4861   1.4925   1.4974   1.5265
  1.5396   1.5497   1.5657   1.5802   1.5946   1.6001   1.6157   1.6409
  1.6666   1.6735   1.6898   1.7009   1.7270   1.7578   1.7658   1.7802
  1.8146   1.8605   1.8811   1.9150   1.9477   1.9893   2.0009   2.0165
  2.0237   2.0552   2.0633   2.1178   2.1471   2.1828   2.2458   2.2491
  2.2731   2.3171   2.3512   2.3917   2.4330   2.4503   2.4959   2.5723
  2.6231   2.6550   2.6780   2.7060   2.7179   2.7425   2.7840   2.8090
  2.8215   2.8336   2.8418   2.8719   2.9050   2.9112   2.9212   2.9524
  2.9603   2.9662   2.9888   3.0059   3.0136   3.0269   3.0615   3.0833
  3.0987   3.1531   3.1592   3.1700   3.1848   3.2220   3.2402   3.2507
  3.2821   3.2852   3.3138   3.3227   3.3471   3.3544   3.3684   3.3994
  3.4063   3.4231   3.4549   3.4720   3.4821   3.5065   3.5257   3.5438
  3.5504   3.5760   3.5968   3.6225   3.6333   3.6526   3.6609   3.6893
  3.6962   3.7352   3.7464   3.7587   3.7743   3.7780   3.8012   3.8070
  3.8287   3.8517   3.8574   3.8907   3.8933   3.9008   3.9318   3.9658
  3.9776   4.0035   4.0081   4.0320   4.0542   4.0805   4.1105   4.1407
  4.1708   4.1797   4.2048   4.2303   4.2615   4.2849   4.3072   4.3285
  4.3513   4.3600   4.3974   4.4096   4.4206   4.4351   4.4411   4.4861
  4.5031   4.5256   4.5467   4.5600   4.6179   4.6506   4.6573   4.6757
  4.7127   4.7336   4.7634   4.7892   4.8454   4.8868   4.9462   4.9828
  5.0830   5.1487   5.1731   5.2112   5.2183   5.2403   5.2762   5.2787
  5.3040   5.3236   5.3297   5.3386   5.3644   5.3891   5.3966   5.4191
  5.4475   5.4878   5.5070   5.5288   5.5379   5.5511   5.5668   5.5909
  5.6153   5.6857   5.6966   5.7456   5.7825   5.8152   5.8440   5.8761
  5.9103   5.9658   5.9972   6.0351   6.0929   6.1532   6.3221   6.3332
  6.5484   6.6003   6.7183   6.7396   6.8476   6.9859   7.0231   7.0361
  7.0939   7.1776   7.2670   7.3085   7.3371   7.3649   7.3869   7.4289
  7.4383   7.4517   7.5349   7.5436   7.6207   7.7013   7.8049   7.8428
  7.8850   7.9301   8.2106  24.3822  24.6756  24.8007  24.8592  24.9745
 25.2007  50.5640  50.6217  50.6443  50.7133
 --------------------------------------------------------------
 
          Ground-State Mulliken Net Atomic Charges

     Atom                 Charge (a.u.)    Spin (a.u.)
  --------------------------------------------------------
      1 C                    -0.083494      -0.008188
      2 O                    -0.119181      -0.001971
      3 O                    -0.004648       0.124134
      4 C                    -0.026350       0.005134
      5 C                    -0.311069       0.530228
      6 C                    -0.211186       0.066803
      7 O                    -0.468945       0.244988
      8 C                    -0.058944      -0.025087
      9 C                    -0.345027       0.028079
     10 H                     0.290690      -0.001856
     11 H                     0.265588       0.026762
     12 H                     0.321895      -0.007110
     13 H                     0.230418       0.011341
     14 H                     0.277160       0.003007
     15 H                     0.301806       0.000338
     16 O                    -0.413259       0.003669
     17 H                     0.354547      -0.000270
  --------------------------------------------------------
  Sum of atomic charges =     0.000000
  Sum of spin   charges =     1.000000

 -----------------------------------------------------------------
                    Cartesian Multipole Moments
 -----------------------------------------------------------------
    Charge (ESU x 10^10)
                 0.0000
    Dipole Moment (Debye)
         X       1.1309      Y       2.7450      Z      -4.7891
       Tot       5.6347
    Quadrupole Moments (Debye-Ang)
        XX     -56.6107     XY     -13.4255     YY     -69.2105
        XZ       8.1413     YZ       2.4549     ZZ     -51.0854
    Octopole Moments (Debye-Ang^2)
       XXX      13.5925    XXY      20.7366    XYY      15.3799
       YYY      49.4397    XXZ     -28.1267    XYZ     -14.5561
       YYZ      -3.0365    XZZ       4.2005    YZZ      20.2089
       ZZZ     -22.0276
    Hexadecapole Moments (Debye-Ang^3)
      XXXX    -435.5449   XXXY     -75.4265   XXYY    -173.6339
      XYYY     -80.4582   YYYY    -566.8647   XXXZ      70.1260
      XXYZ      54.0012   XYYZ      38.7822   YYYZ      64.2140
      XXZZ    -141.8064   XYZZ     -26.3815   YYZZ    -176.6262
      XZZZ      74.6025   YZZZ      72.6279   ZZZZ    -437.5827
 -----------------------------------------------------------------
 Calculating analytic gradient of the SCF energy
 Gradient of CDS energy
            1           2           3           4           5           6
    1   0.0000714  -0.0000923  -0.0022818  -0.0010070   0.0020278  -0.0023500
    2   0.0002508  -0.0000388  -0.0025372  -0.0027118   0.0032385  -0.0013212
    3  -0.0001465  -0.0000170  -0.0008064  -0.0006455   0.0009036   0.0009681
            7           8           9          10          11          12
    1   0.0016367   0.0001886   0.0002907   0.0001315   0.0000498  -0.0000497
    2   0.0010669  -0.0002348  -0.0001188   0.0000497   0.0001206  -0.0001206
    3  -0.0001776   0.0000100  -0.0000576  -0.0001730  -0.0001400   0.0001117
           13          14          15          16          17
    1   0.0001199   0.0001154   0.0001793   0.0013332  -0.0003634
    2   0.0001951  -0.0001557  -0.0000953   0.0026393  -0.0002268
    3  -0.0001787   0.0000701  -0.0000594   0.0005903  -0.0002522
 Gradient of SCF Energy
            1           2           3           4           5           6
    1  -0.0100104   0.0018024   0.0022210   0.0060556   0.0085535  -0.0064148
    2   0.0098690   0.0006895   0.0026632  -0.0158178   0.0002845  -0.0093270
    3   0.0086274   0.0005693   0.0014021   0.0126663  -0.0056407   0.0023901
            7           8           9          10          11          12
    1   0.0007406   0.0021525  -0.0061312   0.0068821  -0.0048568  -0.0106121
    2  -0.0026211   0.0087401  -0.0029391  -0.0002893   0.0088377   0.0049944
    3   0.0001239  -0.0038016   0.0050790  -0.0117810  -0.0131712   0.0022112
           13          14          15          16          17
    1   0.0013060   0.0022637   0.0067634   0.0118997  -0.0126152
    2   0.0017817  -0.0011083  -0.0031859  -0.0091115   0.0065398
    3   0.0002355   0.0008854  -0.0021482   0.0155415  -0.0131889
 Max gradient component =       1.582E-02
 RMS gradient           =       7.235E-03
 Computing fast CPCM-SWIG gradient
 Updating gradient with PCM contributions...
 -- total gradient after adding PCM contribution --
---------------------------------------------------
  Atom         X              Y              Z     
---------------------------------------------------
   1      -0.000174       0.000075       0.000008
   2       0.000038      -0.000001      -0.000029
   3       0.000069       0.000195      -0.000127
   4      -0.000084       0.000205      -0.000226
   5      -0.000077       0.000209      -0.000372
   6      -0.000005      -0.000292       0.000203
   7       0.000291      -0.000159       0.000447
   8      -0.000057      -0.000132       0.000185
   9      -0.000112      -0.000036       0.000154
  10       0.000061      -0.000015       0.000026
  11       0.000163      -0.000291      -0.000165
  12      -0.000125       0.000216      -0.000085
  13      -0.000088      -0.000179      -0.000033
  14       0.000166      -0.000154      -0.000057
  15      -0.000086       0.000022       0.000019
  16      -0.000097       0.000401       0.000090
  17       0.000117      -0.000064      -0.000038
---------------------------------------------------
 Number of fixed atoms: 0
 Gradient time:  CPU 425.93 s  wall 32.86 s
rPathMan2.  file_steps = 952
 IRC --- Status = 4.  Checking bisector search.
 IRC --- Bisector search finished successfully.
 ------------------------------------------------------------------------
 Reaction path following.  The coordinates are cartesian              
 Step   3 E=    -533.552963 |G|=  0.001195 S_lin= 0.1617 S_tot= 0.1627
 ------------------------------------------------------------------------
  IRC -- convergence criterion reached.
 ----------------------------------------------------------------
             Standard Nuclear Orientation (Angstroms)
    I     Atom           X                Y                Z
 ----------------------------------------------------------------
    1      C       0.9575543508     0.0630275269    -1.0186033935
    2      O       1.1826766902     1.3709075328    -0.4575272313
    3      O       0.0025554246     1.6644977930     0.3493286879
    4      C      -0.5508724494     0.0954893375    -1.2609691175
    5      C      -0.9366581026     0.7541457492     0.0267791143
    6      C      -0.5808220408    -0.8819405893     1.5225329375
    7      O      -1.5981069274    -1.5915667271     1.5758127926
    8      C       0.6990976350    -1.4322286665     0.9757024414
    9      C       1.3830120288    -1.0386899037    -0.0918356525
   10      H       1.5289827942     0.0664912190    -1.9424259433
   11      H      -0.7668430366     0.7729192243    -2.0923236379
   12      H      -1.9320622090     1.0332215614     0.3434719797
   13      H      -0.4880012539    -0.0137331687     2.1875136977
   14      H       1.0753544910    -2.2646257403     1.5635108090
   15      H       2.3042605793    -1.5483684985    -0.3408290218
   16      O      -1.1121460809    -1.1726929908    -1.4851441138
   17      H      -1.8490400932    -1.0699737592    -2.0960434485
 ----------------------------------------------------------------
 Nuclear Repulsion Energy =         563.28039221 hartrees
 There are       38 alpha and       37 beta electrons
 Here is where we should summarize the reaction path
 Total job time:  3372.05s(wall), 48425.26s(cpu) 
 Thu May 16 16:33:29 2024

        *************************************************************
        *                                                           *
        *  Thank you very much for using Q-Chem.  Have a nice day.  *
        *                                                           *
        *************************************************************


