
Running Job 1 of 2 Q_in.in
qchem Q_in.in_178768.0 /scratch/ari.fischer/qChem2102896.hpc-mn1/qchem178768/ 0
/usr/local/qchem-5.4.1/exe/qcprog.exe_s Q_in.in_178768.0 /scratch/ari.fischer/qChem2102896.hpc-mn1/qchem178768/
                  Welcome to Q-Chem
     A Quantum Leap Into The Future Of Chemistry


 Q-Chem 5.4, Q-Chem, Inc., Pleasanton, CA (2021)

 License issued to: Nanyang Technological University (site)

 E. Epifanovsky,  A. T. B. Gilbert,  Xintian Feng,  Joonho Lee,  Yuezhi Mao,  
 N. Mardirossian,  P. Pokhilko,  A. White,  M. Wormit,  M. P. Coons,  
 A. L. Dempwolff,  Zhengting Gan,  D. Hait,  P. R. Horn,  L. D. Jacobson,  
 I. Kaliman,  J. Kussmann,  A. W. Lange,  Ka Un Lao,  D. S. Levine,  Jie Liu,  
 S. C. McKenzie,  A. F. Morrison,  K. Nanda,  F. Plasser,  D. R. Rehn,  
 M. L. Vidal,  Zhi-Qiang You,  Ying Zhu,  B. Alam,  B. Albrecht,  
 A. Aldossary,  E. Alguire,  J. H. Andersen,  D. Barton,  K. Begam,  A. Behn,  
 Y. A. Bernard,  E. J. Berquist,  H. Burton,  A. Carreras,  K. Carter-Fenk,  
 R. Chakraborty,  A. D. Chien,  K. D. Closser,  V. Cofer-Shabica,  
 S. Dasgupta,  Jia Deng,  M. de Wergifosse,  M. Diedenhofen,  Hainam Do,  
 S. Ehlert,  Po-Tung Fang,  S. Fatehi,  Qingguo Feng,  T. Friedhoff,  
 J. Gayvert,  Qinghui Ge,  G. Gidofalvi,  M. Goldey,  J. Gomes,  
 C. Gonzalez-Espinoza,  S. Gulania,  A. Gunina,  M. W. D. Hanson-Heine,  
 P. H. P. Harbach,  A. W. Hauser,  M. F. Herbst,  M. Hernandez Vera,  
 M. Hodecker,  Z. C. Holden,  S. Houck,  Xunkun Huang,  Kerwin Hui,  
 B. C. Huynh,  M. Ivanov,  Hyunjun Ji,  Hanjie Jiang,  B. Kaduk,  S. Kaehler,  
 K. Khistyaev,  Jaehoon Kim,  P. Klunzinger,  Z. Koczor-Benda,  
 Joong Hoon Koh,  D. Kosenkov,  L. Koulias,  T. Kowalczyk,  C. M. Krauter,  
 K. Kue,  A. Kunitsa,  T. Kus,  A. Landau,  K. V. Lawler,  D. Lefrancois,  
 S. Lehtola,  Rain Li,  Yi-Pei Li,  Jiashu Liang,  M. Liebenthal,  
 Hung-Hsuan Lin,  You-Sheng Lin,  Fenglai Liu,  Kuan-Yu Liu,  
 M. Loipersberger,  A. Luenser,  A. Manjanath,  P. Manohar,  E. Mansoor,  
 S. F. Manzer,  Shan-Ping Mao,  A. V. Marenich,  T. Markovich,  S. Mason,  
 S. A. Maurer,  P. F. McLaughlin,  M. F. S. J. Menger,  J.-M. Mewes,  
 S. A. Mewes,  P. Morgante,  J. W. Mullinax,  K. J. Oosterbaan,  G. Paran,  
 Alexander C. Paul,  Suranjan K. Paul,  F. Pavosevic,  Zheng Pei,  S. Prager,  
 E. I. Proynov,  E. Ramos,  B. Rana,  A. E. Rask,  A. Rettig,  R. M. Richard,  
 F. Rob,  E. Rossomme,  T. Scheele,  M. Scheurer,  M. Schneider,  
 N. Sergueev,  S. M. Sharada,  W. Skomorowski,  D. W. Small,  C. J. Stein,  
 Yu-Chuan Su,  E. J. Sundstrom,  Zhen Tao,  J. Thirman,  T. Tsuchimochi,  
 N. M. Tubman,  S. P. Veccham,  O. Vydrov,  J. Wenzel,  J. Witte,  A. Yamada,  
 Kun Yao,  S. Yeganeh,  S. R. Yost,  A. Zech,  Igor Ying Zhang,  Xing Zhang,  
 Yu Zhang,  D. Zuev,  A. Aspuru-Guzik,  A. T. Bell,  N. A. Besley,  
 K. B. Bravaya,  B. R. Brooks,  D. Casanova,  Jeng-Da Chai,  S. Coriani,  
 C. J. Cramer,  A. E. DePrince, III,  R. A. DiStasio Jr.,  A. Dreuw,  
 B. D. Dunietz,  T. R. Furlani,  W. A. Goddard III,  S. Grimme,  
 S. Hammes-Schiffer,  T. Head-Gordon,  W. J. Hehre,  Chao-Ping Hsu,  
 T.-C. Jagau,  Yousung Jung,  A. Klamt,  Jing Kong,  D. S. Lambrecht,  
 WanZhen Liang,  N. J. Mayhall,  C. W. McCurdy,  J. B. Neaton,  
 C. Ochsenfeld,  J. A. Parkhill,  R. Peverati,  V. A. Rassolov,  Yihan Shao,  
 L. V. Slipchenko,  T. Stauch,  R. P. Steele,  J. E. Subotnik,  
 A. J. W. Thom,  A. Tkatchenko,  D. G. Truhlar,  T. Van Voorhis,  
 T. A. Wesolowski,  K. B. Whaley,  H. L. Woodcock III,  P. M. Zimmerman,  
 S. Faraji,  P. M. W. Gill,  M. Head-Gordon,  J. M. Herbert,  A. I. Krylov

 Additional authors for Version 5.4.1: 
 S. Kotaru,  Shaozhi Li,  Xiangyuan Li,  F. Matz,  A. Molle,  Haisheng Ren,  
 Yingli Su,  Hung-Yi Tsai,  C. Utku,  Fang Wang

 Contributors to earlier versions of Q-Chem not listed above: 
 R. D. Adamson,  B. Austin,  R. Baer,  J. Baker,  G. J. O. Beran,  
 K. Brandhorst,  S. T. Brown,  E. F. C. Byrd,  A. K. Chakraborty,  
 G. K. L. Chan,  Chun-Min Chang,  Yunqing Chen,  C.-L. Cheng,  
 Siu Hung Chien,  D. M. Chipman,  D. L. Crittenden,  H. Dachsel,  
 R. J. Doerksen,  A. D. Dutoi,  R. G. Edgar,  J. Fosso-Tande,  
 L. Fusti-Molnar,  D. Ghosh,  A. Ghysels,  A. Golubeva-Zadorozhnaya,  
 J. Gonthier,  M. S. Gordon,  S. R. Gwaltney,  G. Hawkins,  J. E. Herr,  
 A. Heyden,  S. Hirata,  E. G. Hohenstein,  G. Kedziora,  F. J. Keil,  
 C. Kelley,  Jihan Kim,  R. A. King,  R. Z. Khaliullin,  P. P. Korambath,  
 W. Kurlancheek,  A. Laurent,  A. M. Lee,  M. S. Lee,  S. V. Levchenko,  
 Ching Yeh Lin,  D. Liotard,  E. Livshits,  R. C. Lochan,  I. Lotan,  
 L. A. Martinez-Martinez,  P. E. Maslen,  N. Nair,  D. P. O'Neill,  
 D. Neuhauser,  E. Neuscamman,  C. M. Oana,  R. Olivares-Amaya,  R. Olson,  
 T. M. Perrine,  B. Peters,  P. A. Pieniazek,  A. Prociuk,  Y. M. Rhee,  
 J. Ritchie,  M. A. Rohrdanz,  E. Rosta,  N. J. Russ,  H. F. Schaefer III,  
 M. W. Schmidt,  N. E. Schultz,  S. Sharma,  N. Shenvi,  C. D. Sherrill,  
 A. C. Simmonett,  A. Sodt,  T. Stein,  D. Stuck,  K. S. Thanthiriwatte,  
 V. Vanovschi,  L. Vogt,  Tao Wang,  A. Warshel,  M. A. Watson,  
 C. F. Williams,  Q. Wu,  X. Xu,  Jun Yang,  W. Zhang,  Yan Zhao

 Please cite Q-Chem as follows:
 Y. Shao et al., Mol. Phys. 113, 184-215 (2015)
 DOI: 10.1080/00268976.2014.952696

 Q-Chem 5.4.1 for Intel X86 EM64T Linux

 Parts of Q-Chem use Armadillo 9.800.1 (Horizon Scraper).
 http://arma.sourceforge.net/

 Q-Chem begins on Wed May 15 10:50:46 2024  

 Host: 
0

     Scratch files written to /scratch/ari.fischer/qChem2102896.hpc-mn1/qchem178768//
 Aug1521 |scratch|qcdevops|jenkins|workspace|build_RNUM 8249   
 Processing $rem in /usr/local/qchem-5.4.1/config/preferences:
 Processing $rem in /home/ari.fischer/.qchemrc:
 Symmetry turned off for PCM/SM12/SMD calculation


!!********************************************.
!!******************Warning*******************.
!!Desired Analytical derivatives not available.
!!Finite difference job might take a long time.
!!********************************************.
!!********************************************.


 2-order derivative to be evaluated numerically with 1-order analytical derivatives

 Checking the input file for inconsistencies... 	...done.

--------------------------------------------------------------
User input:
--------------------------------------------------------------
$molecule
0 2
C    0.9705001    0.0856606   -1.0563043
O    1.2579310    1.3850663   -0.4880120
O    0.1203325    1.6803422    0.3596400
C   -0.5312075    0.1405299   -1.2556348
C   -0.8655567    0.8151943    0.0343694
C   -0.6787086   -0.9137247    1.3522288
O   -1.6988030   -1.5957311    1.1427064
C    0.6678026   -1.4104839    0.9198684
C    1.3921764   -1.0073377   -0.1152515
H    1.5166822    0.0685488   -1.9953610
H   -0.7857264    0.7834832   -2.0985057
H   -1.8439616    1.1503969    0.3496474
H   -0.6741946   -0.1756153    2.1656331
H    1.0502750   -2.1984683    1.5619721
H    2.3577931   -1.4590795   -0.2993349
O   -0.9901599   -1.2746911   -1.3464022
H   -1.9462328   -1.2672107   -1.4723083
$end

$rem
BASIS = 6-311++G(2df,2p)
GUI = 2
JOB_TYPE = Frequency
METHOD = wB97M-V
SCF_ALGORITHM = DIIS_GDM
MAX_SCF_CYCLES = 400
SCF_CONVERGENCE = 6
THRESH = 11
solvent_method = SMD
$end

--------------------------------------------------------------
 ----------------------------------------------------------------
             Standard Nuclear Orientation (Angstroms)
    I     Atom           X                Y                Z
 ----------------------------------------------------------------
    1      C       0.9705001000     0.0856606000    -1.0563043000
    2      O       1.2579310000     1.3850663000    -0.4880120000
    3      O       0.1203325000     1.6803422000     0.3596400000
    4      C      -0.5312075000     0.1405299000    -1.2556348000
    5      C      -0.8655567000     0.8151943000     0.0343694000
    6      C      -0.6787086000    -0.9137247000     1.3522288000
    7      O      -1.6988030000    -1.5957311000     1.1427064000
    8      C       0.6678026000    -1.4104839000     0.9198684000
    9      C       1.3921764000    -1.0073377000    -0.1152515000
   10      H       1.5166822000     0.0685488000    -1.9953610000
   11      H      -0.7857264000     0.7834832000    -2.0985057000
   12      H      -1.8439616000     1.1503969000     0.3496474000
   13      H      -0.6741946000    -0.1756153000     2.1656331000
   14      H       1.0502750000    -2.1984683000     1.5619721000
   15      H       2.3577931000    -1.4590795000    -0.2993349000
   16      O      -0.9901599000    -1.2746911000    -1.3464022000
   17      H      -1.9462328000    -1.2672107000    -1.4723083000
 ----------------------------------------------------------------
 Nuclear Repulsion Energy =         570.10835160 hartrees
 There are       38 alpha and       37 beta electrons
 Requested basis set is 6-311++G(2df,2p)
 There are 122 shells and 410 basis functions

 Total QAlloc Memory Limit 288000 MB
 Mega-Array Size       188 MB
 MEM_STATIC part       192 MB
 
 Citation of the SMD model:
 Marenich, A.V.; Cramer, C.J.; Truhlar, D.G.
 J. Phys. Chem. B 2009, 113, 6378-6396.
 iSolventCode=           1
 Solvent: water                                                           
 
 vradii
            1           2           3           4           5           6
    1   1.8500000   1.5200000   1.5200000   1.8500000   1.8500000   1.8500000
            7           8           9          10          11          12
    1   1.5200000   1.8500000   1.8500000   1.2000000   1.2000000   1.2000000
           13          14          15          16          17
    1   1.2000000   1.2000000   1.2000000   1.5200000   1.2000000
 Changing PCM_VDW_RADII to SMD_RADIUS
 Discretize the solute cavity surface with Lebedev spheres
	Using 110 Lebedev grid points for each H atom
	Using 194 Lebedev grid points for other atoms
	Atomic van der Waals radii will be scaled by 1.20
 Remove points where switching function is < 1.0e-08
 Keep 1261 surface tesserae and discard 1449 interior tesserae
 Molecular Surface Area = 145.394 Angst**2
 A cutoff of  1.0D-11 yielded   6900 shell pairs
 There are     79177 function pairs (     99724 Cartesian)
 Smallest overlap matrix eigenvalue = 4.68E-06
 Guess from superposition of atomic densities
 Warning:  Energy on first SCF cycle will be non-variational
 SAD guess density has 75.000000 electrons

 -----------------------------------------------------------------------
  General SCF calculation program by
  Eric Jon Sundstrom, Paul Horn, Yuezhi Mao, Dmitri Zuev, Alec White,
  David Stuck, Shaama M.S., Shane Yost, Joonho Lee, David Small,
  Daniel Levine, Susi Lehtola, Hugh Burton, Evgeny Epifanovsky,
  Bang C. Huynh
 -----------------------------------------------------------------------
 Exchange:     0.1500 Hartree-Fock + 1.0000 wB97M-V + LR-HF
 Correlation:  1.0000 wB97M-V
 Using SG-2 standard quadrature grid
 Nonlocal Correlation:  VV10 with C = 0.0100 and b = 6.00 and scale = 1.00000
 Grid used for NLC:  SG-1 standard quadrature
 using 32 threads for integral computing
 -------------------------------------------------------
 OpenMP Integral computing Module                
 Release: version 1.0, May 2013, Q-Chem Inc. Pittsburgh 
 -------------------------------------------------------
 
 Citation of the SMD model:
 Marenich, A.V.; Cramer, C.J.; Truhlar, D.G.
 J. Phys. Chem. B 2009, 113, 6378-6396.
 iSolventCode=           1
 Solvent: water                                                           
 
 vradii
            1           2           3           4           5           6
    1   1.8500000   1.5200000   1.5200000   1.8500000   1.8500000   1.8500000
            7           8           9          10          11          12
    1   1.5200000   1.8500000   1.8500000   1.2000000   1.2000000   1.2000000
           13          14          15          16          17
    1   1.2000000   1.2000000   1.2000000   1.5200000   1.2000000
 -------------------------------------------------------
 OpenMP BLAS3 based DFT computing Module                
 Release: version 1.0, May 2013, Q-Chem Inc. Pittsburgh 
 -------------------------------------------------------
 A unrestricted SCF calculation will be
 performed using DIIS, GDM
 SCF converges when RMS gradient is below 1.0e-06
 ---------------------------------------
  Cycle       Energy         DIIS error
 ---------------------------------------
    1    -536.0245874477      1.23e-02  
    2    -533.3728981304      1.53e-03  Done DIIS. Switching to GDM
 ---------------------------------------
  Cycle       Energy        RMS Gradient
 ---------------------------------------
    1    -533.3728981304      1.46e-01   Descent step
    2    -533.5229835001      1.95e-02   Normal BFGS step
    3    -533.5430728411      1.47e-02   Normal BFGS step
    4    -533.5458629478      5.08e-03   Normal BFGS step
    5    -533.5467092761      3.14e-03   Normal BFGS step
    6    -533.5468939883      2.70e-03   Normal BFGS step
    7    -533.5469594341      1.14e-03   Normal BFGS step
    8    -533.5469674446      4.23e-04   Normal BFGS step
    9    -533.5469707917      1.69e-04   Normal BFGS step
   10    -533.5469713320      1.33e-04   Normal BFGS step
   11    -533.5469714088      5.88e-05   Normal BFGS step
   12    -533.5469714311      2.25e-05   Normal BFGS step
   13    -533.5469714364      1.07e-05   Normal BFGS step
   14    -533.5469714380      3.34e-06   Normal BFGS step
   15    -533.5469714382      1.76e-06   Normal BFGS step
   16    -533.5469714382      9.70e-07  Convergence criterion met
 ---------------------------------------
 SCF time:   CPU 2491.69s  wall 97.00s 
<S^2> =          0.760414811
(3)  G-ENP(liq) elect-nuc-pol free energy of system     -533.546971438 a.u.
(4)  G-CDS(liq) cavity-dispersion-solvent structure 
     free energy                                                3.8149 kcal/mol
(6)  G-S(liq) free energy of system                     -533.540892005 a.u.
 SCF   energy in the final basis set =     -533.5408920051
 Total energy in the final basis set =     -533.5408920051
 
 --------------------------------------------------------------
 
                    Orbital Energies (a.u.)
 --------------------------------------------------------------
 
 Alpha MOs
 -- Occupied --
-19.4472 -19.4208 -19.3478 -19.3216 -10.4310 -10.4299 -10.4243 -10.4162
-10.3540 -10.3518  -1.3129  -1.1667  -1.1480  -1.0975  -0.9568  -0.8972
 -0.8055  -0.7624  -0.7338  -0.6850  -0.6693  -0.6336  -0.6042  -0.5921
 -0.5713  -0.5666  -0.5486  -0.5344  -0.5288  -0.5053  -0.4973  -0.4694
 -0.4666  -0.4153  -0.4029  -0.3702  -0.3620  -0.2933
 -- Virtual --
  0.0252   0.0361   0.0381   0.0422   0.0508   0.0570   0.0579   0.0765
  0.0788   0.0906   0.0960   0.1081   0.1117   0.1294   0.1338   0.1348
  0.1404   0.1433   0.1471   0.1490   0.1522   0.1611   0.1649   0.1675
  0.1806   0.1828   0.1889   0.1966   0.1995   0.2122   0.2230   0.2325
  0.2380   0.2428   0.2488   0.2683   0.2831   0.2921   0.2966   0.3040
  0.3054   0.3194   0.3242   0.3380   0.3436   0.3511   0.3597   0.3652
  0.3702   0.3718   0.3754   0.3853   0.3873   0.3891   0.3951   0.3972
  0.4150   0.4168   0.4317   0.4433   0.4545   0.4683   0.4787   0.4988
  0.5089   0.5243   0.5372   0.5622   0.5872   0.5944   0.6028   0.6148
  0.6251   0.6385   0.6509   0.6596   0.6682   0.6855   0.6919   0.6940
  0.7074   0.7152   0.7256   0.7300   0.7382   0.7435   0.7636   0.7747
  0.7798   0.8031   0.8113   0.8189   0.8339   0.8378   0.8508   0.8748
  0.8980   0.9148   0.9526   0.9866   1.0056   1.0214   1.0366   1.0529
  1.0710   1.0800   1.1040   1.1149   1.1213   1.1374   1.1489   1.1635
  1.1729   1.1787   1.1931   1.2053   1.2083   1.2158   1.2274   1.2414
  1.2464   1.2638   1.2674   1.2758   1.2888   1.3048   1.3210   1.3284
  1.3373   1.3530   1.3658   1.3774   1.3918   1.4172   1.4269   1.4296
  1.4432   1.4616   1.4712   1.4844   1.4916   1.4964   1.5212   1.5359
  1.5465   1.5709   1.5773   1.5922   1.6010   1.6153   1.6214   1.6578
  1.6665   1.6991   1.7118   1.7202   1.7350   1.7687   1.7798   1.8226
  1.8446   1.8920   1.8955   1.9243   1.9784   1.9969   2.0119   2.0349
  2.0542   2.0609   2.1171   2.1358   2.1682   2.2076   2.2452   2.2519
  2.3103   2.3438   2.3539   2.4151   2.4345   2.5239   2.5652   2.6214
  2.6539   2.6784   2.6985   2.7309   2.7362   2.7714   2.7801   2.8059
  2.8165   2.8287   2.8501   2.8984   2.9085   2.9101   2.9388   2.9561
  2.9682   2.9840   2.9899   2.9972   3.0176   3.0520   3.0771   3.0906
  3.1391   3.1583   3.1620   3.1884   3.2165   3.2233   3.2559   3.2610
  3.2923   3.3029   3.3122   3.3253   3.3679   3.3694   3.3951   3.4127
  3.4389   3.4455   3.4574   3.4876   3.4998   3.5108   3.5308   3.5419
  3.5563   3.5793   3.6101   3.6227   3.6367   3.6575   3.6847   3.6863
  3.7149   3.7364   3.7497   3.7705   3.7734   3.7886   3.8033   3.8113
  3.8427   3.8581   3.8766   3.8892   3.9181   3.9361   3.9484   3.9634
  3.9853   3.9975   4.0373   4.0499   4.0775   4.1172   4.1294   4.1468
  4.1756   4.2146   4.2218   4.2596   4.2907   4.2969   4.3045   4.3294
  4.3836   4.3887   4.4095   4.4211   4.4369   4.4499   4.4834   4.5002
  4.5161   4.5521   4.5741   4.6236   4.6394   4.6702   4.6855   4.7020
  4.7411   4.7597   4.7957   4.8517   4.8825   4.9256   4.9800   5.0828
  5.1263   5.1587   5.1842   5.2052   5.2375   5.2514   5.2662   5.2847
  5.3014   5.3251   5.3412   5.3782   5.3794   5.4098   5.4267   5.4391
  5.4843   5.5103   5.5252   5.5385   5.5555   5.5641   5.5886   5.6299
  5.6675   5.6789   5.7389   5.7452   5.7764   5.8065   5.8410   5.8564
  5.9271   5.9529   6.0186   6.0567   6.0968   6.3222   6.3306   6.4371
  6.5572   6.5840   6.7655   6.8249   6.9698   7.0142   7.0278   7.1177
  7.1817   7.2594   7.2999   7.3189   7.3344   7.3607   7.4042   7.4258
  7.4391   7.5239   7.5364   7.6119   7.6819   7.7988   7.8199   7.8825
  7.9369   8.1990  24.3859  24.6173  24.7917  24.8375  24.9798  25.2048
 50.5608  50.6061  50.6426  50.7228
 
 Beta MOs
 -- Occupied --
-19.4423 -19.4209 -19.3476 -19.3150 -10.4305 -10.4245 -10.4220 -10.4161
-10.3538 -10.3517  -1.3069  -1.1590  -1.1440  -1.0925  -0.9527  -0.8932
 -0.7997  -0.7544  -0.7265  -0.6775  -0.6642  -0.6305  -0.5983  -0.5835
 -0.5679  -0.5606  -0.5378  -0.5264  -0.5176  -0.5001  -0.4952  -0.4650
 -0.4408  -0.4112  -0.3938  -0.3686  -0.3546
 -- Virtual --
 -0.0254   0.0252   0.0360   0.0381   0.0428   0.0522   0.0578   0.0592
  0.0776   0.0836   0.0925   0.1080   0.1123   0.1209   0.1295   0.1345
  0.1348   0.1405   0.1436   0.1485   0.1503   0.1521   0.1610   0.1668
  0.1680   0.1826   0.1844   0.1903   0.1965   0.1997   0.2128   0.2234
  0.2328   0.2390   0.2439   0.2505   0.2692   0.2851   0.2936   0.2994
  0.3051   0.3086   0.3214   0.3249   0.3402   0.3472   0.3535   0.3647
  0.3667   0.3719   0.3724   0.3763   0.3866   0.3879   0.3908   0.3983
  0.3994   0.4173   0.4188   0.4336   0.4456   0.4583   0.4694   0.4795
  0.5008   0.5108   0.5284   0.5388   0.5638   0.5903   0.5957   0.6053
  0.6158   0.6269   0.6412   0.6537   0.6623   0.6721   0.6882   0.6940
  0.6985   0.7108   0.7210   0.7286   0.7329   0.7422   0.7454   0.7659
  0.7778   0.7820   0.8043   0.8147   0.8219   0.8384   0.8401   0.8515
  0.8767   0.9003   0.9165   0.9572   0.9885   1.0071   1.0229   1.0384
  1.0544   1.0761   1.0827   1.1078   1.1181   1.1246   1.1408   1.1505
  1.1679   1.1778   1.1828   1.1965   1.2105   1.2123   1.2195   1.2300
  1.2427   1.2488   1.2657   1.2714   1.2782   1.2922   1.3063   1.3251
  1.3331   1.3398   1.3554   1.3715   1.3796   1.3947   1.4195   1.4296
  1.4339   1.4471   1.4670   1.4752   1.4876   1.4952   1.4991   1.5240
  1.5392   1.5502   1.5741   1.5802   1.5983   1.6057   1.6212   1.6248
  1.6632   1.6717   1.7029   1.7150   1.7246   1.7385   1.7737   1.7874
  1.8268   1.8473   1.8978   1.9021   1.9313   1.9835   2.0041   2.0155
  2.0405   2.0619   2.0653   2.1208   2.1381   2.1727   2.2112   2.2506
  2.2583   2.3140   2.3475   2.3558   2.4190   2.4422   2.5291   2.5706
  2.6298   2.6577   2.6864   2.7094   2.7359   2.7440   2.7753   2.7863
  2.8132   2.8193   2.8366   2.8533   2.9083   2.9149   2.9235   2.9428
  2.9619   2.9781   2.9918   2.9925   3.0049   3.0276   3.0594   3.0833
  3.0979   3.1551   3.1692   3.1731   3.2000   3.2226   3.2321   3.2660
  3.2723   3.3032   3.3109   3.3253   3.3300   3.3730   3.3753   3.4031
  3.4162   3.4487   3.4565   3.4691   3.4931   3.5133   3.5228   3.5439
  3.5463   3.5659   3.5857   3.6257   3.6331   3.6423   3.6673   3.6924
  3.7001   3.7241   3.7436   3.7565   3.7812   3.7871   3.7947   3.8120
  3.8197   3.8502   3.8627   3.8876   3.8987   3.9227   3.9383   3.9604
  3.9683   3.9896   4.0092   4.0444   4.0603   4.0849   4.1246   4.1398
  4.1535   4.1827   4.2188   4.2276   4.2643   4.2966   4.3035   4.3121
  4.3420   4.3879   4.3944   4.4164   4.4312   4.4483   4.4581   4.4918
  4.5097   4.5275   4.5600   4.5777   4.6299   4.6430   4.6777   4.6921
  4.7101   4.7506   4.7640   4.8016   4.8645   4.8856   4.9344   4.9842
  5.0872   5.1365   5.1718   5.1996   5.2209   5.2493   5.2588   5.2720
  5.2896   5.3121   5.3387   5.3445   5.3834   5.3916   5.4186   5.4342
  5.4431   5.4894   5.5161   5.5340   5.5488   5.5667   5.5714   5.5979
  5.6361   5.6722   5.6886   5.7434   5.7539   5.7798   5.8136   5.8491
  5.8654   5.9303   5.9681   6.0243   6.0621   6.0990   6.3354   6.3400
  6.4391   6.5612   6.5848   6.7731   6.8334   6.9812   7.0422   7.0557
  7.1211   7.1875   7.2691   7.3061   7.3240   7.3373   7.3666   7.4066
  7.4386   7.4619   7.5283   7.5441   7.6196   7.6834   7.8122   7.8214
  7.8859   7.9391   8.2013  24.3860  24.6194  24.7921  24.8437  24.9795
 25.2049  50.5623  50.6088  50.6432  50.7276
 --------------------------------------------------------------
 
          Ground-State Mulliken Net Atomic Charges

     Atom                 Charge (a.u.)    Spin (a.u.)
  --------------------------------------------------------
      1 C                    -0.143699      -0.002474
      2 O                    -0.116033      -0.001088
      3 O                    -0.021387       0.126516
      4 C                     0.020525       0.000903
      5 C                    -0.397678       0.556318
      6 C                    -0.195325       0.055594
      7 O                    -0.449384       0.233480
      8 C                    -0.077702      -0.024036
      9 C                    -0.309582       0.019729
     10 H                     0.289223      -0.001620
     11 H                     0.295528       0.024729
     12 H                     0.316936      -0.007497
     13 H                     0.232660       0.010302
     14 H                     0.291458       0.002683
     15 H                     0.302689       0.000234
     16 O                    -0.367811       0.006036
     17 H                     0.329583       0.000190
  --------------------------------------------------------
  Sum of atomic charges =     0.000000
  Sum of spin   charges =     1.000000

 -----------------------------------------------------------------
                    Cartesian Multipole Moments
 -----------------------------------------------------------------
    Charge (ESU x 10^10)
                -0.0000
    Dipole Moment (Debye)
         X       0.6305      Y       2.6275      Z      -2.7227
       Tot       3.8359
    Quadrupole Moments (Debye-Ang)
        XX     -56.3544     XY     -12.6337     YY     -68.6874
        XZ       4.4884     YZ      -0.6280     ZZ     -52.8734
    Octopole Moments (Debye-Ang^2)
       XXX      10.3535    XXY      18.2919    XYY      11.1309
       YYY      48.5188    XXZ     -19.4149    XYZ     -10.8288
       YYZ       3.6757    XZZ       6.1770    YZZ      19.8033
       ZZZ       3.9149
    Hexadecapole Moments (Debye-Ang^3)
      XXXX    -445.3979   XXXY     -84.1527   XXYY    -176.9573
      XYYY     -88.9661   YYYY    -588.0101   XXXZ      63.9120
      XXYZ      46.4857   XYYZ      34.8837   YYYZ      49.0321
      XXZZ    -138.5646   XYZZ     -30.0418   YYZZ    -165.7933
      XZZZ      38.1184   YZZZ      39.4346   ZZZZ    -389.5787
 -----------------------------------------------------------------
 Calculating analytic gradient of the SCF energy
 Gradient of CDS energy
            1           2           3           4           5           6
    1   0.0000920  -0.0000860  -0.0026475  -0.0000007   0.0025124  -0.0021933
    2   0.0002430  -0.0000351  -0.0025895  -0.0002677   0.0033696  -0.0012219
    3  -0.0001498  -0.0000010  -0.0009439  -0.0002655   0.0010633   0.0004584
            7           8           9          10          11          12
    1   0.0014715   0.0002183   0.0002869   0.0001262   0.0000398  -0.0000609
    2   0.0008698  -0.0002108  -0.0001225   0.0000456   0.0001121  -0.0001308
    3   0.0002840   0.0000188  -0.0000587  -0.0001779  -0.0001651   0.0001341
           13          14          15          16          17
    1   0.0001097   0.0001177   0.0001873   0.0001031  -0.0002767
    2   0.0002220  -0.0001451  -0.0000842   0.0002207  -0.0002751
    3  -0.0001131   0.0000824  -0.0000458   0.0002527  -0.0003728
 Gradient of SCF Energy
            1           2           3           4           5           6
    1  -0.0145363   0.0025053   0.0041071   0.0059899   0.0153205  -0.0033168
    2   0.0062402   0.0029994   0.0014883   0.0296152   0.0011459  -0.0073946
    3   0.0086954   0.0047815   0.0003916   0.0031781  -0.0100067   0.0000526
            7           8           9          10          11          12
    1   0.0008822   0.0012740  -0.0079051   0.0049839   0.0014522  -0.0126119
    2  -0.0049843   0.0081483  -0.0038011  -0.0005676   0.0165269   0.0045282
    3  -0.0070957  -0.0038426   0.0013453  -0.0114347  -0.0068795   0.0034819
           13          14          15          16          17
    1   0.0008736   0.0018900   0.0061971   0.0029185  -0.0100242
    2   0.0029946  -0.0018030  -0.0024493  -0.0556643   0.0029773
    3   0.0021492   0.0018734  -0.0014428   0.0191192  -0.0043660
 Max gradient component =       5.566E-02
 RMS gradient           =       1.110E-02
 Computing fast CPCM-SWIG gradient
 Updating gradient with PCM contributions...
 -- total gradient after adding PCM contribution --
---------------------------------------------------
  Atom         X              Y              Z     
---------------------------------------------------
   1      -0.006593      -0.002379      -0.000108
   2       0.000404       0.002020       0.004064
   3       0.002184      -0.000037      -0.001520
   4       0.002973       0.042809      -0.008524
   5       0.004174       0.002615      -0.002624
   6       0.002091       0.001130       0.001123
   7       0.000995      -0.000576      -0.010644
   8      -0.002038      -0.000999      -0.000839
   9      -0.001718      -0.000542      -0.001664
  10      -0.000959      -0.000233      -0.000808
  11       0.005410       0.007048       0.004041
  12      -0.000264      -0.000641      -0.000152
  13      -0.000149      -0.000399       0.000098
  14      -0.000324      -0.000060      -0.000282
  15      -0.000046       0.000063       0.000071
  16      -0.006553      -0.047620       0.017833
  17       0.000412      -0.002198      -0.000066
---------------------------------------------------
 Number of fixed atoms: 0
 Gradient time:  CPU 392.00 s  wall 19.84 s
 ######################################################
 ######################################################
 # Starting finite difference calculation for IDERIV  #
 Finite diff step size:  1.88973e-03 a.u.
 ----------------------------------------------------------------
             Standard Nuclear Orientation (Angstroms)
    I     Atom           X                Y                Z
 ----------------------------------------------------------------
    1      C       0.9715001000     0.0856606000    -1.0563043000
    2      O       1.2579310000     1.3850663000    -0.4880120000
    3      O       0.1203325000     1.6803422000     0.3596400000
    4      C      -0.5312075000     0.1405299000    -1.2556348000
    5      C      -0.8655567000     0.8151943000     0.0343694000
    6      C      -0.6787086000    -0.9137247000     1.3522288000
    7      O      -1.6988030000    -1.5957311000     1.1427064000
    8      C       0.6678026000    -1.4104839000     0.9198684000
    9      C       1.3921764000    -1.0073377000    -0.1152515000
   10      H       1.5166822000     0.0685488000    -1.9953610000
   11      H      -0.7857264000     0.7834832000    -2.0985057000
   12      H      -1.8439616000     1.1503969000     0.3496474000
   13      H      -0.6741946000    -0.1756153000     2.1656331000
   14      H       1.0502750000    -2.1984683000     1.5619721000
   15      H       2.3577931000    -1.4590795000    -0.2993349000
   16      O      -0.9901599000    -1.2746911000    -1.3464022000
   17      H      -1.9462328000    -1.2672107000    -1.4723083000
 ----------------------------------------------------------------
 Nuclear Repulsion Energy =         570.09445677 hartrees
 There are       38 alpha and       37 beta electrons
 Discretize the solute cavity surface with Lebedev spheres
	Using 110 Lebedev grid points for each H atom
	Using 194 Lebedev grid points for other atoms
	Atomic van der Waals radii will be scaled by 1.20
 Remove points where switching function is < 1.0e-08
 Keep 1260 surface tesserae and discard 1450 interior tesserae
 Molecular Surface Area = 145.394 Angst**2
 Requested basis set is 6-311++G(2df,2p)
 There are 122 shells and 410 basis functions
 A cutoff of  1.0D-11 yielded   6900 shell pairs
 There are     79177 function pairs (     99724 Cartesian)
 Smallest overlap matrix eigenvalue = 4.68E-06
 Guess MOs from SCF MO coefficient file

 -----------------------------------------------------------------------
  General SCF calculation program by
  Eric Jon Sundstrom, Paul Horn, Yuezhi Mao, Dmitri Zuev, Alec White,
  David Stuck, Shaama M.S., Shane Yost, Joonho Lee, David Small,
  Daniel Levine, Susi Lehtola, Hugh Burton, Evgeny Epifanovsky,
  Bang C. Huynh
 -----------------------------------------------------------------------
 Exchange:     0.1500 Hartree-Fock + 1.0000 wB97M-V + LR-HF
 Correlation:  1.0000 wB97M-V
 Using SG-2 standard quadrature grid
 Nonlocal Correlation:  VV10 with C = 0.0100 and b = 6.00 and scale = 1.00000
 Grid used for NLC:  SG-1 standard quadrature
 
 Citation of the SMD model:
 Marenich, A.V.; Cramer, C.J.; Truhlar, D.G.
 J. Phys. Chem. B 2009, 113, 6378-6396.
 iSolventCode=           1
 Solvent: water                                                           
 
 vradii
            1           2           3           4           5           6
    1   1.8500000   1.5200000   1.5200000   1.8500000   1.8500000   1.8500000
            7           8           9          10          11          12
    1   1.5200000   1.8500000   1.8500000   1.2000000   1.2000000   1.2000000
           13          14          15          16          17
    1   1.2000000   1.2000000   1.2000000   1.5200000   1.2000000
 -------------------------------------------------------
 OpenMP BLAS3 based DFT computing Module                
 Release: version 1.0, May 2013, Q-Chem Inc. Pittsburgh 
 -------------------------------------------------------
 A unrestricted SCF calculation will be
 performed using Roothaan-Hall, DIIS, GDM
 SCF converges when RMS gradient is below 1.0e-06
 ---------------------------------------
  Cycle       Energy         DIIS error
 ---------------------------------------
    1    -533.5071704718      2.23e-04  Roothaan Step
 ---------------------------------------
  Cycle       Energy         DIIS error
 ---------------------------------------
    1    -533.5371643395      2.85e-04  
    2    -533.5410581063      3.20e-04  Done DIIS. Switching to GDM
 ---------------------------------------
  Cycle       Energy        RMS Gradient
 ---------------------------------------
    1    -533.5410581063      2.33e-02   Normal BFGS step
    2    -533.5383074771      4.05e-02  Line search: overstep
    3    -533.5467010039      5.69e-03   Normal BFGS step
    4    -533.5469148446      1.92e-03   Normal BFGS step
    5    -533.5469718983      1.08e-03   Normal BFGS step
    6    -533.5469797957      1.85e-04   Normal BFGS step
    7    -533.5469823213      2.32e-04   Normal BFGS step
    8    -533.5469828983      1.17e-04   Normal BFGS step
    9    -533.5469830259      5.40e-05   Normal BFGS step
   10    -533.5469830734      2.36e-05   Normal BFGS step
   11    -533.5469830801      1.38e-05   Normal BFGS step
   12    -533.5469830825      8.74e-06   Normal BFGS step
   13    -533.5469830831      4.98e-06   Normal BFGS step
   14    -533.5469830832      2.08e-06   Normal BFGS step
   15    -533.5469830830      1.04e-06   Normal BFGS step
   16    -533.5469830827      6.50e-07  Convergence criterion met
 ---------------------------------------
 SCF time:   CPU 2635.36s  wall 103.00s 
<S^2> =          0.760414882
(3)  G-ENP(liq) elect-nuc-pol free energy of system     -533.546983083 a.u.
(4)  G-CDS(liq) cavity-dispersion-solvent structure 
     free energy                                                3.8150 kcal/mol
(6)  G-S(liq) free energy of system                     -533.540903474 a.u.
 SCF   energy in the final basis set =     -533.5409034737
 Total energy in the final basis set =     -533.5409034737
 
 --------------------------------------------------------------
 
                    Orbital Energies (a.u.)
 --------------------------------------------------------------
 
 Alpha MOs
 -- Occupied --
-19.4473 -19.4208 -19.3478 -19.3216 -10.4310 -10.4299 -10.4244 -10.4162
-10.3540 -10.3518  -1.3129  -1.1667  -1.1479  -1.0976  -0.9567  -0.8971
 -0.8055  -0.7624  -0.7338  -0.6850  -0.6692  -0.6336  -0.6043  -0.5921
 -0.5713  -0.5666  -0.5486  -0.5344  -0.5288  -0.5052  -0.4973  -0.4694
 -0.4666  -0.4152  -0.4029  -0.3702  -0.3619  -0.2933
 -- Virtual --
  0.0252   0.0361   0.0381   0.0422   0.0508   0.0570   0.0579   0.0765
  0.0788   0.0906   0.0960   0.1081   0.1117   0.1294   0.1338   0.1348
  0.1404   0.1433   0.1471   0.1490   0.1522   0.1611   0.1649   0.1675
  0.1806   0.1828   0.1889   0.1966   0.1995   0.2123   0.2230   0.2325
  0.2380   0.2428   0.2489   0.2682   0.2831   0.2921   0.2966   0.3040
  0.3054   0.3195   0.3242   0.3380   0.3436   0.3511   0.3597   0.3652
  0.3702   0.3719   0.3754   0.3853   0.3873   0.3891   0.3951   0.3972
  0.4149   0.4168   0.4317   0.4433   0.4545   0.4683   0.4787   0.4988
  0.5089   0.5242   0.5372   0.5622   0.5872   0.5944   0.6028   0.6147
  0.6250   0.6385   0.6509   0.6596   0.6682   0.6855   0.6918   0.6940
  0.7074   0.7151   0.7256   0.7300   0.7382   0.7435   0.7637   0.7747
  0.7797   0.8031   0.8113   0.8189   0.8338   0.8378   0.8508   0.8747
  0.8980   0.9148   0.9526   0.9866   1.0055   1.0214   1.0367   1.0528
  1.0710   1.0799   1.1040   1.1150   1.1214   1.1374   1.1488   1.1635
  1.1729   1.1787   1.1931   1.2053   1.2083   1.2157   1.2274   1.2414
  1.2464   1.2638   1.2675   1.2759   1.2888   1.3048   1.3210   1.3284
  1.3373   1.3530   1.3657   1.3774   1.3918   1.4171   1.4269   1.4295
  1.4432   1.4615   1.4712   1.4844   1.4916   1.4964   1.5211   1.5359
  1.5464   1.5710   1.5773   1.5922   1.6010   1.6153   1.6214   1.6578
  1.6665   1.6992   1.7118   1.7202   1.7349   1.7688   1.7797   1.8226
  1.8446   1.8920   1.8955   1.9242   1.9784   1.9969   2.0120   2.0349
  2.0542   2.0609   2.1171   2.1358   2.1682   2.2076   2.2453   2.2519
  2.3103   2.3438   2.3538   2.4152   2.4346   2.5240   2.5652   2.6214
  2.6539   2.6783   2.6985   2.7306   2.7360   2.7714   2.7801   2.8056
  2.8164   2.8287   2.8501   2.8983   2.9085   2.9101   2.9388   2.9559
  2.9682   2.9840   2.9899   2.9969   3.0176   3.0519   3.0771   3.0906
  3.1391   3.1583   3.1619   3.1882   3.2165   3.2233   3.2559   3.2612
  3.2923   3.3028   3.3121   3.3254   3.3679   3.3694   3.3951   3.4129
  3.4389   3.4455   3.4574   3.4876   3.4997   3.5110   3.5308   3.5418
  3.5563   3.5791   3.6101   3.6227   3.6367   3.6576   3.6847   3.6864
  3.7148   3.7363   3.7496   3.7705   3.7733   3.7884   3.8034   3.8112
  3.8427   3.8583   3.8765   3.8892   3.9180   3.9361   3.9483   3.9634
  3.9853   3.9975   4.0375   4.0498   4.0773   4.1171   4.1293   4.1468
  4.1756   4.2145   4.2219   4.2595   4.2904   4.2967   4.3046   4.3293
  4.3837   4.3887   4.4094   4.4208   4.4369   4.4500   4.4835   4.5005
  4.5160   4.5522   4.5740   4.6236   4.6392   4.6704   4.6854   4.7018
  4.7411   4.7595   4.7956   4.8517   4.8825   4.9256   4.9801   5.0828
  5.1263   5.1587   5.1842   5.2052   5.2372   5.2512   5.2662   5.2847
  5.3015   5.3250   5.3411   5.3782   5.3794   5.4099   5.4267   5.4391
  5.4842   5.5103   5.5252   5.5384   5.5557   5.5643   5.5887   5.6299
  5.6676   5.6790   5.7391   5.7450   5.7767   5.8065   5.8410   5.8564
  5.9273   5.9528   6.0186   6.0568   6.0971   6.3222   6.3309   6.4371
  6.5572   6.5844   6.7655   6.8249   6.9699   7.0142   7.0278   7.1177
  7.1817   7.2594   7.2999   7.3189   7.3344   7.3606   7.4043   7.4258
  7.4392   7.5241   7.5365   7.6118   7.6818   7.7988   7.8199   7.8824
  7.9370   8.1990  24.3860  24.6171  24.7909  24.8376  24.9798  25.2049
 50.5608  50.6061  50.6426  50.7228
 
 Beta MOs
 -- Occupied --
-19.4423 -19.4209 -19.3475 -19.3150 -10.4305 -10.4245 -10.4220 -10.4161
-10.3538 -10.3517  -1.3069  -1.1589  -1.1440  -1.0925  -0.9527  -0.8931
 -0.7998  -0.7544  -0.7264  -0.6775  -0.6641  -0.6305  -0.5983  -0.5835
 -0.5679  -0.5607  -0.5378  -0.5264  -0.5177  -0.5000  -0.4952  -0.4649
 -0.4409  -0.4112  -0.3937  -0.3687  -0.3546
 -- Virtual --
 -0.0254   0.0252   0.0360   0.0381   0.0428   0.0522   0.0578   0.0592
  0.0776   0.0836   0.0925   0.1080   0.1123   0.1209   0.1295   0.1345
  0.1348   0.1405   0.1436   0.1485   0.1503   0.1521   0.1610   0.1668
  0.1680   0.1826   0.1844   0.1903   0.1965   0.1997   0.2128   0.2234
  0.2328   0.2390   0.2439   0.2506   0.2692   0.2851   0.2935   0.2994
  0.3051   0.3086   0.3214   0.3249   0.3402   0.3472   0.3535   0.3646
  0.3667   0.3719   0.3724   0.3763   0.3866   0.3879   0.3908   0.3983
  0.3994   0.4173   0.4188   0.4336   0.4456   0.4583   0.4694   0.4795
  0.5008   0.5108   0.5284   0.5388   0.5638   0.5903   0.5957   0.6053
  0.6158   0.6269   0.6412   0.6537   0.6623   0.6720   0.6882   0.6940
  0.6985   0.7108   0.7210   0.7286   0.7329   0.7422   0.7454   0.7659
  0.7778   0.7820   0.8043   0.8147   0.8218   0.8384   0.8401   0.8515
  0.8766   0.9003   0.9165   0.9572   0.9885   1.0071   1.0229   1.0384
  1.0543   1.0761   1.0827   1.1078   1.1181   1.1247   1.1407   1.1505
  1.1679   1.1778   1.1828   1.1965   1.2105   1.2123   1.2195   1.2300
  1.2427   1.2488   1.2656   1.2714   1.2783   1.2922   1.3063   1.3251
  1.3331   1.3398   1.3554   1.3715   1.3795   1.3947   1.4194   1.4296
  1.4339   1.4471   1.4669   1.4751   1.4876   1.4952   1.4990   1.5240
  1.5392   1.5501   1.5742   1.5802   1.5983   1.6057   1.6212   1.6248
  1.6633   1.6716   1.7030   1.7150   1.7245   1.7384   1.7737   1.7873
  1.8269   1.8473   1.8977   1.9021   1.9313   1.9835   2.0040   2.0156
  2.0404   2.0619   2.0653   2.1209   2.1381   2.1727   2.2111   2.2507
  2.2582   2.3140   2.3475   2.3557   2.4191   2.4422   2.5292   2.5706
  2.6298   2.6577   2.6864   2.7095   2.7355   2.7439   2.7753   2.7863
  2.8129   2.8192   2.8366   2.8533   2.9081   2.9149   2.9236   2.9427
  2.9616   2.9781   2.9917   2.9925   3.0047   3.0276   3.0593   3.0833
  3.0979   3.1550   3.1693   3.1731   3.1997   3.2226   3.2322   3.2660
  3.2725   3.3032   3.3108   3.3252   3.3301   3.3729   3.3754   3.4030
  3.4163   3.4487   3.4565   3.4691   3.4931   3.5134   3.5229   3.5438
  3.5463   3.5659   3.5856   3.6256   3.6331   3.6423   3.6674   3.6925
  3.7001   3.7240   3.7435   3.7564   3.7811   3.7870   3.7945   3.8121
  3.8197   3.8502   3.8629   3.8874   3.8986   3.9226   3.9383   3.9603
  3.9683   3.9895   4.0092   4.0447   4.0602   4.0848   4.1244   4.1398
  4.1535   4.1827   4.2188   4.2276   4.2641   4.2963   4.3033   4.3120
  4.3420   4.3880   4.3944   4.4162   4.4311   4.4483   4.4582   4.4919
  4.5100   4.5274   4.5601   4.5775   4.6299   4.6428   4.6779   4.6921
  4.7099   4.7506   4.7639   4.8015   4.8646   4.8856   4.9344   4.9843
  5.0872   5.1366   5.1717   5.1996   5.2209   5.2490   5.2586   5.2720
  5.2897   5.3121   5.3386   5.3444   5.3834   5.3916   5.4187   5.4341
  5.4430   5.4893   5.5160   5.5340   5.5488   5.5669   5.5716   5.5980
  5.6361   5.6723   5.6888   5.7436   5.7537   5.7801   5.8136   5.8491
  5.8653   5.9305   5.9680   6.0243   6.0622   6.0993   6.3357   6.3400
  6.4390   6.5612   6.5852   6.7731   6.8334   6.9812   7.0422   7.0557
  7.1211   7.1876   7.2691   7.3060   7.3239   7.3373   7.3666   7.4067
  7.4386   7.4620   7.5286   7.5441   7.6194   7.6833   7.8122   7.8214
  7.8858   7.9392   8.2013  24.3861  24.6192  24.7914  24.8438  24.9795
 25.2050  50.5623  50.6088  50.6431  50.7276
 --------------------------------------------------------------
 
          Ground-State Mulliken Net Atomic Charges

     Atom                 Charge (a.u.)    Spin (a.u.)
  --------------------------------------------------------
      1 C                    -0.144411      -0.002454
      2 O                    -0.116022      -0.001099
      3 O                    -0.021284       0.126477
      4 C                     0.020399       0.000877
      5 C                    -0.397650       0.556353
      6 C                    -0.195383       0.055604
      7 O                    -0.449379       0.233489
      8 C                    -0.077936      -0.024026
      9 C                    -0.308781       0.019730
     10 H                     0.289390      -0.001621
     11 H                     0.295558       0.024728
     12 H                     0.316933      -0.007502
     13 H                     0.232663       0.010302
     14 H                     0.291481       0.002683
     15 H                     0.302668       0.000235
     16 O                    -0.367810       0.006035
     17 H                     0.329563       0.000190
  --------------------------------------------------------
  Sum of atomic charges =     0.000000
  Sum of spin   charges =     1.000000

 -----------------------------------------------------------------
                    Cartesian Multipole Moments
 -----------------------------------------------------------------
    Charge (ESU x 10^10)
                -0.0000
    Dipole Moment (Debye)
         X       0.6313      Y       2.6278      Z      -2.7224
       Tot       3.8360
    Quadrupole Moments (Debye-Ang)
        XX     -56.3543     XY     -12.6338     YY     -68.6885
        XZ       4.4858     YZ      -0.6286     ZZ     -52.8717
    Octopole Moments (Debye-Ang^2)
       XXX      10.3385    XXY      18.2952    XYY      11.1232
       YYY      48.5197    XXZ     -19.4169    XYZ     -10.8292
       YYZ       3.6780    XZZ       6.1785    YZZ      19.8026
       ZZZ       3.9126
    Hexadecapole Moments (Debye-Ang^3)
      XXXX    -445.4634   XXXY     -84.1460   XXYY    -176.9769
      XYYY     -88.9703   YYYY    -588.0144   XXXZ      63.9178
      XXYZ      46.4836   XYYZ      34.8864   YYYZ      49.0286
      XXZZ    -138.5683   XYZZ     -30.0443   YYZZ    -165.7907
      XZZZ      38.1199   YZZZ      39.4319   ZZZZ    -389.5608
 -----------------------------------------------------------------
 Calculating analytic gradient of the SCF energy
 Gradient of CDS energy
            1           2           3           4           5           6
    1   0.0000941  -0.0000863  -0.0026475  -0.0000014   0.0025125  -0.0021933
    2   0.0002430  -0.0000351  -0.0025895  -0.0002677   0.0033696  -0.0012219
    3  -0.0001504  -0.0000008  -0.0009439  -0.0002659   0.0010633   0.0004584
            7           8           9          10          11          12
    1   0.0014715   0.0002184   0.0002863   0.0001255   0.0000399  -0.0000609
    2   0.0008698  -0.0002108  -0.0001225   0.0000456   0.0001122  -0.0001308
    3   0.0002840   0.0000188  -0.0000585  -0.0001776  -0.0001651   0.0001341
           13          14          15          16          17
    1   0.0001097   0.0001177   0.0001873   0.0001031  -0.0002767
    2   0.0002220  -0.0001451  -0.0000842   0.0002207  -0.0002752
    3  -0.0001131   0.0000824  -0.0000458   0.0002528  -0.0003728
 Gradient of SCF Energy
            1           2           3           4           5           6
    1  -0.0134748   0.0023249   0.0040954   0.0056259   0.0152697  -0.0033181
    2   0.0061465   0.0028922   0.0015367   0.0296734   0.0011840  -0.0074061
    3   0.0084818   0.0047579   0.0004252   0.0031407  -0.0099555   0.0000454
            7           8           9          10          11          12
    1   0.0008794   0.0012977  -0.0081081   0.0047517   0.0014310  -0.0126111
    2  -0.0049824   0.0081300  -0.0037425  -0.0005751   0.0165280   0.0045278
    3  -0.0070953  -0.0038248   0.0013229  -0.0112166  -0.0068743   0.0034830
           13          14          15          16          17
    1   0.0008745   0.0018920   0.0061904   0.0029007  -0.0100214
    2   0.0029948  -0.0017987  -0.0024073  -0.0556799   0.0029785
    3   0.0021502   0.0018861  -0.0014780   0.0191169  -0.0043655
 Max gradient component =       5.568E-02
 RMS gradient           =       1.107E-02
 Computing fast CPCM-SWIG gradient
 Updating gradient with PCM contributions...
 -- total gradient after adding PCM contribution --
---------------------------------------------------
  Atom         X              Y              Z     
---------------------------------------------------
   1      -0.005546      -0.002466      -0.000336
   2       0.000230       0.001913       0.004040
   3       0.002172       0.000011      -0.001486
   4       0.002608       0.042853      -0.008551
   5       0.004123       0.002655      -0.002577
   6       0.002091       0.001120       0.001118
   7       0.000992      -0.000574      -0.010644
   8      -0.002015      -0.001021      -0.000821
   9      -0.001922      -0.000475      -0.001689
  10      -0.001184      -0.000241      -0.000577
  11       0.005391       0.007051       0.004043
  12      -0.000264      -0.000641      -0.000151
  13      -0.000148      -0.000400       0.000099
  14      -0.000323      -0.000055      -0.000270
  15      -0.000051       0.000102       0.000038
  16      -0.006568      -0.047635       0.017832
  17       0.000412      -0.002197      -0.000066
---------------------------------------------------
 Number of fixed atoms: 0
 Gradient time:  CPU 395.18 s  wall 19.10 s
 ----------------------------------------------------------------
             Standard Nuclear Orientation (Angstroms)
    I     Atom           X                Y                Z
 ----------------------------------------------------------------
    1      C       0.9695001000     0.0856606000    -1.0563043000
    2      O       1.2579310000     1.3850663000    -0.4880120000
    3      O       0.1203325000     1.6803422000     0.3596400000
    4      C      -0.5312075000     0.1405299000    -1.2556348000
    5      C      -0.8655567000     0.8151943000     0.0343694000
    6      C      -0.6787086000    -0.9137247000     1.3522288000
    7      O      -1.6988030000    -1.5957311000     1.1427064000
    8      C       0.6678026000    -1.4104839000     0.9198684000
    9      C       1.3921764000    -1.0073377000    -0.1152515000
   10      H       1.5166822000     0.0685488000    -1.9953610000
   11      H      -0.7857264000     0.7834832000    -2.0985057000
   12      H      -1.8439616000     1.1503969000     0.3496474000
   13      H      -0.6741946000    -0.1756153000     2.1656331000
   14      H       1.0502750000    -2.1984683000     1.5619721000
   15      H       2.3577931000    -1.4590795000    -0.2993349000
   16      O      -0.9901599000    -1.2746911000    -1.3464022000
   17      H      -1.9462328000    -1.2672107000    -1.4723083000
 ----------------------------------------------------------------
 Nuclear Repulsion Energy =         570.12224644 hartrees
 There are       38 alpha and       37 beta electrons
 Discretize the solute cavity surface with Lebedev spheres
	Using 110 Lebedev grid points for each H atom
	Using 194 Lebedev grid points for other atoms
	Atomic van der Waals radii will be scaled by 1.20
 Remove points where switching function is < 1.0e-08
 Keep 1261 surface tesserae and discard 1449 interior tesserae
 Molecular Surface Area = 145.393 Angst**2
 Requested basis set is 6-311++G(2df,2p)
 There are 122 shells and 410 basis functions
 A cutoff of  1.0D-11 yielded   6900 shell pairs
 There are     79177 function pairs (     99724 Cartesian)
 Smallest overlap matrix eigenvalue = 4.68E-06
 Guess MOs from SCF MO coefficient file

 -----------------------------------------------------------------------
  General SCF calculation program by
  Eric Jon Sundstrom, Paul Horn, Yuezhi Mao, Dmitri Zuev, Alec White,
  David Stuck, Shaama M.S., Shane Yost, Joonho Lee, David Small,
  Daniel Levine, Susi Lehtola, Hugh Burton, Evgeny Epifanovsky,
  Bang C. Huynh
 -----------------------------------------------------------------------
 Exchange:     0.1500 Hartree-Fock + 1.0000 wB97M-V + LR-HF
 Correlation:  1.0000 wB97M-V
 Using SG-2 standard quadrature grid
 Nonlocal Correlation:  VV10 with C = 0.0100 and b = 6.00 and scale = 1.00000
 Grid used for NLC:  SG-1 standard quadrature
 
 Citation of the SMD model:
 Marenich, A.V.; Cramer, C.J.; Truhlar, D.G.
 J. Phys. Chem. B 2009, 113, 6378-6396.
 iSolventCode=           1
 Solvent: water                                                           
 
 vradii
            1           2           3           4           5           6
    1   1.8500000   1.5200000   1.5200000   1.8500000   1.8500000   1.8500000
            7           8           9          10          11          12
    1   1.5200000   1.8500000   1.8500000   1.2000000   1.2000000   1.2000000
           13          14          15          16          17
    1   1.2000000   1.2000000   1.2000000   1.5200000   1.2000000
 -------------------------------------------------------
 OpenMP BLAS3 based DFT computing Module                
 Release: version 1.0, May 2013, Q-Chem Inc. Pittsburgh 
 -------------------------------------------------------
 A unrestricted SCF calculation will be
 performed using Roothaan-Hall, DIIS, GDM
 SCF converges when RMS gradient is below 1.0e-06
 ---------------------------------------
  Cycle       Energy         DIIS error
 ---------------------------------------
    1    -533.5071351697      2.23e-04  Roothaan Step
 ---------------------------------------
  Cycle       Energy         DIIS error
 ---------------------------------------
    1    -533.5371267162      2.85e-04  
    2    -533.5410142992      3.21e-04  Done DIIS. Switching to GDM
 ---------------------------------------
  Cycle       Energy        RMS Gradient
 ---------------------------------------
    1    -533.5410142992      2.34e-02   Normal BFGS step
    2    -533.5382541878      4.05e-02  Line search: overstep
    3    -533.5466757606      5.70e-03   Normal BFGS step
    4    -533.5468894551      1.92e-03   Normal BFGS step
    5    -533.5469466329      1.08e-03   Normal BFGS step
    6    -533.5469545114      1.83e-04   Normal BFGS step
    7    -533.5469570511      2.31e-04   Normal BFGS step
    8    -533.5469576280      1.19e-04   Normal BFGS step
    9    -533.5469577568      5.38e-05   Normal BFGS step
   10    -533.5469578048      2.35e-05   Normal BFGS step
   11    -533.5469578114      1.38e-05   Normal BFGS step
   12    -533.5469578138      8.70e-06   Normal BFGS step
   13    -533.5469578144      4.99e-06   Normal BFGS step
   14    -533.5469578145      2.08e-06   Normal BFGS step
   15    -533.5469578143      1.04e-06   Normal BFGS step
   16    -533.5469578140      6.50e-07  Convergence criterion met
 ---------------------------------------
 SCF time:   CPU 2615.82s  wall 103.00s 
<S^2> =          0.760414970
(3)  G-ENP(liq) elect-nuc-pol free energy of system     -533.546957814 a.u.
(4)  G-CDS(liq) cavity-dispersion-solvent structure 
     free energy                                                3.8148 kcal/mol
(6)  G-S(liq) free energy of system                     -533.540878553 a.u.
 SCF   energy in the final basis set =     -533.5408785528
 Total energy in the final basis set =     -533.5408785528
 
 --------------------------------------------------------------
 
                    Orbital Energies (a.u.)
 --------------------------------------------------------------
 
 Alpha MOs
 -- Occupied --
-19.4472 -19.4208 -19.3478 -19.3216 -10.4310 -10.4299 -10.4243 -10.4162
-10.3539 -10.3518  -1.3129  -1.1667  -1.1480  -1.0975  -0.9568  -0.8972
 -0.8055  -0.7624  -0.7338  -0.6850  -0.6693  -0.6336  -0.6042  -0.5921
 -0.5713  -0.5666  -0.5486  -0.5344  -0.5288  -0.5053  -0.4973  -0.4695
 -0.4665  -0.4153  -0.4030  -0.3702  -0.3620  -0.2933
 -- Virtual --
  0.0252   0.0361   0.0381   0.0422   0.0508   0.0570   0.0579   0.0765
  0.0788   0.0906   0.0960   0.1081   0.1118   0.1294   0.1338   0.1348
  0.1404   0.1433   0.1471   0.1490   0.1521   0.1611   0.1649   0.1675
  0.1805   0.1828   0.1889   0.1966   0.1995   0.2122   0.2230   0.2325
  0.2380   0.2428   0.2488   0.2683   0.2831   0.2922   0.2965   0.3040
  0.3054   0.3194   0.3242   0.3380   0.3436   0.3511   0.3598   0.3652
  0.3702   0.3718   0.3754   0.3853   0.3873   0.3891   0.3951   0.3972
  0.4150   0.4168   0.4318   0.4433   0.4545   0.4683   0.4787   0.4988
  0.5089   0.5243   0.5371   0.5622   0.5872   0.5944   0.6028   0.6148
  0.6251   0.6385   0.6508   0.6596   0.6682   0.6856   0.6919   0.6940
  0.7074   0.7152   0.7256   0.7300   0.7382   0.7435   0.7636   0.7747
  0.7798   0.8031   0.8113   0.8190   0.8339   0.8378   0.8508   0.8749
  0.8979   0.9149   0.9527   0.9866   1.0056   1.0215   1.0366   1.0530
  1.0710   1.0800   1.1040   1.1149   1.1213   1.1374   1.1489   1.1635
  1.1729   1.1786   1.1932   1.2054   1.2083   1.2158   1.2274   1.2414
  1.2463   1.2639   1.2674   1.2758   1.2888   1.3048   1.3211   1.3283
  1.3373   1.3531   1.3658   1.3775   1.3918   1.4173   1.4269   1.4296
  1.4432   1.4616   1.4713   1.4845   1.4916   1.4965   1.5212   1.5359
  1.5466   1.5708   1.5774   1.5923   1.6010   1.6153   1.6214   1.6578
  1.6665   1.6991   1.7118   1.7202   1.7351   1.7687   1.7798   1.8225
  1.8447   1.8921   1.8956   1.9244   1.9784   1.9970   2.0118   2.0350
  2.0542   2.0609   2.1170   2.1357   2.1682   2.2077   2.2451   2.2520
  2.3102   2.3438   2.3540   2.4151   2.4345   2.5238   2.5652   2.6213
  2.6539   2.6784   2.6985   2.7312   2.7364   2.7714   2.7801   2.8062
  2.8166   2.8287   2.8501   2.8986   2.9084   2.9101   2.9389   2.9563
  2.9683   2.9840   2.9899   2.9974   3.0176   3.0522   3.0772   3.0906
  3.1392   3.1583   3.1620   3.1886   3.2165   3.2233   3.2559   3.2608
  3.2923   3.3030   3.3122   3.3251   3.3679   3.3695   3.3952   3.4126
  3.4390   3.4454   3.4574   3.4876   3.4998   3.5107   3.5308   3.5419
  3.5564   3.5794   3.6102   3.6227   3.6366   3.6574   3.6846   3.6863
  3.7151   3.7364   3.7498   3.7705   3.7735   3.7888   3.8033   3.8113
  3.8427   3.8579   3.8767   3.8893   3.9182   3.9362   3.9485   3.9635
  3.9853   3.9976   4.0371   4.0499   4.0776   4.1174   4.1295   4.1468
  4.1757   4.2148   4.2217   4.2597   4.2909   4.2971   4.3045   4.3295
  4.3836   4.3886   4.4095   4.4214   4.4369   4.4497   4.4833   4.5000
  4.5162   4.5520   4.5742   4.6237   4.6396   4.6701   4.6856   4.7022
  4.7412   4.7598   4.7959   4.8516   4.8825   4.9256   4.9800   5.0828
  5.1263   5.1587   5.1842   5.2053   5.2378   5.2516   5.2663   5.2846
  5.3014   5.3251   5.3413   5.3782   5.3794   5.4098   5.4268   5.4392
  5.4843   5.5104   5.5253   5.5386   5.5553   5.5638   5.5885   5.6299
  5.6674   5.6788   5.7387   5.7454   5.7761   5.8065   5.8411   5.8565
  5.9269   5.9530   6.0186   6.0566   6.0965   6.3221   6.3302   6.4372
  6.5571   6.5836   6.7655   6.8249   6.9698   7.0142   7.0278   7.1177
  7.1817   7.2594   7.3000   7.3190   7.3345   7.3607   7.4042   7.4258
  7.4391   7.5236   7.5364   7.6120   7.6820   7.7988   7.8199   7.8826
  7.9369   8.1989  24.3857  24.6175  24.7924  24.8374  24.9797  25.2047
 50.5608  50.6061  50.6426  50.7228
 
 Beta MOs
 -- Occupied --
-19.4423 -19.4209 -19.3476 -19.3150 -10.4305 -10.4245 -10.4220 -10.4161
-10.3538 -10.3517  -1.3069  -1.1590  -1.1440  -1.0924  -0.9528  -0.8932
 -0.7997  -0.7544  -0.7265  -0.6775  -0.6642  -0.6305  -0.5983  -0.5835
 -0.5679  -0.5606  -0.5378  -0.5264  -0.5176  -0.5001  -0.4952  -0.4651
 -0.4408  -0.4112  -0.3938  -0.3686  -0.3546
 -- Virtual --
 -0.0254   0.0252   0.0360   0.0381   0.0428   0.0523   0.0578   0.0592
  0.0776   0.0836   0.0925   0.1080   0.1123   0.1209   0.1295   0.1345
  0.1348   0.1405   0.1435   0.1485   0.1503   0.1521   0.1610   0.1668
  0.1680   0.1826   0.1844   0.1903   0.1965   0.1997   0.2128   0.2234
  0.2328   0.2390   0.2439   0.2505   0.2693   0.2851   0.2936   0.2994
  0.3051   0.3086   0.3214   0.3249   0.3402   0.3472   0.3535   0.3647
  0.3667   0.3720   0.3724   0.3763   0.3867   0.3879   0.3907   0.3983
  0.3994   0.4174   0.4188   0.4336   0.4455   0.4583   0.4694   0.4795
  0.5007   0.5108   0.5285   0.5388   0.5638   0.5903   0.5957   0.6054
  0.6158   0.6270   0.6412   0.6537   0.6624   0.6721   0.6883   0.6940
  0.6985   0.7108   0.7211   0.7286   0.7329   0.7421   0.7454   0.7659
  0.7778   0.7821   0.8043   0.8147   0.8219   0.8384   0.8401   0.8515
  0.8767   0.9003   0.9165   0.9573   0.9885   1.0071   1.0229   1.0384
  1.0545   1.0761   1.0827   1.1078   1.1180   1.1246   1.1408   1.1506
  1.1679   1.1778   1.1828   1.1966   1.2106   1.2123   1.2196   1.2300
  1.2427   1.2487   1.2658   1.2714   1.2782   1.2922   1.3063   1.3251
  1.3331   1.3398   1.3554   1.3715   1.3796   1.3946   1.4196   1.4296
  1.4339   1.4471   1.4670   1.4753   1.4877   1.4951   1.4992   1.5240
  1.5392   1.5503   1.5740   1.5803   1.5983   1.6057   1.6212   1.6248
  1.6632   1.6717   1.7029   1.7150   1.7246   1.7386   1.7737   1.7874
  1.8267   1.8474   1.8979   1.9021   1.9314   1.9835   2.0041   2.0154
  2.0405   2.0619   2.0654   2.1208   2.1381   2.1727   2.2112   2.2505
  2.2584   2.3139   2.3476   2.3559   2.4190   2.4422   2.5290   2.5706
  2.6297   2.6577   2.6865   2.7094   2.7363   2.7442   2.7753   2.7863
  2.8135   2.8194   2.8367   2.8533   2.9085   2.9149   2.9234   2.9429
  2.9621   2.9782   2.9919   2.9925   3.0052   3.0275   3.0595   3.0834
  3.0979   3.1551   3.1692   3.1731   3.2002   3.2226   3.2321   3.2660
  3.2722   3.3032   3.3111   3.3254   3.3298   3.3731   3.3753   3.4031
  3.4161   3.4486   3.4566   3.4691   3.4932   3.5132   3.5227   3.5439
  3.5462   3.5660   3.5859   3.6257   3.6331   3.6422   3.6672   3.6924
  3.7001   3.7242   3.7438   3.7565   3.7813   3.7871   3.7949   3.8120
  3.8197   3.8503   3.8626   3.8877   3.8987   3.9229   3.9384   3.9605
  3.9684   3.9896   4.0093   4.0442   4.0604   4.0851   4.1248   4.1399
  4.1535   4.1828   4.2189   4.2275   4.2644   4.2968   4.3036   4.3121
  4.3420   4.3878   4.3944   4.4167   4.4314   4.4483   4.4580   4.4917
  4.5095   4.5276   4.5599   4.5778   4.6300   4.6432   4.6776   4.6921
  4.7102   4.7506   4.7642   4.8018   4.8645   4.8856   4.9344   4.9841
  5.0871   5.1365   5.1718   5.1997   5.2210   5.2495   5.2590   5.2721
  5.2896   5.3120   5.3387   5.3446   5.3834   5.3917   5.4186   5.4343
  5.4431   5.4894   5.5161   5.5340   5.5489   5.5664   5.5712   5.5979
  5.6361   5.6722   5.6884   5.7431   5.7541   5.7795   5.8136   5.8492
  5.8655   5.9301   5.9682   6.0244   6.0620   6.0987   6.3351   6.3399
  6.4391   6.5612   6.5845   6.7731   6.8335   6.9811   7.0422   7.0557
  7.1211   7.1875   7.2691   7.3061   7.3241   7.3373   7.3666   7.4065
  7.4385   7.4619   7.5280   7.5441   7.6197   7.6835   7.8122   7.8214
  7.8860   7.9391   8.2013  24.3858  24.6195  24.7928  24.8437  24.9795
 25.2049  50.5623  50.6088  50.6432  50.7276
 --------------------------------------------------------------
 
          Ground-State Mulliken Net Atomic Charges

     Atom                 Charge (a.u.)    Spin (a.u.)
  --------------------------------------------------------
      1 C                    -0.142985      -0.002492
      2 O                    -0.116044      -0.001078
      3 O                    -0.021491       0.126558
      4 C                     0.020649       0.000929
      5 C                    -0.397707       0.556281
      6 C                    -0.195268       0.055584
      7 O                    -0.449389       0.233471
      8 C                    -0.077469      -0.024034
      9 C                    -0.310382       0.019716
     10 H                     0.289056      -0.001619
     11 H                     0.295497       0.024730
     12 H                     0.316940      -0.007492
     13 H                     0.232657       0.010303
     14 H                     0.291437       0.002682
     15 H                     0.302711       0.000234
     16 O                    -0.367812       0.006037
     17 H                     0.329602       0.000190
  --------------------------------------------------------
  Sum of atomic charges =     0.000000
  Sum of spin   charges =     1.000000

 -----------------------------------------------------------------
                    Cartesian Multipole Moments
 -----------------------------------------------------------------
    Charge (ESU x 10^10)
                 0.0000
    Dipole Moment (Debye)
         X       0.6297      Y       2.6271      Z      -2.7231
       Tot       3.8358
    Quadrupole Moments (Debye-Ang)
        XX     -56.3545     XY     -12.6337     YY     -68.6862
        XZ       4.4909     YZ      -0.6275     ZZ     -52.8751
    Octopole Moments (Debye-Ang^2)
       XXX      10.3686    XXY      18.2885    XYY      11.1386
       YYY      48.5179    XXZ     -19.4129    XYZ     -10.8283
       YYZ       3.6734    XZZ       6.1755    YZZ      19.8040
       ZZZ       3.9173
    Hexadecapole Moments (Debye-Ang^3)
      XXXX    -445.3322   XXXY     -84.1593   XXYY    -176.9376
      XYYY     -88.9620   YYYY    -588.0057   XXXZ      63.9061
      XXYZ      46.4879   XYYZ      34.8811   YYYZ      49.0356
      XXZZ    -138.5609   XYZZ     -30.0393   YYZZ    -165.7959
      XZZZ      38.1170   YZZZ      39.4372   ZZZZ    -389.5965
 -----------------------------------------------------------------
 Calculating analytic gradient of the SCF energy
 Gradient of CDS energy
            1           2           3           4           5           6
    1   0.0000900  -0.0000858  -0.0026475   0.0000001   0.0025124  -0.0021933
    2   0.0002429  -0.0000351  -0.0025895  -0.0002677   0.0033696  -0.0012219
    3  -0.0001492  -0.0000012  -0.0009439  -0.0002651   0.0010632   0.0004584
            7           8           9          10          11          12
    1   0.0014715   0.0002182   0.0002875   0.0001270   0.0000397  -0.0000609
    2   0.0008698  -0.0002108  -0.0001225   0.0000456   0.0001121  -0.0001308
    3   0.0002840   0.0000188  -0.0000589  -0.0001782  -0.0001652   0.0001341
           13          14          15          16          17
    1   0.0001097   0.0001177   0.0001872   0.0001032  -0.0002767
    2   0.0002220  -0.0001451  -0.0000842   0.0002207  -0.0002751
    3  -0.0001131   0.0000824  -0.0000458   0.0002525  -0.0003728
 Gradient of SCF Energy
            1           2           3           4           5           6
    1  -0.0156007   0.0026856   0.0041188   0.0063564   0.0153715  -0.0033152
    2   0.0063342   0.0031066   0.0014398   0.0295569   0.0011079  -0.0073832
    3   0.0089078   0.0048052   0.0003578   0.0032159  -0.0100579   0.0000596
            7           8           9          10          11          12
    1   0.0008849   0.0012501  -0.0077021   0.0052162   0.0014734  -0.0126126
    2  -0.0049863   0.0081667  -0.0038600  -0.0005602   0.0165258   0.0045286
    3  -0.0070960  -0.0038605   0.0013680  -0.0116521  -0.0068848   0.0034808
           13          14          15          16          17
    1   0.0008728   0.0018879   0.0062040   0.0029362  -0.0100271
    2   0.0029943  -0.0018071  -0.0024913  -0.0556488   0.0029762
    3   0.0021483   0.0018606  -0.0014077   0.0191215  -0.0043665
 Max gradient component =       5.565E-02
 RMS gradient           =       1.114E-02
 Computing fast CPCM-SWIG gradient
 Updating gradient with PCM contributions...
 -- total gradient after adding PCM contribution --
---------------------------------------------------
  Atom         X              Y              Z     
---------------------------------------------------
   1      -0.007644      -0.002292       0.000118
   2       0.000579       0.002127       0.004088
   3       0.002195      -0.000086      -0.001554
   4       0.003340       0.042764      -0.008496
   5       0.004226       0.002576      -0.002672
   6       0.002092       0.001140       0.001128
   7       0.000998      -0.000578      -0.010645
   8      -0.002061      -0.000977      -0.000856
   9      -0.001513      -0.000609      -0.001637
  10      -0.000733      -0.000226      -0.001038
  11       0.005429       0.007046       0.004039
  12      -0.000264      -0.000641      -0.000153
  13      -0.000150      -0.000399       0.000098
  14      -0.000326      -0.000064      -0.000293
  15      -0.000040       0.000024       0.000105
  16      -0.006538      -0.047605       0.017835
  17       0.000412      -0.002199      -0.000066
---------------------------------------------------
 Number of fixed atoms: 0
 Gradient time:  CPU 392.28 s  wall 19.60 s
 ----------------------------------------------------------------
             Standard Nuclear Orientation (Angstroms)
    I     Atom           X                Y                Z
 ----------------------------------------------------------------
    1      C       0.9705001000     0.0866606000    -1.0563043000
    2      O       1.2579310000     1.3850663000    -0.4880120000
    3      O       0.1203325000     1.6803422000     0.3596400000
    4      C      -0.5312075000     0.1405299000    -1.2556348000
    5      C      -0.8655567000     0.8151943000     0.0343694000
    6      C      -0.6787086000    -0.9137247000     1.3522288000
    7      O      -1.6988030000    -1.5957311000     1.1427064000
    8      C       0.6678026000    -1.4104839000     0.9198684000
    9      C       1.3921764000    -1.0073377000    -0.1152515000
   10      H       1.5166822000     0.0685488000    -1.9953610000
   11      H      -0.7857264000     0.7834832000    -2.0985057000
   12      H      -1.8439616000     1.1503969000     0.3496474000
   13      H      -0.6741946000    -0.1756153000     2.1656331000
   14      H       1.0502750000    -2.1984683000     1.5619721000
   15      H       2.3577931000    -1.4590795000    -0.2993349000
   16      O      -0.9901599000    -1.2746911000    -1.3464022000
   17      H      -1.9462328000    -1.2672107000    -1.4723083000
 ----------------------------------------------------------------
 Nuclear Repulsion Energy =         570.11174966 hartrees
 There are       38 alpha and       37 beta electrons
 Discretize the solute cavity surface with Lebedev spheres
	Using 110 Lebedev grid points for each H atom
	Using 194 Lebedev grid points for other atoms
	Atomic van der Waals radii will be scaled by 1.20
 Remove points where switching function is < 1.0e-08
 Keep 1260 surface tesserae and discard 1450 interior tesserae
 Molecular Surface Area = 145.393 Angst**2
 Requested basis set is 6-311++G(2df,2p)
 There are 122 shells and 410 basis functions
 A cutoff of  1.0D-11 yielded   6900 shell pairs
 There are     79177 function pairs (     99724 Cartesian)
 Smallest overlap matrix eigenvalue = 4.69E-06
 Guess MOs from SCF MO coefficient file

 -----------------------------------------------------------------------
  General SCF calculation program by
  Eric Jon Sundstrom, Paul Horn, Yuezhi Mao, Dmitri Zuev, Alec White,
  David Stuck, Shaama M.S., Shane Yost, Joonho Lee, David Small,
  Daniel Levine, Susi Lehtola, Hugh Burton, Evgeny Epifanovsky,
  Bang C. Huynh
 -----------------------------------------------------------------------
 Exchange:     0.1500 Hartree-Fock + 1.0000 wB97M-V + LR-HF
 Correlation:  1.0000 wB97M-V
 Using SG-2 standard quadrature grid
 Nonlocal Correlation:  VV10 with C = 0.0100 and b = 6.00 and scale = 1.00000
 Grid used for NLC:  SG-1 standard quadrature
 
 Citation of the SMD model:
 Marenich, A.V.; Cramer, C.J.; Truhlar, D.G.
 J. Phys. Chem. B 2009, 113, 6378-6396.
 iSolventCode=           1
 Solvent: water                                                           
 
 vradii
            1           2           3           4           5           6
    1   1.8500000   1.5200000   1.5200000   1.8500000   1.8500000   1.8500000
            7           8           9          10          11          12
    1   1.5200000   1.8500000   1.8500000   1.2000000   1.2000000   1.2000000
           13          14          15          16          17
    1   1.2000000   1.2000000   1.2000000   1.5200000   1.2000000
 -------------------------------------------------------
 OpenMP BLAS3 based DFT computing Module                
 Release: version 1.0, May 2013, Q-Chem Inc. Pittsburgh 
 -------------------------------------------------------
 A unrestricted SCF calculation will be
 performed using Roothaan-Hall, DIIS, GDM
 SCF converges when RMS gradient is below 1.0e-06
 ---------------------------------------
  Cycle       Energy         DIIS error
 ---------------------------------------
    1    -533.5071604374      2.23e-04  Roothaan Step
 ---------------------------------------
  Cycle       Energy         DIIS error
 ---------------------------------------
    1    -533.5371603694      2.85e-04  
    2    -533.5410548392      3.20e-04  Done DIIS. Switching to GDM
 ---------------------------------------
  Cycle       Energy        RMS Gradient
 ---------------------------------------
    1    -533.5410548392      2.33e-02   Normal BFGS step
    2    -533.5383056856      4.04e-02  Line search: overstep
    3    -533.5466936433      5.69e-03   Normal BFGS step
    4    -533.5469074946      1.92e-03   Normal BFGS step
    5    -533.5469644965      1.08e-03   Normal BFGS step
    6    -533.5469723787      1.84e-04   Normal BFGS step
    7    -533.5469748995      2.32e-04   Normal BFGS step
    8    -533.5469754749      1.17e-04   Normal BFGS step
    9    -533.5469756018      5.40e-05   Normal BFGS step
   10    -533.5469756491      2.37e-05   Normal BFGS step
   11    -533.5469756557      1.38e-05   Normal BFGS step
   12    -533.5469756582      8.77e-06   Normal BFGS step
   13    -533.5469756587      4.97e-06   Normal BFGS step
   14    -533.5469756588      2.07e-06   Normal BFGS step
   15    -533.5469756586      1.03e-06   Normal BFGS step
   16    -533.5469756583      6.48e-07  Convergence criterion met
 ---------------------------------------
 SCF time:   CPU 2644.93s  wall 103.00s 
<S^2> =          0.760416186
(3)  G-ENP(liq) elect-nuc-pol free energy of system     -533.546975658 a.u.
(4)  G-CDS(liq) cavity-dispersion-solvent structure 
     free energy                                                3.8152 kcal/mol
(6)  G-S(liq) free energy of system                     -533.540895765 a.u.
 SCF   energy in the final basis set =     -533.5408957647
 Total energy in the final basis set =     -533.5408957647
 
 --------------------------------------------------------------
 
                    Orbital Energies (a.u.)
 --------------------------------------------------------------
 
 Alpha MOs
 -- Occupied --
-19.4473 -19.4209 -19.3478 -19.3216 -10.4310 -10.4299 -10.4243 -10.4162
-10.3539 -10.3518  -1.3130  -1.1667  -1.1480  -1.0977  -0.9567  -0.8971
 -0.8054  -0.7625  -0.7338  -0.6850  -0.6693  -0.6336  -0.6042  -0.5921
 -0.5712  -0.5666  -0.5485  -0.5344  -0.5289  -0.5053  -0.4974  -0.4694
 -0.4666  -0.4152  -0.4028  -0.3702  -0.3619  -0.2933
 -- Virtual --
  0.0252   0.0361   0.0381   0.0422   0.0508   0.0570   0.0579   0.0765
  0.0788   0.0906   0.0960   0.1081   0.1117   0.1294   0.1338   0.1348
  0.1404   0.1433   0.1471   0.1490   0.1522   0.1611   0.1649   0.1675
  0.1806   0.1828   0.1889   0.1966   0.1995   0.2122   0.2230   0.2325
  0.2380   0.2428   0.2489   0.2682   0.2831   0.2921   0.2966   0.3040
  0.3055   0.3195   0.3242   0.3379   0.3436   0.3511   0.3598   0.3652
  0.3702   0.3719   0.3754   0.3853   0.3873   0.3891   0.3951   0.3972
  0.4149   0.4168   0.4318   0.4433   0.4545   0.4683   0.4787   0.4987
  0.5089   0.5243   0.5371   0.5623   0.5872   0.5944   0.6028   0.6148
  0.6251   0.6385   0.6509   0.6596   0.6682   0.6856   0.6919   0.6940
  0.7073   0.7152   0.7256   0.7301   0.7382   0.7435   0.7636   0.7747
  0.7798   0.8031   0.8113   0.8190   0.8339   0.8379   0.8508   0.8748
  0.8980   0.9149   0.9527   0.9866   1.0055   1.0214   1.0366   1.0529
  1.0710   1.0800   1.1040   1.1149   1.1213   1.1374   1.1489   1.1635
  1.1729   1.1786   1.1931   1.2053   1.2083   1.2158   1.2274   1.2415
  1.2463   1.2638   1.2674   1.2759   1.2888   1.3047   1.3210   1.3283
  1.3373   1.3530   1.3658   1.3774   1.3918   1.4172   1.4269   1.4295
  1.4432   1.4615   1.4713   1.4844   1.4916   1.4965   1.5211   1.5359
  1.5464   1.5709   1.5774   1.5922   1.6010   1.6153   1.6214   1.6578
  1.6665   1.6992   1.7117   1.7201   1.7349   1.7687   1.7797   1.8225
  1.8446   1.8921   1.8956   1.9243   1.9784   1.9970   2.0118   2.0350
  2.0542   2.0609   2.1171   2.1360   2.1681   2.2077   2.2455   2.2520
  2.3105   2.3438   2.3540   2.4153   2.4347   2.5239   2.5652   2.6213
  2.6539   2.6783   2.6984   2.7308   2.7362   2.7714   2.7801   2.8059
  2.8166   2.8287   2.8501   2.8984   2.9085   2.9102   2.9389   2.9560
  2.9682   2.9840   2.9901   2.9972   3.0177   3.0521   3.0772   3.0906
  3.1391   3.1581   3.1620   3.1884   3.2164   3.2233   3.2559   3.2610
  3.2923   3.3029   3.3121   3.3252   3.3680   3.3695   3.3951   3.4128
  3.4389   3.4456   3.4573   3.4876   3.4998   3.5109   3.5309   3.5419
  3.5563   3.5794   3.6102   3.6226   3.6367   3.6575   3.6847   3.6864
  3.7148   3.7365   3.7495   3.7705   3.7734   3.7885   3.8034   3.8112
  3.8428   3.8580   3.8766   3.8891   3.9180   3.9362   3.9484   3.9635
  3.9853   3.9976   4.0372   4.0498   4.0774   4.1173   4.1294   4.1468
  4.1756   4.2144   4.2219   4.2596   4.2905   4.2967   4.3046   4.3295
  4.3837   4.3887   4.4092   4.4211   4.4369   4.4499   4.4833   4.4999
  4.5163   4.5518   4.5742   4.6233   4.6394   4.6702   4.6854   4.7019
  4.7411   4.7596   4.7954   4.8515   4.8823   4.9256   4.9798   5.0824
  5.1263   5.1587   5.1842   5.2052   5.2375   5.2514   5.2661   5.2847
  5.3015   5.3251   5.3412   5.3782   5.3795   5.4098   5.4267   5.4394
  5.4842   5.5103   5.5252   5.5386   5.5556   5.5640   5.5885   5.6299
  5.6676   5.6790   5.7392   5.7454   5.7769   5.8065   5.8411   5.8565
  5.9275   5.9529   6.0186   6.0568   6.0964   6.3222   6.3310   6.4371
  6.5573   6.5864   6.7655   6.8249   6.9699   7.0142   7.0278   7.1177
  7.1817   7.2595   7.3000   7.3190   7.3344   7.3608   7.4043   7.4258
  7.4392   7.5241   7.5365   7.6121   7.6819   7.7988   7.8199   7.8826
  7.9371   8.1991  24.3857  24.6172  24.7920  24.8376  24.9798  25.2045
 50.5609  50.6062  50.6426  50.7228
 
 Beta MOs
 -- Occupied --
-19.4423 -19.4209 -19.3476 -19.3150 -10.4305 -10.4245 -10.4220 -10.4161
-10.3538 -10.3517  -1.3070  -1.1590  -1.1440  -1.0926  -0.9527  -0.8932
 -0.7996  -0.7545  -0.7264  -0.6775  -0.6642  -0.6305  -0.5983  -0.5835
 -0.5679  -0.5606  -0.5378  -0.5264  -0.5177  -0.5001  -0.4952  -0.4650
 -0.4408  -0.4112  -0.3937  -0.3686  -0.3546
 -- Virtual --
 -0.0254   0.0252   0.0360   0.0381   0.0428   0.0523   0.0578   0.0592
  0.0776   0.0836   0.0925   0.1080   0.1123   0.1209   0.1295   0.1345
  0.1348   0.1405   0.1436   0.1485   0.1503   0.1521   0.1610   0.1668
  0.1680   0.1826   0.1844   0.1903   0.1965   0.1997   0.2128   0.2234
  0.2328   0.2390   0.2439   0.2506   0.2692   0.2851   0.2935   0.2994
  0.3051   0.3086   0.3214   0.3249   0.3402   0.3472   0.3535   0.3647
  0.3667   0.3720   0.3724   0.3763   0.3866   0.3879   0.3908   0.3983
  0.3994   0.4173   0.4188   0.4336   0.4456   0.4583   0.4694   0.4795
  0.5007   0.5108   0.5284   0.5387   0.5638   0.5903   0.5956   0.6053
  0.6158   0.6269   0.6412   0.6537   0.6623   0.6721   0.6882   0.6940
  0.6985   0.7108   0.7210   0.7286   0.7329   0.7421   0.7454   0.7659
  0.7778   0.7820   0.8043   0.8147   0.8219   0.8384   0.8401   0.8515
  0.8767   0.9003   0.9165   0.9572   0.9885   1.0071   1.0229   1.0384
  1.0544   1.0761   1.0827   1.1077   1.1181   1.1246   1.1408   1.1505
  1.1679   1.1778   1.1827   1.1965   1.2105   1.2123   1.2195   1.2300
  1.2427   1.2486   1.2657   1.2714   1.2783   1.2922   1.3062   1.3251
  1.3331   1.3398   1.3554   1.3716   1.3795   1.3946   1.4195   1.4296
  1.4338   1.4471   1.4669   1.4753   1.4876   1.4951   1.4991   1.5239
  1.5392   1.5502   1.5742   1.5803   1.5983   1.6057   1.6212   1.6248
  1.6632   1.6717   1.7029   1.7149   1.7245   1.7384   1.7737   1.7873
  1.8268   1.8473   1.8979   1.9022   1.9313   1.9835   2.0042   2.0155
  2.0405   2.0619   2.0653   2.1209   2.1383   2.1727   2.2112   2.2510
  2.2583   2.3142   2.3476   2.3559   2.4192   2.4423   2.5291   2.5706
  2.6297   2.6577   2.6864   2.7094   2.7357   2.7441   2.7753   2.7863
  2.8132   2.8194   2.8367   2.8533   2.9083   2.9149   2.9235   2.9428
  2.9618   2.9781   2.9918   2.9927   3.0050   3.0276   3.0594   3.0834
  3.0979   3.1551   3.1691   3.1731   3.1999   3.2226   3.2321   3.2660
  3.2724   3.3032   3.3109   3.3253   3.3299   3.3731   3.3754   3.4030
  3.4162   3.4488   3.4564   3.4690   3.4931   3.5134   3.5228   3.5439
  3.5464   3.5659   3.5858   3.6256   3.6332   3.6422   3.6673   3.6926
  3.7001   3.7240   3.7436   3.7564   3.7812   3.7870   3.7946   3.8121
  3.8196   3.8503   3.8627   3.8875   3.8986   3.9227   3.9383   3.9603
  3.9684   3.9896   4.0093   4.0443   4.0602   4.0849   4.1246   4.1398
  4.1534   4.1826   4.2186   4.2277   4.2643   4.2964   4.3033   4.3121
  4.3420   4.3880   4.3943   4.4162   4.4312   4.4481   4.4582   4.4917
  4.5094   4.5277   4.5597   4.5778   4.6296   4.6429   4.6777   4.6920
  4.7100   4.7505   4.7639   4.8013   4.8643   4.8854   4.9344   4.9840
  5.0868   5.1366   5.1717   5.1997   5.2209   5.2493   5.2588   5.2719
  5.2896   5.3122   5.3387   5.3445   5.3833   5.3917   5.4187   5.4341
  5.4433   5.4893   5.5160   5.5339   5.5489   5.5668   5.5713   5.5978
  5.6362   5.6723   5.6887   5.7437   5.7540   5.7803   5.8136   5.8493
  5.8655   5.9306   5.9681   6.0244   6.0622   6.0986   6.3357   6.3400
  6.4390   6.5614   6.5872   6.7731   6.8334   6.9812   7.0422   7.0557
  7.1211   7.1875   7.2692   7.3061   7.3241   7.3373   7.3667   7.4067
  7.4386   7.4620   7.5286   7.5442   7.6198   7.6834   7.8122   7.8214
  7.8860   7.9393   8.2014  24.3858  24.6193  24.7924  24.8438  24.9795
 25.2046  50.5624  50.6088  50.6432  50.7276
 --------------------------------------------------------------
 
          Ground-State Mulliken Net Atomic Charges

     Atom                 Charge (a.u.)    Spin (a.u.)
  --------------------------------------------------------
      1 C                    -0.144221      -0.002451
      2 O                    -0.115751      -0.001087
      3 O                    -0.021372       0.126487
      4 C                     0.020966       0.000889
      5 C                    -0.397820       0.556386
[...]
 -----------------------------------------------------------------
    Charge (ESU x 10^10)
                 0.0000
    Dipole Moment (Debye)
         X       1.1410      Y       2.5921      Z      -4.7203
       Tot       5.5047
    Quadrupole Moments (Debye-Ang)
        XX     -56.5795     XY     -13.4219     YY     -69.2066
        XZ       8.0993     YZ       2.4715     ZZ     -50.9154
    Octopole Moments (Debye-Ang^2)
       XXX      13.4205    XXY      20.4694    XYY      15.5275
       YYY      49.0016    XXZ     -27.9428    XYZ     -14.6809
       YYZ      -3.3781    XZZ       4.2123    YZZ      20.0028
       ZZZ     -22.7680
    Hexadecapole Moments (Debye-Ang^3)
      XXXX    -434.2693   XXXY     -75.0165   XXYY    -174.7042
      XYYY     -80.9124   YYYY    -574.9002   XXXZ      69.0937
      XXYZ      55.1873   XYYZ      39.1549   YYYZ      68.3538
      XXZZ    -142.8458   XYZZ     -26.6716   YYZZ    -178.9857
      XZZZ      75.2114   YZZZ      76.9811   ZZZZ    -442.0351
 -----------------------------------------------------------------
 Calculating analytic gradient of the SCF energy
 Gradient of CDS energy
            1           2           3           4           5           6
    1   0.0000708  -0.0000920  -0.0023284  -0.0008642   0.0020634  -0.0022439
    2   0.0002482  -0.0000375  -0.0025291  -0.0023676   0.0032354  -0.0012453
    3  -0.0001422  -0.0000167  -0.0008565  -0.0005483   0.0009586   0.0009971
            7           8           9          10          11          12
    1   0.0015392   0.0001932   0.0002827   0.0001320   0.0000518  -0.0000458
    2   0.0009933  -0.0002369  -0.0001125   0.0000488   0.0001140  -0.0001119
    3  -0.0001713  -0.0000065  -0.0000587  -0.0001732  -0.0001461   0.0001103
           13          14          15          16          17
    1   0.0001075   0.0001199   0.0001796   0.0011958  -0.0003615
    2   0.0001886  -0.0001555  -0.0000968   0.0022955  -0.0002308
    3  -0.0001921   0.0000645  -0.0000593   0.0004947  -0.0002544
 Gradient of SCF Energy
            1           2           3           4           5           6
    1  -0.0098429   0.0017606   0.0019596   0.0058172   0.0085772  -0.0065367
    2   0.0099738   0.0006984   0.0023857  -0.0154698   0.0003554  -0.0091598
    3   0.0084451   0.0005301   0.0015099   0.0130684  -0.0054079   0.0018870
            7           8           9          10          11          12
    1   0.0007683   0.0018972  -0.0057339   0.0067752  -0.0047056  -0.0103099
    2  -0.0019134   0.0089945  -0.0028823  -0.0003742   0.0087443   0.0044582
    3  -0.0004492  -0.0037658   0.0047265  -0.0116455  -0.0129247   0.0024855
           13          14          15          16          17
    1   0.0013667   0.0022023   0.0069429   0.0114365  -0.0123746
    2   0.0020228  -0.0012160  -0.0032906  -0.0097072   0.0063800
    3   0.0004049   0.0011371  -0.0021804   0.0155534  -0.0133744
 Max gradient component =       1.555E-02
 RMS gradient           =       7.173E-03
 Computing fast CPCM-SWIG gradient
 Updating gradient with PCM contributions...
 -- total gradient after adding PCM contribution --
---------------------------------------------------
  Atom         X              Y              Z     
---------------------------------------------------
   1       0.000007       0.000007      -0.000001
   2      -0.000000      -0.000011      -0.000028
   3      -0.000013       0.000011      -0.000000
   4       0.000153       0.000312       0.000036
   5       0.000013       0.000025       0.000006
   6       0.000018       0.000028       0.000003
   7      -0.000010       0.000012       0.000010
   8       0.000002       0.000006       0.000008
   9      -0.000002      -0.000001       0.000002
  10      -0.000001      -0.000018      -0.000003
  11      -0.000005      -0.000003      -0.000003
  12      -0.000002      -0.000004      -0.000006
  13       0.000001       0.000027      -0.000009
  14       0.000002       0.000014       0.000014
  15       0.000001      -0.000001       0.000010
  16      -0.000189      -0.000366      -0.000014
  17       0.000025      -0.000037      -0.000026
---------------------------------------------------
 Number of fixed atoms: 0
 Gradient time:  CPU 430.63 s  wall 20.42 s
 Geometry Optimization Parameters
   NAtoms,    NIC,     NZ,  NCons,   NDum,   NFix, NCnnct, MaxDiis
       17     116       0       0       0       0       0       0

 Cartesian Hessian Update
 Hessian updated using Powell/Murtagh-Sargent update
  Mixing factors:     0.999990 Powell                      0.000010 Murtagh-Sargent


** GEOMETRY OPTIMIZATION IN DELOCALIZED INTERNAL COORDINATES **
   Searching for a Transition State

   Optimization Cycle:  36

                       Coordinates (Angstroms)
     ATOM                X               Y               Z
      1  C         0.9575543508    0.0630275269   -1.0186033935
      2  O         1.1826766902    1.3709075328   -0.4575272313
      3  O         0.0025554246    1.6644977930    0.3493286879
      4  C        -0.5508724494    0.0954893375   -1.2609691175
      5  C        -0.9366581026    0.7541457492    0.0267791143
      6  C        -0.5808220408   -0.8819405893    1.5225329375
      7  O        -1.5981069274   -1.5915667271    1.5758127926
      8  C         0.6990976350   -1.4322286665    0.9757024414
      9  C         1.3830120288   -1.0386899037   -0.0918356525
     10  H         1.5289827942    0.0664912190   -1.9424259433
     11  H        -0.7668430366    0.7729192243   -2.0923236379
     12  H        -1.9320622090    1.0332215614    0.3434719797
     13  H        -0.4880012539   -0.0137331687    2.1875136977
     14  H         1.0753544910   -2.2646257403    1.5635108090
     15  H         2.3042605793   -1.5483684985   -0.3408290218
     16  O        -1.1121460809   -1.1726929908   -1.4851441138
     17  H        -1.8490400932   -1.0699737592   -2.0960434485
   Point Group: c1    Number of degrees of freedom:    45


   Energy is   -533.552888847

 Hessian updated using Powell/Murtagh-Sargent update
  Mixing factors:     0.995180 Powell                      0.004820 Murtagh-Sargent

 45 Hessian modes will be used to form the next step
  Hessian Eigenvalues:
    -0.051550    0.000065    0.005945    0.010385    0.011106    0.016840
     0.019801    0.024786    0.041309    0.044057    0.051559    0.056706
     0.069233    0.073544    0.086949    0.090317    0.108469    0.114908
     0.120522    0.131158    0.146736    0.159534    0.166363    0.188736
     0.193572    0.226748    0.240059    0.252701    0.278597    0.297394
     0.305781    0.317810    0.328232    0.334074    0.340938    0.351546
     0.352357    0.360612    0.363713    0.367515    0.405767    0.525093
     0.532991    0.645482    0.987772
**WARNING** Magnitude of eigenvalue   2 too small.  Replaced by     0.000100

 Transition state search - taking P-RFO step
 Searching for Lamda that Maximizes Along the Lowest mode
 Value Taken    Lamda =   0.00000000
 Searching for Lamda that Minimizes Along All other modes
 Value Taken    Lamda =  -0.00002336
 Calculated Step too Large.  Step scaled by  0.139728
 Step Taken.  Stepsize is  0.060000

                             Maximum     Tolerance    Cnvgd?
         Gradient           0.000207      0.000300     YES
         Displacement       0.028032      0.001200      NO
         Energy change      0.000001      0.000001     YES

 Final energy is   -533.552888846670     


 ******************************
 **  OPTIMIZATION CONVERGED  **
 ******************************

                       Coordinates (Angstroms)
     ATOM                X               Y               Z
      1  C         0.9575543508    0.0630275269   -1.0186033935
      2  O         1.1826766902    1.3709075328   -0.4575272313
      3  O         0.0025554246    1.6644977930    0.3493286879
      4  C        -0.5508724494    0.0954893375   -1.2609691175
      5  C        -0.9366581026    0.7541457492    0.0267791143
      6  C        -0.5808220408   -0.8819405893    1.5225329375
      7  O        -1.5981069274   -1.5915667271    1.5758127926
      8  C         0.6990976350   -1.4322286665    0.9757024414
      9  C         1.3830120288   -1.0386899037   -0.0918356525
     10  H         1.5289827942    0.0664912190   -1.9424259433
     11  H        -0.7668430366    0.7729192243   -2.0923236379
     12  H        -1.9320622090    1.0332215614    0.3434719797
     13  H        -0.4880012539   -0.0137331687    2.1875136977
     14  H         1.0753544910   -2.2646257403    1.5635108090
     15  H         2.3042605793   -1.5483684985   -0.3408290218
     16  O        -1.1121460809   -1.1726929908   -1.4851441138
     17  H        -1.8490400932   -1.0699737592   -2.0960434485

Z-matrix Print:
$molecule
0 2
O 
C  1 1.347183
H  2 1.081206 1 113.409087
O  1 1.459417 2 107.183905 3 -163.573072 0
C  4 1.440846 1 105.756603 2 -13.033984 0
H  5 1.086274 4 104.246067 1 152.587952 0
C  2 1.496982 1 108.881681 3 147.382082 0
H  7 1.093940 2 109.292968 1 -76.677415 0
O  7 1.404838 2 115.562625 1 157.242154 0
H  9 0.962685 7 108.105218 2 101.270292 0
C  5 1.501231 4 112.425089 1 -85.610483 0
H  11 1.081882 5 116.422006 4 -105.014437 0
C  11 1.327497 5 124.610735 4 76.295767 0
H  13 1.086266 11 118.939066 5 177.829680 0
C  13 1.496675 11 128.711319 5 -1.907931 0
H  15 1.097542 13 116.096918 11 -84.599745 0
O  15 1.241482 13 120.415048 11 117.383156 0
$end

 
 --------------------------------------------------------------
 
                    Orbital Energies (a.u.)
 --------------------------------------------------------------
 
 Alpha MOs
 -- Occupied --
-19.4461 -19.4203 -19.3539 -19.3258 -10.4335 -10.4272 -10.4220 -10.4157
-10.3565 -10.3546  -1.3095  -1.1791  -1.1670  -1.1005  -0.9543  -0.8965
 -0.8054  -0.7626  -0.7341  -0.6900  -0.6683  -0.6469  -0.6077  -0.5935
 -0.5780  -0.5672  -0.5514  -0.5357  -0.5303  -0.5108  -0.4983  -0.4739
 -0.4698  -0.4181  -0.3951  -0.3768  -0.3670  -0.2903
 -- Virtual --
  0.0249   0.0345   0.0373   0.0420   0.0502   0.0569   0.0586   0.0680
  0.0753   0.0925   0.0958   0.1086   0.1105   0.1305   0.1330   0.1340
  0.1365   0.1452   0.1458   0.1493   0.1562   0.1620   0.1662   0.1704
  0.1790   0.1814   0.1905   0.1964   0.1983   0.2120   0.2279   0.2312
  0.2393   0.2472   0.2552   0.2734   0.2788   0.2857   0.2982   0.3056
  0.3145   0.3248   0.3263   0.3401   0.3444   0.3494   0.3520   0.3605
  0.3674   0.3705   0.3756   0.3773   0.3817   0.3889   0.3934   0.4012
  0.4101   0.4140   0.4188   0.4295   0.4476   0.4666   0.4800   0.4998
  0.5053   0.5136   0.5375   0.5641   0.5859   0.5928   0.6017   0.6091
  0.6201   0.6442   0.6521   0.6559   0.6641   0.6893   0.6945   0.6998
  0.7115   0.7152   0.7209   0.7273   0.7377   0.7450   0.7643   0.7690
  0.7738   0.8000   0.8041   0.8152   0.8264   0.8345   0.8507   0.8766
  0.8864   0.9344   0.9394   0.9778   1.0035   1.0284   1.0371   1.0576
  1.0590   1.0737   1.0992   1.1120   1.1175   1.1322   1.1416   1.1506
  1.1646   1.1813   1.1932   1.2053   1.2072   1.2164   1.2202   1.2307
  1.2403   1.2497   1.2549   1.2687   1.2769   1.2951   1.3011   1.3061
  1.3210   1.3332   1.3515   1.3668   1.3954   1.4048   1.4126   1.4188
  1.4378   1.4579   1.4697   1.4796   1.4871   1.4937   1.5261   1.5385
  1.5451   1.5618   1.5768   1.5876   1.5955   1.6090   1.6324   1.6582
  1.6664   1.6806   1.6956   1.7214   1.7497   1.7581   1.7704   1.8078
  1.8576   1.8817   1.9099   1.9346   1.9789   1.9920   2.0104   2.0167
  2.0513   2.0572   2.1117   2.1479   2.1739   2.2415   2.2429   2.2643
  2.3112   2.3527   2.3891   2.4283   2.4462   2.4853   2.5681   2.6207
  2.6508   2.6727   2.6989   2.7171   2.7370   2.7773   2.7983   2.8163
  2.8296   2.8350   2.8612   2.8970   2.9086   2.9196   2.9487   2.9544
  2.9619   2.9851   3.0026   3.0060   3.0229   3.0550   3.0722   3.0835
  3.1323   3.1397   3.1527   3.1605   3.2043   3.2225   3.2297   3.2602
  3.2742   3.2981   3.3154   3.3278   3.3453   3.3613   3.3830   3.4036
  3.4162   3.4394   3.4438   3.4717   3.4842   3.5006   3.5257   3.5439
  3.5566   3.5776   3.6087   3.6211   3.6281   3.6372   3.6681   3.6837
  3.7156   3.7357   3.7421   3.7641   3.7717   3.7887   3.7950   3.8025
  3.8377   3.8422   3.8711   3.8840   3.8892   3.9253   3.9529   3.9687
  3.9877   3.9909   4.0153   4.0437   4.0702   4.0955   4.1291   4.1572
  4.1697   4.1966   4.2210   4.2492   4.2694   4.2952   4.3145   4.3388
  4.3552   4.3848   4.3935   4.4094   4.4257   4.4301   4.4786   4.4853
  4.5126   4.5363   4.5535   4.6099   4.6463   4.6505   4.6616   4.7069
  4.7219   4.7598   4.7834   4.8327   4.8908   4.9370   4.9804   5.0806
  5.1376   5.1558   5.1926   5.2043   5.2241   5.2630   5.2739   5.2981
  5.3080   5.3211   5.3337   5.3478   5.3840   5.3908   5.4112   5.4445
  5.4787   5.5018   5.5202   5.5306   5.5380   5.5585   5.5798   5.6039
  5.6824   5.6925   5.7430   5.7723   5.8165   5.8413   5.8762   5.9028
  5.9464   5.9913   6.0293   6.0976   6.1472   6.3212   6.3299   6.5784
  6.6001   6.7075   6.7362   6.8310   6.9737   6.9888   7.0110   7.0913
  7.1817   7.2561   7.3009   7.3333   7.3506   7.3827   7.4113   7.4254
  7.4369   7.5271   7.5402   7.6134   7.6971   7.7899   7.8416   7.8826
  7.9289   8.2073  24.3830  24.6685  24.7966  24.8599  24.9852  25.1967
 50.5618  50.6170  50.6427  50.7116
 
 Beta MOs
 -- Occupied --
-19.4412 -19.4204 -19.3538 -19.3200 -10.4339 -10.4221 -10.4181 -10.4156
-10.3564 -10.3544  -1.3035  -1.1783  -1.1576  -1.0955  -0.9505  -0.8922
 -0.7998  -0.7549  -0.7263  -0.6829  -0.6635  -0.6443  -0.6014  -0.5870
 -0.5744  -0.5606  -0.5409  -0.5272  -0.5194  -0.5062  -0.4961  -0.4688
 -0.4463  -0.4131  -0.3877  -0.3751  -0.3609
 -- Virtual --
 -0.0243   0.0249   0.0356   0.0374   0.0431   0.0532   0.0585   0.0599
  0.0750   0.0782   0.0933   0.1074   0.1110   0.1191   0.1310   0.1329
  0.1352   0.1367   0.1455   0.1468   0.1497   0.1563   0.1618   0.1679
  0.1712   0.1810   0.1820   0.1910   0.1972   0.1982   0.2127   0.2280
  0.2312   0.2399   0.2483   0.2574   0.2745   0.2817   0.2872   0.3022
  0.3078   0.3154   0.3259   0.3284   0.3415   0.3469   0.3511   0.3554
  0.3648   0.3681   0.3712   0.3773   0.3784   0.3837   0.3899   0.3959
  0.4022   0.4108   0.4163   0.4220   0.4329   0.4521   0.4676   0.4816
  0.5015   0.5070   0.5171   0.5394   0.5654   0.5880   0.5943   0.6042
  0.6108   0.6217   0.6458   0.6545   0.6584   0.6683   0.6918   0.6989
  0.7036   0.7177   0.7186   0.7226   0.7309   0.7392   0.7525   0.7656
  0.7722   0.7765   0.8027   0.8055   0.8188   0.8293   0.8370   0.8518
  0.8789   0.8888   0.9363   0.9423   0.9803   1.0052   1.0297   1.0415
  1.0609   1.0612   1.0771   1.1055   1.1149   1.1200   1.1346   1.1439
  1.1548   1.1675   1.1829   1.1955   1.2082   1.2134   1.2190   1.2241
  1.2341   1.2421   1.2536   1.2577   1.2701   1.2811   1.2985   1.3050
  1.3104   1.3254   1.3357   1.3539   1.3731   1.3988   1.4071   1.4157
  1.4216   1.4408   1.4615   1.4750   1.4829   1.4907   1.4969   1.5278
  1.5418   1.5486   1.5652   1.5800   1.5938   1.6010   1.6133   1.6381
  1.6635   1.6712   1.6844   1.6992   1.7249   1.7542   1.7630   1.7787
  1.8134   1.8609   1.8846   1.9177   1.9414   1.9858   1.9972   2.0140
  2.0231   2.0585   2.0607   2.1154   2.1502   2.1793   2.2462   2.2477
  2.2690   2.3157   2.3551   2.3913   2.4355   2.4493   2.4923   2.5730
  2.6255   2.6558   2.6789   2.7092   2.7213   2.7472   2.7823   2.8064
  2.8238   2.8341   2.8411   2.8694   2.9054   2.9166   2.9292   2.9535
  2.9592   2.9718   2.9897   3.0076   3.0100   3.0326   3.0651   3.0844
  3.0937   3.1480   3.1522   3.1643   3.1736   3.2160   3.2327   3.2400
  3.2688   3.2817   3.3076   3.3207   3.3411   3.3494   3.3676   3.3919
  3.4071   3.4200   3.4498   3.4588   3.4780   3.4955   3.5177   3.5325
  3.5467   3.5674   3.5879   3.6157   3.6305   3.6491   3.6518   3.6764
  3.6913   3.7263   3.7415   3.7501   3.7722   3.7777   3.7991   3.8045
  3.8177   3.8449   3.8491   3.8826   3.8893   3.8966   3.9308   3.9597
  3.9731   3.9944   3.9996   4.0250   4.0506   4.0760   4.1057   4.1354
  4.1705   4.1742   4.2006   4.2265   4.2547   4.2797   4.3033   4.3242
  4.3442   4.3584   4.3967   4.3997   4.4152   4.4355   4.4375   4.4855
  4.4986   4.5216   4.5422   4.5605   4.6185   4.6497   4.6563   4.6713
  4.7146   4.7310   4.7644   4.7909   4.8441   4.8942   4.9457   4.9849
  5.0848   5.1481   5.1697   5.2075   5.2159   5.2392   5.2698   5.2794
  5.3031   5.3205   5.3285   5.3370   5.3586   5.3908   5.3971   5.4183
  5.4472   5.4839   5.5077   5.5284   5.5366   5.5500   5.5659   5.5903
  5.6140   5.6863   5.7003   5.7478   5.7790   5.8285   5.8502   5.8812
  5.9074   5.9620   5.9971   6.0335   6.0997   6.1493   6.3299   6.3425
  6.5824   6.6007   6.7104   6.7415   6.8412   6.9853   7.0151   7.0345
  7.0935   7.1869   7.2649   7.3070   7.3361   7.3594   7.3852   7.4264
  7.4323   7.4482   7.5338   7.5448   7.6207   7.6977   7.8015   7.8436
  7.8847   7.9310   8.2096  24.3831  24.6716  24.7970  24.8653  24.9851
 25.1968  50.5633  50.6199  50.6428  50.7158
 --------------------------------------------------------------
 
          Ground-State Mulliken Net Atomic Charges

     Atom                 Charge (a.u.)    Spin (a.u.)
  --------------------------------------------------------
      1 C                    -0.079325      -0.012422
      2 O                    -0.118069      -0.002889
      3 O                    -0.010319       0.124676
      4 C                    -0.018006       0.002613
      5 C                    -0.333828       0.583498
      6 C                    -0.206254       0.062656
      7 O                    -0.458497       0.205789
      8 C                    -0.051530      -0.027870
      9 C                    -0.346394       0.030939
     10 H                     0.290876      -0.002254
     11 H                     0.260461       0.029393
     12 H                     0.322357      -0.007944
     13 H                     0.229673       0.007576
     14 H                     0.276212       0.002367
     15 H                     0.302140       0.000445
     16 O                    -0.413947       0.003693
     17 H                     0.354452      -0.000265
  --------------------------------------------------------
  Sum of atomic charges =     0.000000
  Sum of spin   charges =     1.000000

 -----------------------------------------------------------------
                    Cartesian Multipole Moments
 -----------------------------------------------------------------
    Charge (ESU x 10^10)
                 0.0000
    Dipole Moment (Debye)
         X       1.1410      Y       2.5921      Z      -4.7203
       Tot       5.5047
    Quadrupole Moments (Debye-Ang)
        XX     -56.5795     XY     -13.4219     YY     -69.2066
        XZ       8.0993     YZ       2.4715     ZZ     -50.9154
    Octopole Moments (Debye-Ang^2)
       XXX      13.4205    XXY      20.4694    XYY      15.5275
       YYY      49.0016    XXZ     -27.9428    XYZ     -14.6809
       YYZ      -3.3781    XZZ       4.2123    YZZ      20.0028
       ZZZ     -22.7680
    Hexadecapole Moments (Debye-Ang^3)
      XXXX    -434.2693   XXXY     -75.0165   XXYY    -174.7042
      XYYY     -80.9124   YYYY    -574.9002   XXXZ      69.0937
      XXYZ      55.1873   XYYZ      39.1549   YYYZ      68.3538
      XXZZ    -142.8458   XYZZ     -26.6716   YYZZ    -178.9857
      XZZZ      75.2114   YZZZ      76.9811   ZZZZ    -442.0351
 -----------------------------------------------------------------
 Total job time:  5025.33s(wall), 125182.65s(cpu) 
 Wed May 15 15:45:25 2024

        *************************************************************
        *                                                           *
        *  Thank you very much for using Q-Chem.  Have a nice day.  *
        *                                                           *
        *************************************************************


