
Running Job 1 of 1 Q_in.in
qchem Q_in.in_35700.0 /scratch/ari.fischer/qChem2104978.hpc-mn1/qchem35700/ 0
/usr/local/qchem-5.4.1/exe/qcprog.exe_s Q_in.in_35700.0 /scratch/ari.fischer/qChem2104978.hpc-mn1/qchem35700/
                  Welcome to Q-Chem
     A Quantum Leap Into The Future Of Chemistry


 Q-Chem 5.4, Q-Chem, Inc., Pleasanton, CA (2021)

 License issued to: Nanyang Technological University (site)

 E. Epifanovsky,  A. T. B. Gilbert,  Xintian Feng,  Joonho Lee,  Yuezhi Mao,  
 N. Mardirossian,  P. Pokhilko,  A. White,  M. Wormit,  M. P. Coons,  
 A. L. Dempwolff,  Zhengting Gan,  D. Hait,  P. R. Horn,  L. D. Jacobson,  
 I. Kaliman,  J. Kussmann,  A. W. Lange,  Ka Un Lao,  D. S. Levine,  Jie Liu,  
 S. C. McKenzie,  A. F. Morrison,  K. Nanda,  F. Plasser,  D. R. Rehn,  
 M. L. Vidal,  Zhi-Qiang You,  Ying Zhu,  B. Alam,  B. Albrecht,  
 A. Aldossary,  E. Alguire,  J. H. Andersen,  D. Barton,  K. Begam,  A. Behn,  
 Y. A. Bernard,  E. J. Berquist,  H. Burton,  A. Carreras,  K. Carter-Fenk,  
 R. Chakraborty,  A. D. Chien,  K. D. Closser,  V. Cofer-Shabica,  
 S. Dasgupta,  Jia Deng,  M. de Wergifosse,  M. Diedenhofen,  Hainam Do,  
 S. Ehlert,  Po-Tung Fang,  S. Fatehi,  Qingguo Feng,  T. Friedhoff,  
 J. Gayvert,  Qinghui Ge,  G. Gidofalvi,  M. Goldey,  J. Gomes,  
 C. Gonzalez-Espinoza,  S. Gulania,  A. Gunina,  M. W. D. Hanson-Heine,  
 P. H. P. Harbach,  A. W. Hauser,  M. F. Herbst,  M. Hernandez Vera,  
 M. Hodecker,  Z. C. Holden,  S. Houck,  Xunkun Huang,  Kerwin Hui,  
 B. C. Huynh,  M. Ivanov,  Hyunjun Ji,  Hanjie Jiang,  B. Kaduk,  S. Kaehler,  
 K. Khistyaev,  Jaehoon Kim,  P. Klunzinger,  Z. Koczor-Benda,  
 Joong Hoon Koh,  D. Kosenkov,  L. Koulias,  T. Kowalczyk,  C. M. Krauter,  
 K. Kue,  A. Kunitsa,  T. Kus,  A. Landau,  K. V. Lawler,  D. Lefrancois,  
 S. Lehtola,  Rain Li,  Yi-Pei Li,  Jiashu Liang,  M. Liebenthal,  
 Hung-Hsuan Lin,  You-Sheng Lin,  Fenglai Liu,  Kuan-Yu Liu,  
 M. Loipersberger,  A. Luenser,  A. Manjanath,  P. Manohar,  E. Mansoor,  
 S. F. Manzer,  Shan-Ping Mao,  A. V. Marenich,  T. Markovich,  S. Mason,  
 S. A. Maurer,  P. F. McLaughlin,  M. F. S. J. Menger,  J.-M. Mewes,  
 S. A. Mewes,  P. Morgante,  J. W. Mullinax,  K. J. Oosterbaan,  G. Paran,  
 Alexander C. Paul,  Suranjan K. Paul,  F. Pavosevic,  Zheng Pei,  S. Prager,  
 E. I. Proynov,  E. Ramos,  B. Rana,  A. E. Rask,  A. Rettig,  R. M. Richard,  
 F. Rob,  E. Rossomme,  T. Scheele,  M. Scheurer,  M. Schneider,  
 N. Sergueev,  S. M. Sharada,  W. Skomorowski,  D. W. Small,  C. J. Stein,  
 Yu-Chuan Su,  E. J. Sundstrom,  Zhen Tao,  J. Thirman,  T. Tsuchimochi,  
 N. M. Tubman,  S. P. Veccham,  O. Vydrov,  J. Wenzel,  J. Witte,  A. Yamada,  
 Kun Yao,  S. Yeganeh,  S. R. Yost,  A. Zech,  Igor Ying Zhang,  Xing Zhang,  
 Yu Zhang,  D. Zuev,  A. Aspuru-Guzik,  A. T. Bell,  N. A. Besley,  
 K. B. Bravaya,  B. R. Brooks,  D. Casanova,  Jeng-Da Chai,  S. Coriani,  
 C. J. Cramer,  A. E. DePrince, III,  R. A. DiStasio Jr.,  A. Dreuw,  
 B. D. Dunietz,  T. R. Furlani,  W. A. Goddard III,  S. Grimme,  
 S. Hammes-Schiffer,  T. Head-Gordon,  W. J. Hehre,  Chao-Ping Hsu,  
 T.-C. Jagau,  Yousung Jung,  A. Klamt,  Jing Kong,  D. S. Lambrecht,  
 WanZhen Liang,  N. J. Mayhall,  C. W. McCurdy,  J. B. Neaton,  
 C. Ochsenfeld,  J. A. Parkhill,  R. Peverati,  V. A. Rassolov,  Yihan Shao,  
 L. V. Slipchenko,  T. Stauch,  R. P. Steele,  J. E. Subotnik,  
 A. J. W. Thom,  A. Tkatchenko,  D. G. Truhlar,  T. Van Voorhis,  
 T. A. Wesolowski,  K. B. Whaley,  H. L. Woodcock III,  P. M. Zimmerman,  
 S. Faraji,  P. M. W. Gill,  M. Head-Gordon,  J. M. Herbert,  A. I. Krylov

 Additional authors for Version 5.4.1: 
 S. Kotaru,  Shaozhi Li,  Xiangyuan Li,  F. Matz,  A. Molle,  Haisheng Ren,  
 Yingli Su,  Hung-Yi Tsai,  C. Utku,  Fang Wang

 Contributors to earlier versions of Q-Chem not listed above: 
 R. D. Adamson,  B. Austin,  R. Baer,  J. Baker,  G. J. O. Beran,  
 K. Brandhorst,  S. T. Brown,  E. F. C. Byrd,  A. K. Chakraborty,  
 G. K. L. Chan,  Chun-Min Chang,  Yunqing Chen,  C.-L. Cheng,  
 Siu Hung Chien,  D. M. Chipman,  D. L. Crittenden,  H. Dachsel,  
 R. J. Doerksen,  A. D. Dutoi,  R. G. Edgar,  J. Fosso-Tande,  
 L. Fusti-Molnar,  D. Ghosh,  A. Ghysels,  A. Golubeva-Zadorozhnaya,  
 J. Gonthier,  M. S. Gordon,  S. R. Gwaltney,  G. Hawkins,  J. E. Herr,  
 A. Heyden,  S. Hirata,  E. G. Hohenstein,  G. Kedziora,  F. J. Keil,  
 C. Kelley,  Jihan Kim,  R. A. King,  R. Z. Khaliullin,  P. P. Korambath,  
 W. Kurlancheek,  A. Laurent,  A. M. Lee,  M. S. Lee,  S. V. Levchenko,  
 Ching Yeh Lin,  D. Liotard,  E. Livshits,  R. C. Lochan,  I. Lotan,  
 L. A. Martinez-Martinez,  P. E. Maslen,  N. Nair,  D. P. O'Neill,  
 D. Neuhauser,  E. Neuscamman,  C. M. Oana,  R. Olivares-Amaya,  R. Olson,  
 T. M. Perrine,  B. Peters,  P. A. Pieniazek,  A. Prociuk,  Y. M. Rhee,  
 J. Ritchie,  M. A. Rohrdanz,  E. Rosta,  N. J. Russ,  H. F. Schaefer III,  
 M. W. Schmidt,  N. E. Schultz,  S. Sharma,  N. Shenvi,  C. D. Sherrill,  
 A. C. Simmonett,  A. Sodt,  T. Stein,  D. Stuck,  K. S. Thanthiriwatte,  
 V. Vanovschi,  L. Vogt,  Tao Wang,  A. Warshel,  M. A. Watson,  
 C. F. Williams,  Q. Wu,  X. Xu,  Jun Yang,  W. Zhang,  Yan Zhao

 Please cite Q-Chem as follows:
 Y. Shao et al., Mol. Phys. 113, 184-215 (2015)
 DOI: 10.1080/00268976.2014.952696

 Q-Chem 5.4.1 for Intel X86 EM64T Linux

 Parts of Q-Chem use Armadillo 9.800.1 (Horizon Scraper).
 http://arma.sourceforge.net/

 Q-Chem begins on Thu May 16 12:04:35 2024  

 Host: 
0

     Scratch files written to /scratch/ari.fischer/qChem2104978.hpc-mn1/qchem35700//
 Aug1521 |scratch|qcdevops|jenkins|workspace|build_RNUM 8249   
 Processing $rem in /usr/local/qchem-5.4.1/config/preferences:
 Processing $rem in /home/ari.fischer/.qchemrc:
 Symmetry turned off for PCM/SM12/SMD calculation


!!********************************************.
!!******************Warning*******************.
!!Desired Analytical derivatives not available.
!!Finite difference job might take a long time.
!!********************************************.
!!********************************************.


 2-order derivative to be evaluated numerically with 1-order analytical derivatives

 Checking the input file for inconsistencies... 	...done.

--------------------------------------------------------------
User input:
--------------------------------------------------------------
$molecule
0 2
O         1.5907865096   -0.7181961045    0.4465959127
C         2.8063084817   -0.4414297793   -0.2227344998
C         3.8929484566    0.1585415825    0.6448183616
O         5.0003609138    0.3841788470    0.1326367705
C         3.6361733287    0.4549268408    2.0169152981
C         4.6846085732    1.0820042512    2.8609047305
C         4.9428601759    2.5442696836    2.4663245936
O         3.7187093120    3.2257405861    2.3278372841
O         5.7539813277    3.1112594190    3.4711442927
H         1.1215322174    0.1102184038    0.5915445928
H         2.6559881903    0.2307134918   -1.0703942580
H         3.1878740981   -1.3845200616   -0.6128000413
H         2.6742860769    0.2286144273    2.4497502417
H         5.6342002457    0.5598566760    2.7147704664
H         5.4757613003    2.5488038765    1.5159129433
H         3.8732005656    4.0143101608    1.7951746506
H         6.1604458870    3.9110985054    3.1169720138
O         4.4522664375    0.8849368427    4.2473428165
O         3.1541435937    1.4040688862    4.6059262672
C         3.3511667308    2.1887308104    5.7655778220
O         3.7733859321    3.4928207403    5.4763985860
H         2.3662643268    2.2500324325    6.2223149309
H         4.0534315675    1.6700754153    6.4188639362
H         4.6074710507    3.4393469664    4.9788494878
$end

$rem
BASIS = 6-311++G(2df,2p)
GUI = 2
JOB_TYPE = Frequency
METHOD = wB97M-V
SOLVENT_METHOD = SMD
SCF_ALGORITHM = DIIS_GDM
MAX_SCF_CYCLES = 400
SCF_CONVERGENCE = 7
THRESH = 12
$end
--------------------------------------------------------------
 ----------------------------------------------------------------
             Standard Nuclear Orientation (Angstroms)
    I     Atom           X                Y                Z
 ----------------------------------------------------------------
    1      O       1.5907865096    -0.7181961045     0.4465959127
    2      C       2.8063084817    -0.4414297793    -0.2227344998
    3      C       3.8929484566     0.1585415825     0.6448183616
    4      O       5.0003609138     0.3841788470     0.1326367705
    5      C       3.6361733287     0.4549268408     2.0169152981
    6      C       4.6846085732     1.0820042512     2.8609047305
    7      C       4.9428601759     2.5442696836     2.4663245936
    8      O       3.7187093120     3.2257405861     2.3278372841
    9      O       5.7539813277     3.1112594190     3.4711442927
   10      H       1.1215322174     0.1102184038     0.5915445928
   11      H       2.6559881903     0.2307134918    -1.0703942580
   12      H       3.1878740981    -1.3845200616    -0.6128000413
   13      H       2.6742860769     0.2286144273     2.4497502417
   14      H       5.6342002457     0.5598566760     2.7147704664
   15      H       5.4757613003     2.5488038765     1.5159129433
   16      H       3.8732005656     4.0143101608     1.7951746506
   17      H       6.1604458870     3.9110985054     3.1169720138
   18      O       4.4522664375     0.8849368427     4.2473428165
   19      O       3.1541435937     1.4040688862     4.6059262672
   20      C       3.3511667308     2.1887308104     5.7655778220
   21      O       3.7733859321     3.4928207403     5.4763985860
   22      H       2.3662643268     2.2500324325     6.2223149309
   23      H       4.0534315675     1.6700754153     6.4188639362
   24      H       4.6074710507     3.4393469664     4.9788494878
 ----------------------------------------------------------------
 Nuclear Repulsion Energy =         897.29958838 hartrees
 There are       52 alpha and       51 beta electrons
 Requested basis set is 6-311++G(2df,2p)
 There are 170 shells and 552 basis functions

 Total QAlloc Memory Limit 288000 MB
 Mega-Array Size       188 MB
 MEM_STATIC part       192 MB
 
 Citation of the SMD model:
 Marenich, A.V.; Cramer, C.J.; Truhlar, D.G.
 J. Phys. Chem. B 2009, 113, 6378-6396.
 iSolventCode=           1
 Solvent: water                                                           
 
 vradii
            1           2           3           4           5           6
    1   1.5200000   1.8500000   1.8500000   1.5200000   1.8500000   1.8500000
            7           8           9          10          11          12
    1   1.8500000   1.5200000   1.5200000   1.2000000   1.2000000   1.2000000
           13          14          15          16          17          18
    1   1.2000000   1.2000000   1.2000000   1.2000000   1.2000000   1.5200000
           19          20          21          22          23          24
    1   1.5200000   1.8500000   1.5200000   1.2000000   1.2000000   1.2000000
 Changing PCM_VDW_RADII to SMD_RADIUS
 Discretize the solute cavity surface with Lebedev spheres
	Using 110 Lebedev grid points for each H atom
	Using 194 Lebedev grid points for other atoms
	Atomic van der Waals radii will be scaled by 1.20
 Remove points where switching function is < 1.0e-08
 Keep 1844 surface tesserae and discard 1888 interior tesserae
 Molecular Surface Area = 205.946 Angst**2
 A cutoff of  1.0D-12 yielded  11801 shell pairs
 There are    122450 function pairs (    151288 Cartesian)
 Smallest overlap matrix eigenvalue = 2.81E-06
 Guess from superposition of atomic densities
 Warning:  Energy on first SCF cycle will be non-variational
 SAD guess density has 103.000000 electrons

 -----------------------------------------------------------------------
  General SCF calculation program by
  Eric Jon Sundstrom, Paul Horn, Yuezhi Mao, Dmitri Zuev, Alec White,
  David Stuck, Shaama M.S., Shane Yost, Joonho Lee, David Small,
  Daniel Levine, Susi Lehtola, Hugh Burton, Evgeny Epifanovsky,
  Bang C. Huynh
 -----------------------------------------------------------------------
 Exchange:     0.1500 Hartree-Fock + 1.0000 wB97M-V + LR-HF
 Correlation:  1.0000 wB97M-V
 Using SG-2 standard quadrature grid
 Nonlocal Correlation:  VV10 with C = 0.0100 and b = 6.00 and scale = 1.00000
 Grid used for NLC:  SG-1 standard quadrature
 using 16 threads for integral computing
 -------------------------------------------------------
 OpenMP Integral computing Module                
 Release: version 1.0, May 2013, Q-Chem Inc. Pittsburgh 
 -------------------------------------------------------
 
 Citation of the SMD model:
 Marenich, A.V.; Cramer, C.J.; Truhlar, D.G.
 J. Phys. Chem. B 2009, 113, 6378-6396.
 iSolventCode=           1
 Solvent: water                                                           
 
 vradii
            1           2           3           4           5           6
    1   1.5200000   1.8500000   1.8500000   1.5200000   1.8500000   1.8500000
            7           8           9          10          11          12
    1   1.8500000   1.5200000   1.5200000   1.2000000   1.2000000   1.2000000
           13          14          15          16          17          18
    1   1.2000000   1.2000000   1.2000000   1.2000000   1.2000000   1.5200000
           19          20          21          22          23          24
    1   1.5200000   1.8500000   1.5200000   1.2000000   1.2000000   1.2000000
 -------------------------------------------------------
 OpenMP BLAS3 based DFT computing Module                
 Release: version 1.0, May 2013, Q-Chem Inc. Pittsburgh 
 -------------------------------------------------------
 A unrestricted SCF calculation will be
 performed using DIIS, GDM
 SCF converges when RMS gradient is below 1.0e-07
 ---------------------------------------
  Cycle       Energy         DIIS error
 ---------------------------------------
    1    -764.4088929044      1.05e-02  
    2    -761.4925489988      1.38e-03  Done DIIS. Switching to GDM
 ---------------------------------------
  Cycle       Energy        RMS Gradient
 ---------------------------------------
    1    -761.4925489988      1.29e-01   Descent step
    2    -761.6866090990      3.28e-02   Normal BFGS step
    3    -761.7250140606      1.49e-02   Normal BFGS step
    4    -761.7273317396      1.44e-02   Normal BFGS step
    5    -761.7289769581      4.67e-03   Normal BFGS step
    6    -761.7291273393      2.17e-03   Normal BFGS step
    7    -761.7291720456      9.17e-04   Normal BFGS step
    8    -761.7291779282      4.34e-04   Normal BFGS step
    9    -761.7291803754      2.44e-04   Normal BFGS step
   10    -761.7291810003      1.33e-04   Normal BFGS step
   11    -761.7291811888      8.18e-05   Normal BFGS step
   12    -761.7291812349      3.01e-05   Normal BFGS step
   13    -761.7291812473      1.84e-05   Normal BFGS step
   14    -761.7291812488      4.51e-06   Normal BFGS step
   15    -761.7291812491      1.64e-06   Normal BFGS step
   16    -761.7291812492      1.17e-06   Normal BFGS step
   17    -761.7291812492      9.18e-07   Normal BFGS step
   18    -761.7291812492      7.07e-07   Normal BFGS step
   19    -761.7291812493      4.07e-07   Normal BFGS step
   20    -761.7291812492      1.57e-07   Normal BFGS step
  GDM::WARNING energy changes are now smaller than effective accuracy.
  GDM::        calculation will continue, but THRESH should be increased
  GDM::        or SCF_CONVERGENCE decreased. 
  GDM::        effective_thresh = 5.16e-09
   21    -761.7291812490      5.97e-08  Convergence criterion met
 ---------------------------------------
 SCF time:   CPU 4887.67s  wall 341.00s 
<S^2> =          0.760776042
(3)  G-ENP(liq) elect-nuc-pol free energy of system     -761.729181249 a.u.
(4)  G-CDS(liq) cavity-dispersion-solvent structure 
     free energy                                                5.4722 kcal/mol
(6)  G-S(liq) free energy of system                     -761.720460667 a.u.
 SCF   energy in the final basis set =     -761.7204606670
 Total energy in the final basis set =     -761.7204606670
 
 --------------------------------------------------------------
 
                    Orbital Energies (a.u.)
 --------------------------------------------------------------
 
 Alpha MOs
 -- Occupied --
-19.4085 -19.4050 -19.3547 -19.3481 -19.3443 -19.3389 -19.3372 -10.4554
-10.4370 -10.4365 -10.4186 -10.3930 -10.3882  -1.2804  -1.2072  -1.1856
 -1.1650  -1.1624  -1.1421  -1.0716  -0.9269  -0.8621  -0.8187  -0.7911
 -0.7376  -0.6842  -0.6726  -0.6553  -0.6491  -0.6337  -0.6278  -0.6044
 -0.5920  -0.5848  -0.5696  -0.5595  -0.5402  -0.5271  -0.5148  -0.5130
 -0.4982  -0.4792  -0.4688  -0.4561  -0.4452  -0.4268  -0.4200  -0.4181
 -0.4031  -0.3798  -0.3690  -0.3439
 -- Virtual --
  0.0223   0.0334   0.0362   0.0387   0.0533   0.0560   0.0575   0.0645
  0.0716   0.0823   0.0856   0.0912   0.0932   0.1044   0.1099   0.1147
  0.1236   0.1260   0.1353   0.1389   0.1461   0.1520   0.1557   0.1617
  0.1646   0.1680   0.1714   0.1749   0.1797   0.1860   0.1908   0.1974
  0.2043   0.2149   0.2182   0.2257   0.2373   0.2448   0.2519   0.2564
  0.2619   0.2696   0.2750   0.2790   0.2859   0.2887   0.2920   0.2960
  0.3046   0.3116   0.3168   0.3179   0.3228   0.3329   0.3334   0.3394
  0.3433   0.3438   0.3490   0.3518   0.3549   0.3607   0.3678   0.3741
  0.3772   0.3877   0.3900   0.3903   0.3979   0.4018   0.4056   0.4139
  0.4173   0.4199   0.4275   0.4318   0.4432   0.4528   0.4598   0.4866
  0.4960   0.5020   0.5072   0.5104   0.5266   0.5421   0.5578   0.5602
  0.5861   0.5920   0.6045   0.6128   0.6165   0.6227   0.6291   0.6390
  0.6455   0.6569   0.6613   0.6678   0.6723   0.6798   0.6880   0.6959
  0.7012   0.7053   0.7115   0.7237   0.7295   0.7386   0.7460   0.7475
  0.7562   0.7591   0.7670   0.7985   0.8103   0.8317   0.8433   0.8570
  0.8632   0.8739   0.8799   0.9021   0.9242   0.9295   0.9390   0.9582
  0.9643   0.9840   0.9904   1.0022   1.0155   1.0307   1.0334   1.0404
  1.0650   1.0781   1.0841   1.0910   1.0989   1.1007   1.1133   1.1257
  1.1412   1.1525   1.1717   1.1763   1.1888   1.1956   1.2045   1.2069
  1.2146   1.2219   1.2318   1.2376   1.2475   1.2520   1.2575   1.2743
  1.2777   1.2846   1.2900   1.2992   1.3026   1.3167   1.3206   1.3330
  1.3436   1.3507   1.3650   1.3707   1.3886   1.3923   1.4063   1.4097
  1.4266   1.4301   1.4373   1.4424   1.4686   1.4707   1.4831   1.4847
  1.5021   1.5065   1.5202   1.5257   1.5349   1.5439   1.5469   1.5713
  1.5762   1.5890   1.5907   1.6040   1.6197   1.6356   1.6482   1.6602
  1.6718   1.6846   1.7001   1.7120   1.7288   1.7697   1.7791   1.7983
  1.8009   1.8242   1.8515   1.8633   1.8684   1.9213   1.9256   1.9351
  1.9578   1.9767   1.9889   2.0158   2.0297   2.0479   2.0796   2.1020
  2.1102   2.1580   2.1981   2.2130   2.2259   2.2386   2.2616   2.2974
  2.3046   2.3234   2.3333   2.3559   2.3722   2.3815   2.4069   2.4194
  2.4402   2.4758   2.4919   2.5215   2.5336   2.5704   2.5724   2.6278
  2.6409   2.6946   2.6996   2.7194   2.7525   2.7659   2.7809   2.7935
  2.8422   2.8482   2.8827   2.8888   2.9083   2.9173   2.9323   2.9530
  2.9657   2.9960   3.0030   3.0111   3.0419   3.0678   3.1055   3.1156
  3.1265   3.1542   3.1656   3.1798   3.2038   3.2245   3.2306   3.2559
  3.2599   3.2770   3.2905   3.3078   3.3196   3.3296   3.3487   3.3540
  3.3808   3.4033   3.4139   3.4305   3.4452   3.4537   3.4608   3.4673
  3.4824   3.4983   3.5146   3.5418   3.5477   3.5521   3.5615   3.5749
  3.5963   3.6111   3.6258   3.6631   3.6704   3.6746   3.6895   3.7132
  3.7304   3.7492   3.7533   3.7708   3.7874   3.7983   3.8276   3.8324
  3.8408   3.8565   3.8671   3.8763   3.8785   3.8887   3.9141   3.9341
  3.9471   3.9585   3.9618   3.9955   4.0193   4.0297   4.0414   4.0676
  4.0887   4.1163   4.1216   4.1235   4.1587   4.1717   4.1869   4.1985
  4.2261   4.2584   4.2679   4.2885   4.3054   4.3199   4.3243   4.3394
  4.3429   4.3526   4.3699   4.3792   4.4009   4.4107   4.4384   4.4458
  4.4613   4.4832   4.4939   4.5212   4.5334   4.5407   4.5503   4.6240
  4.6598   4.6927   4.7294   4.7373   4.7998   4.8074   4.9901   5.0527
  5.0794   5.0815   5.1476   5.1835   5.1871   5.1922   5.2105   5.2226
  5.2281   5.2422   5.2627   5.2771   5.2858   5.2984   5.3047   5.3221
  5.3253   5.3272   5.3354   5.3455   5.3756   5.3887   5.4067   5.4116
  5.4373   5.4463   5.4551   5.4693   5.4942   5.5123   5.5226   5.5331
  5.5520   5.5545   5.5702   5.5924   5.6015   5.6044   5.6361   5.6537
  5.6579   5.6648   5.6686   5.6909   5.6988   5.7188   5.7522   5.7617
  5.8148   5.8250   5.8359   5.8608   5.9560   5.9880   6.0402   6.0414
  6.0556   6.0802   6.1171   6.1462   6.1577   6.2721   6.2840   6.5169
  6.5739   6.6096   6.6889   6.7385   6.7660   6.7916   6.8295   6.9701
  7.0432   7.0500   7.0799   7.0962   7.1315   7.1603   7.1780   7.2153
  7.2442   7.2633   7.2709   7.2826   7.3155   7.3215   7.3282   7.3401
  7.3667   7.3822   7.3972   7.4007   7.4051   7.4405   7.4466   7.5231
  7.5439   7.6389   7.6443   7.6481   7.6709   7.7328   7.7617   7.7782
  7.7923   7.8153   7.8479   7.8673   7.9513   8.0083   8.2624  24.5802
 24.7587  24.7672  24.7851  24.8453  25.1316  50.5424  50.5739  50.5838
 50.6092  50.6248  50.6551  50.7549
 
 Beta MOs
 -- Occupied --
-19.4084 -19.4049 -19.3547 -19.3479 -19.3443 -19.3372 -19.3322 -10.4546
-10.4373 -10.4370 -10.4192 -10.3931 -10.3777  -1.2803  -1.2067  -1.1763
 -1.1649  -1.1604  -1.1417  -1.0709  -0.9112  -0.8576  -0.8114  -0.7906
 -0.7341  -0.6809  -0.6709  -0.6546  -0.6461  -0.6320  -0.6235  -0.6002
 -0.5894  -0.5801  -0.5640  -0.5559  -0.5348  -0.5252  -0.5131  -0.4964
 -0.4950  -0.4784  -0.4642  -0.4461  -0.4427  -0.4221  -0.4193  -0.4171
 -0.4023  -0.3779  -0.3631
 -- Virtual --
 -0.0528   0.0221   0.0334   0.0362   0.0383   0.0532   0.0562   0.0580
  0.0646   0.0720   0.0829   0.0857   0.0933   0.1038   0.1096   0.1140
  0.1231   0.1234   0.1261   0.1356   0.1390   0.1469   0.1525   0.1571
  0.1617   0.1648   0.1677   0.1714   0.1749   0.1796   0.1860   0.1908
  0.1974   0.2050   0.2146   0.2180   0.2271   0.2369   0.2451   0.2524
  0.2564   0.2624   0.2704   0.2762   0.2805   0.2865   0.2897   0.2931
  0.2967   0.3052   0.3121   0.3172   0.3190   0.3231   0.3338   0.3369
  0.3409   0.3442   0.3459   0.3503   0.3531   0.3569   0.3628   0.3681
  0.3760   0.3779   0.3889   0.3901   0.3911   0.3984   0.4026   0.4063
  0.4145   0.4177   0.4207   0.4290   0.4325   0.4449   0.4532   0.4603
  0.4878   0.4965   0.5045   0.5086   0.5129   0.5301   0.5447   0.5589
  0.5635   0.5876   0.5936   0.6060   0.6150   0.6174   0.6234   0.6310
  0.6401   0.6480   0.6594   0.6646   0.6706   0.6727   0.6801   0.6895
  0.7011   0.7060   0.7074   0.7133   0.7251   0.7306   0.7403   0.7465
  0.7509   0.7589   0.7630   0.7685   0.8015   0.8107   0.8333   0.8448
  0.8587   0.8705   0.8759   0.8814   0.9040   0.9264   0.9337   0.9400
  0.9617   0.9665   0.9858   0.9919   1.0055   1.0174   1.0313   1.0349
  1.0407   1.0656   1.0788   1.0851   1.0917   1.1001   1.1027   1.1141
  1.1271   1.1414   1.1547   1.1727   1.1784   1.1904   1.1989   1.2059
  1.2094   1.2158   1.2230   1.2341   1.2397   1.2493   1.2525   1.2609
  1.2757   1.2796   1.2862   1.2912   1.3029   1.3046   1.3190   1.3223
  1.3336   1.3460   1.3550   1.3659   1.3721   1.3907   1.3936   1.4077
  1.4110   1.4272   1.4316   1.4391   1.4460   1.4704   1.4732   1.4853
  1.4878   1.5071   1.5091   1.5218   1.5270   1.5368   1.5449   1.5493
  1.5737   1.5814   1.5908   1.5921   1.6064   1.6206   1.6361   1.6527
  1.6625   1.6735   1.6874   1.7040   1.7166   1.7325   1.7752   1.7847
  1.8020   1.8052   1.8275   1.8581   1.8650   1.8730   1.9240   1.9288
  1.9384   1.9595   1.9787   1.9918   2.0167   2.0315   2.0518   2.0815
  2.1043   2.1147   2.1600   2.1992   2.2184   2.2296   2.2398   2.2644
  2.2982   2.3065   2.3245   2.3344   2.3576   2.3740   2.3824   2.4079
  2.4207   2.4415   2.4782   2.4946   2.5222   2.5372   2.5733   2.5789
  2.6339   2.6428   2.7012   2.7062   2.7227   2.7584   2.7723   2.7876
  2.8031   2.8484   2.8524   2.8901   2.9101   2.9223   2.9319   2.9491
  2.9720   2.9759   3.0009   3.0201   3.0372   3.0507   3.0789   3.1172
  3.1246   3.1298   3.1608   3.1719   3.1825   3.2134   3.2313   3.2387
  3.2624   3.2724   3.2862   3.2932   3.3162   3.3229   3.3363   3.3532
  3.3589   3.3862   3.4112   3.4214   3.4357   3.4573   3.4641   3.4701
  3.4755   3.4856   3.5037   3.5251   3.5465   3.5559   3.5654   3.5716
  3.5791   3.6056   3.6168   3.6382   3.6712   3.6763   3.6852   3.6953
  3.7202   3.7404   3.7584   3.7672   3.7775   3.7911   3.8073   3.8314
  3.8360   3.8476   3.8580   3.8727   3.8800   3.8831   3.8932   3.9193
  3.9346   3.9510   3.9620   3.9663   4.0015   4.0216   4.0320   4.0475
  4.0739   4.0928   4.1236   4.1266   4.1305   4.1649   4.1762   4.1927
  4.2078   4.2301   4.2655   4.2776   4.2894   4.3104   4.3245   4.3272
  4.3424   4.3478   4.3573   4.3789   4.3854   4.4071   4.4162   4.4444
  4.4490   4.4658   4.4881   4.5038   4.5393   4.5419   4.5515   4.5643
  4.6358   4.6666   4.7078   4.7408   4.7476   4.8028   4.8107   4.9979
  5.0599   5.0835   5.0915   5.1529   5.1906   5.2005   5.2058   5.2154
  5.2253   5.2405   5.2633   5.2666   5.2777   5.2873   5.2994   5.3091
  5.3248   5.3278   5.3327   5.3366   5.3492   5.3763   5.3898   5.4078
  5.4168   5.4392   5.4478   5.4649   5.4717   5.4953   5.5176   5.5242
  5.5380   5.5538   5.5605   5.5745   5.5950   5.6052   5.6101   5.6423
  5.6545   5.6601   5.6659   5.6721   5.6961   5.7071   5.7225   5.7530
  5.7646   5.8227   5.8386   5.8415   5.8707   5.9614   5.9902   6.0407
  6.0419   6.0560   6.0810   6.1175   6.1467   6.1582   6.2728   6.3010
  6.5170   6.5749   6.6109   6.6901   6.7396   6.7685   6.7955   6.8304
  7.0010   7.0504   7.0701   7.0809   7.0984   7.1322   7.1644   7.1801
  7.2158   7.2446   7.2639   7.2712   7.2833   7.3158   7.3235   7.3284
  7.3406   7.3791   7.3901   7.4001   7.4023   7.4088   7.4409   7.4469
  7.5233   7.5445   7.6395   7.6447   7.6552   7.6714   7.7334   7.7619
  7.7805   7.8034   7.8171   7.8482   7.8678   7.9517   8.0086   8.2626
 24.5866  24.7602  24.7673  24.7851  24.8458  25.1345  50.5425  50.5739
 50.5839  50.6092  50.6250  50.6554  50.7596
 --------------------------------------------------------------
 
          Ground-State Mulliken Net Atomic Charges

     Atom                 Charge (a.u.)    Spin (a.u.)
  --------------------------------------------------------
      1 O                    -0.422928      -0.000656
      2 C                    -0.344783       0.000797
      3 C                     0.137433       0.023573
      4 O                    -0.486047       0.246643
      5 C                    -0.316658       0.705832
      6 C                     0.332391      -0.046174
      7 C                    -0.337577       0.040500
      8 O                    -0.420436       0.005809
      9 O                    -0.432346       0.000818
     10 H                     0.334693       0.000981
     11 H                     0.207806       0.001479
     12 H                     0.209218       0.002475
     13 H                     0.318330      -0.010178
     14 H                     0.322661       0.018736
     15 H                     0.277303      -0.001022
     16 H                     0.360666      -0.000806
     17 H                     0.366012       0.000632
     18 O                    -0.125784       0.006714
     19 O                    -0.105496       0.002942
     20 C                    -0.177699       0.000609
     21 O                    -0.493868       0.000275
     22 H                     0.213438      -0.000047
     23 H                     0.221397       0.000194
     24 H                     0.362276      -0.000125
  --------------------------------------------------------
  Sum of atomic charges =    -0.000000
  Sum of spin   charges =     1.000000

 -----------------------------------------------------------------
                    Cartesian Multipole Moments
 -----------------------------------------------------------------
    Charge (ESU x 10^10)
                -0.0000
    Dipole Moment (Debye)
         X       0.7041      Y       3.1295      Z      -2.3849
       Tot       3.9972
    Quadrupole Moments (Debye-Ang)
        XX     -68.9219     XY      19.4087     YY     -66.9713
        XZ      -2.5884     YZ      -7.5021     ZZ     -92.7595
    Octopole Moments (Debye-Ang^2)
       XXX    -838.1577    XXY      32.6194    XYY    -196.8902
       YYY    -260.4879    XXZ    -170.5628    XYZ       0.4927
       YYZ    -242.8184    XZZ    -361.7181    YZZ    -180.0880
       ZZZ    -667.8713
    Hexadecapole Moments (Debye-Ang^3)
      XXXX   -7209.3349   XXXY    -491.2627   XXYY    -850.5935
      XYYY    -930.8805   YYYY   -1566.6869   XXXZ   -2112.5788
      XXYZ    -241.2500   XYYZ    -805.7657   YYYZ   -1409.3055
      XXZZ   -2315.4587   XYZZ    -693.7616   YYZZ   -1545.0629
      XZZZ   -2781.4564   YZZZ   -1686.6252   ZZZZ   -5196.2002
 -----------------------------------------------------------------
 Calculating analytic gradient of the SCF energy
 Gradient of CDS energy
            1           2           3           4           5           6
    1   0.0007218  -0.0010730   0.0021417  -0.0014655  -0.0001498   0.0000292
    2   0.0002098  -0.0006463   0.0004129  -0.0003562  -0.0000994   0.0000179
    3  -0.0000656  -0.0005088  -0.0009383   0.0006531   0.0002393   0.0002534
            7           8           9          10          11          12
    1  -0.0005816   0.0015595  -0.0008915  -0.0005349   0.0000754   0.0001026
    2   0.0012335  -0.0009765  -0.0006505   0.0000861   0.0002012  -0.0001295
    3   0.0004314   0.0004330  -0.0008153   0.0000259   0.0000186   0.0001051
           13          14          15          16          17          18
    1  -0.0000691   0.0001290  -0.0000369  -0.0003152   0.0003837  -0.0000578
    2  -0.0000291  -0.0000753  -0.0000770   0.0003530   0.0003239   0.0000743
    3   0.0000610   0.0000364  -0.0000379  -0.0002377   0.0001716  -0.0000633
           19          20          21          22          23          24
    1   0.0003774   0.0006244  -0.0012276  -0.0001305   0.0001624   0.0002263
    2   0.0002865   0.0033869  -0.0037247   0.0000547  -0.0002194   0.0003432
    3   0.0001332   0.0002373   0.0003985  -0.0002497  -0.0003644   0.0000834
 Gradient of SCF Energy
            1           2           3           4           5           6
    1   0.0048529  -0.0011415  -0.0011150   0.0048304   0.0032689  -0.0021279
    2  -0.0181547   0.0000592   0.0008196  -0.0019929   0.0016793   0.0043170
    3  -0.0019189   0.0094575   0.0014347  -0.0042073  -0.0013033  -0.0038650
            7           8           9          10          11          12
    1  -0.0069065  -0.0082303  -0.0084352  -0.0053616  -0.0022574   0.0018016
    2  -0.0072165  -0.0150494  -0.0196815   0.0148135   0.0050615  -0.0027889
    3   0.0130078   0.0157809   0.0095254   0.0015427  -0.0057529  -0.0023317
           13          14          15          16          17          18
    1  -0.0039940   0.0039753   0.0055872   0.0067926   0.0079069   0.0021503
    2  -0.0007171  -0.0017151   0.0039885   0.0154608   0.0180187  -0.0009742
    3  -0.0004412  -0.0006505  -0.0092393  -0.0125226  -0.0094953   0.0007529
           19          20          21          22          23          24
    1  -0.0024426   0.0025547  -0.0032686  -0.0009730   0.0000250   0.0025082
    2   0.0030655  -0.0006154   0.0040630  -0.0013067  -0.0002993  -0.0008349
    3   0.0001415  -0.0016520  -0.0010648   0.0015217   0.0009107   0.0003688
 Max gradient component =       1.968E-02
 RMS gradient           =       6.874E-03
 Computing fast CPCM-SWIG gradient
 Updating gradient with PCM contributions...
 -- total gradient after adding PCM contribution --
---------------------------------------------------
  Atom         X              Y              Z     
---------------------------------------------------
   1      -0.000009       0.000009       0.000011
   2      -0.000001       0.000004      -0.000007
   3      -0.000012      -0.000017       0.000019
   4       0.000013       0.000002      -0.000006
   5      -0.000016       0.000004      -0.000022
   6       0.000031      -0.000011       0.000003
   7      -0.000032      -0.000025      -0.000030
   8       0.000024       0.000014       0.000020
   9       0.000004       0.000006       0.000023
  10      -0.000008       0.000012      -0.000008
  11       0.000003       0.000007      -0.000003
  12      -0.000004       0.000003      -0.000005
  13       0.000001      -0.000004      -0.000000
  14      -0.000007      -0.000010       0.000001
  15       0.000013       0.000005       0.000009
  16       0.000005      -0.000004      -0.000014
  17       0.000019      -0.000015      -0.000000
  18      -0.000027       0.000006       0.000001
  19       0.000013      -0.000014       0.000002
  20      -0.000017       0.000028       0.000019
  21       0.000012       0.000001       0.000014
  22      -0.000009      -0.000002      -0.000003
  23      -0.000009      -0.000008       0.000004
  24       0.000012       0.000012      -0.000029
---------------------------------------------------
 Number of fixed atoms: 0
 Gradient time:  CPU 692.83 s  wall 57.46 s
 ######################################################
 ######################################################
 # Starting finite difference calculation for IDERIV  #
 Finite diff step size:  1.88973e-03 a.u.
 ----------------------------------------------------------------
             Standard Nuclear Orientation (Angstroms)
    I     Atom           X                Y                Z
 ----------------------------------------------------------------
    1      O       1.5917865096    -0.7181961045     0.4465959127
    2      C       2.8063084817    -0.4414297793    -0.2227344998
    3      C       3.8929484566     0.1585415825     0.6448183616
    4      O       5.0003609138     0.3841788470     0.1326367705
    5      C       3.6361733287     0.4549268408     2.0169152981
    6      C       4.6846085732     1.0820042512     2.8609047305
    7      C       4.9428601759     2.5442696836     2.4663245936
    8      O       3.7187093120     3.2257405861     2.3278372841
    9      O       5.7539813277     3.1112594190     3.4711442927
   10      H       1.1215322174     0.1102184038     0.5915445928
   11      H       2.6559881903     0.2307134918    -1.0703942580
   12      H       3.1878740981    -1.3845200616    -0.6128000413
   13      H       2.6742860769     0.2286144273     2.4497502417
   14      H       5.6342002457     0.5598566760     2.7147704664
   15      H       5.4757613003     2.5488038765     1.5159129433
   16      H       3.8732005656     4.0143101608     1.7951746506
   17      H       6.1604458870     3.9110985054     3.1169720138
   18      O       4.4522664375     0.8849368427     4.2473428165
   19      O       3.1541435937     1.4040688862     4.6059262672
   20      C       3.3511667308     2.1887308104     5.7655778220
   21      O       3.7733859321     3.4928207403     5.4763985860
   22      H       2.3662643268     2.2500324325     6.2223149309
   23      H       4.0534315675     1.6700754153     6.4188639362
   24      H       4.6074710507     3.4393469664     4.9788494878
 ----------------------------------------------------------------
 Nuclear Repulsion Energy =         897.32338875 hartrees
 There are       52 alpha and       51 beta electrons
 Discretize the solute cavity surface with Lebedev spheres
	Using 110 Lebedev grid points for each H atom
	Using 194 Lebedev grid points for other atoms
	Atomic van der Waals radii will be scaled by 1.20
 Remove points where switching function is < 1.0e-08
 Keep 1843 surface tesserae and discard 1889 interior tesserae
 Molecular Surface Area = 205.940 Angst**2
 Requested basis set is 6-311++G(2df,2p)
 There are 170 shells and 552 basis functions
 A cutoff of  1.0D-12 yielded  11801 shell pairs
 There are    122450 function pairs (    151288 Cartesian)
 Smallest overlap matrix eigenvalue = 2.81E-06
 Guess MOs from SCF MO coefficient file

 -----------------------------------------------------------------------
  General SCF calculation program by
  Eric Jon Sundstrom, Paul Horn, Yuezhi Mao, Dmitri Zuev, Alec White,
  David Stuck, Shaama M.S., Shane Yost, Joonho Lee, David Small,
  Daniel Levine, Susi Lehtola, Hugh Burton, Evgeny Epifanovsky,
  Bang C. Huynh
 -----------------------------------------------------------------------
 Exchange:     0.1500 Hartree-Fock + 1.0000 wB97M-V + LR-HF
 Correlation:  1.0000 wB97M-V
 Using SG-2 standard quadrature grid
 Nonlocal Correlation:  VV10 with C = 0.0100 and b = 6.00 and scale = 1.00000
 Grid used for NLC:  SG-1 standard quadrature
 
 Citation of the SMD model:
 Marenich, A.V.; Cramer, C.J.; Truhlar, D.G.
 J. Phys. Chem. B 2009, 113, 6378-6396.
 iSolventCode=           1
 Solvent: water                                                           
 
 vradii
            1           2           3           4           5           6
    1   1.5200000   1.8500000   1.8500000   1.5200000   1.8500000   1.8500000
            7           8           9          10          11          12
    1   1.8500000   1.5200000   1.5200000   1.2000000   1.2000000   1.2000000
           13          14          15          16          17          18
    1   1.2000000   1.2000000   1.2000000   1.2000000   1.2000000   1.5200000
           19          20          21          22          23          24
    1   1.5200000   1.8500000   1.5200000   1.2000000   1.2000000   1.2000000
 -------------------------------------------------------
 OpenMP BLAS3 based DFT computing Module                
 Release: version 1.0, May 2013, Q-Chem Inc. Pittsburgh 
 -------------------------------------------------------
 A unrestricted SCF calculation will be
 performed using Roothaan-Hall, DIIS, GDM
 SCF converges when RMS gradient is below 1.0e-07
 ---------------------------------------
  Cycle       Energy         DIIS error
 ---------------------------------------
    1    -761.6681136627      1.94e-04  Roothaan Step
 ---------------------------------------
  Cycle       Energy         DIIS error
 ---------------------------------------
    1    -761.7186075792      2.21e-04  
    2    -761.7253131378      1.92e-04  Done DIIS. Switching to GDM
 ---------------------------------------
  Cycle       Energy        RMS Gradient
 ---------------------------------------
    1    -761.7253131378      1.26e-02   Normal BFGS step
    2    -761.7244336265      1.98e-02  Line search: overstep
    3    -761.7289216736      3.55e-03   Normal BFGS step
    4    -761.7291323489      5.16e-04   Normal BFGS step
    5    -761.7291718550      8.73e-04   Normal BFGS step
    6    -761.7291803285      3.02e-04   Normal BFGS step
    7    -761.7291814007      1.99e-04   Normal BFGS step
    8    -761.7291817607      1.24e-04   Normal BFGS step
    9    -761.7291818828      2.72e-05   Normal BFGS step
   10    -761.7291819093      3.79e-05   Normal BFGS step
   11    -761.7291819183      2.07e-05   Normal BFGS step
   12    -761.7291819195      8.20e-06   Normal BFGS step
   13    -761.7291819200      4.50e-06   Normal BFGS step
   14    -761.7291819201      8.30e-07   Normal BFGS step
   15    -761.7291819201      6.49e-07   Normal BFGS step
   16    -761.7291819201      4.84e-07   Normal BFGS step
   17    -761.7291819201      3.46e-07   Normal BFGS step
   18    -761.7291819202      2.25e-07   Normal BFGS step
   19    -761.7291819205      5.94e-08  Convergence criterion met
 ---------------------------------------
 SCF time:   CPU 4802.78s  wall 337.00s 
<S^2> =          0.760776617
(3)  G-ENP(liq) elect-nuc-pol free energy of system     -761.729181920 a.u.
(4)  G-CDS(liq) cavity-dispersion-solvent structure 
     free energy                                                5.4732 kcal/mol
(6)  G-S(liq) free energy of system                     -761.720459848 a.u.
 SCF   energy in the final basis set =     -761.7204598482
 Total energy in the final basis set =     -761.7204598482
 
 --------------------------------------------------------------
 
                    Orbital Energies (a.u.)
 --------------------------------------------------------------
 
 Alpha MOs
 -- Occupied --
-19.4085 -19.4049 -19.3547 -19.3481 -19.3443 -19.3389 -19.3372 -10.4554
-10.4370 -10.4364 -10.4186 -10.3929 -10.3882  -1.2804  -1.2072  -1.1856
 -1.1650  -1.1626  -1.1421  -1.0715  -0.9269  -0.8621  -0.8187  -0.7911
 -0.7376  -0.6842  -0.6726  -0.6553  -0.6491  -0.6337  -0.6278  -0.6044
 -0.5920  -0.5849  -0.5696  -0.5595  -0.5402  -0.5271  -0.5148  -0.5130
 -0.4982  -0.4792  -0.4688  -0.4560  -0.4452  -0.4268  -0.4200  -0.4181
 -0.4031  -0.3798  -0.3689  -0.3439
 -- Virtual --
  0.0223   0.0334   0.0362   0.0387   0.0533   0.0560   0.0575   0.0645
  0.0716   0.0823   0.0856   0.0913   0.0932   0.1044   0.1099   0.1147
  0.1236   0.1260   0.1353   0.1389   0.1461   0.1520   0.1557   0.1617
  0.1646   0.1680   0.1714   0.1749   0.1797   0.1860   0.1908   0.1974
  0.2043   0.2148   0.2182   0.2257   0.2374   0.2449   0.2520   0.2564
  0.2619   0.2697   0.2750   0.2790   0.2859   0.2887   0.2920   0.2960
  0.3046   0.3116   0.3168   0.3179   0.3228   0.3329   0.3334   0.3395
  0.3433   0.3438   0.3490   0.3518   0.3550   0.3608   0.3679   0.3741
  0.3772   0.3877   0.3900   0.3904   0.3979   0.4019   0.4057   0.4139
  0.4173   0.4199   0.4275   0.4318   0.4432   0.4528   0.4598   0.4866
  0.4960   0.5020   0.5072   0.5104   0.5266   0.5421   0.5578   0.5602
  0.5861   0.5920   0.6045   0.6128   0.6165   0.6227   0.6292   0.6390
  0.6455   0.6569   0.6613   0.6679   0.6724   0.6798   0.6880   0.6959
  0.7012   0.7053   0.7116   0.7237   0.7295   0.7386   0.7460   0.7475
  0.7562   0.7592   0.7670   0.7985   0.8103   0.8317   0.8433   0.8571
  0.8631   0.8739   0.8798   0.9021   0.9242   0.9295   0.9390   0.9582
  0.9643   0.9840   0.9904   1.0023   1.0155   1.0307   1.0334   1.0404
  1.0651   1.0782   1.0841   1.0910   1.0990   1.1007   1.1133   1.1257
  1.1412   1.1525   1.1717   1.1763   1.1888   1.1956   1.2045   1.2070
  1.2146   1.2219   1.2318   1.2376   1.2475   1.2520   1.2575   1.2743
  1.2777   1.2846   1.2900   1.2992   1.3027   1.3167   1.3206   1.3330
  1.3437   1.3508   1.3650   1.3707   1.3886   1.3923   1.4064   1.4096
  1.4266   1.4301   1.4373   1.4424   1.4686   1.4707   1.4831   1.4847
  1.5020   1.5066   1.5202   1.5257   1.5349   1.5439   1.5469   1.5713
  1.5763   1.5889   1.5907   1.6041   1.6197   1.6356   1.6482   1.6602
  1.6718   1.6846   1.7002   1.7120   1.7288   1.7697   1.7791   1.7983
  1.8009   1.8242   1.8515   1.8634   1.8684   1.9213   1.9257   1.9351
  1.9578   1.9767   1.9891   2.0158   2.0297   2.0481   2.0796   2.1021
  2.1103   2.1580   2.1981   2.2131   2.2259   2.2387   2.2617   2.2974
  2.3047   2.3234   2.3334   2.3563   2.3723   2.3816   2.4070   2.4194
  2.4402   2.4758   2.4919   2.5215   2.5336   2.5704   2.5724   2.6279
  2.6409   2.6947   2.6996   2.7194   2.7525   2.7659   2.7809   2.7935
  2.8422   2.8483   2.8828   2.8888   2.9083   2.9173   2.9324   2.9530
  2.9658   2.9960   3.0030   3.0111   3.0419   3.0678   3.1056   3.1157
  3.1265   3.1543   3.1660   3.1798   3.2038   3.2246   3.2306   3.2558
  3.2600   3.2772   3.2906   3.3079   3.3199   3.3296   3.3487   3.3540
  3.3808   3.4033   3.4139   3.4305   3.4452   3.4538   3.4608   3.4673
  3.4824   3.4983   3.5146   3.5418   3.5478   3.5521   3.5615   3.5749
  3.5964   3.6111   3.6259   3.6631   3.6703   3.6747   3.6895   3.7132
  3.7305   3.7492   3.7533   3.7711   3.7875   3.7984   3.8276   3.8324
  3.8408   3.8565   3.8672   3.8763   3.8785   3.8887   3.9141   3.9341
  3.9471   3.9585   3.9618   3.9955   4.0193   4.0297   4.0414   4.0676
  4.0888   4.1164   4.1216   4.1235   4.1587   4.1717   4.1869   4.1985
  4.2261   4.2584   4.2677   4.2885   4.3053   4.3195   4.3243   4.3393
  4.3429   4.3526   4.3699   4.3791   4.4009   4.4107   4.4384   4.4458
  4.4614   4.4832   4.4940   4.5213   4.5335   4.5407   4.5504   4.6241
  4.6598   4.6927   4.7295   4.7373   4.7998   4.8074   4.9901   5.0527
  5.0794   5.0815   5.1476   5.1835   5.1872   5.1922   5.2105   5.2226
  5.2281   5.2421   5.2627   5.2773   5.2858   5.2984   5.3046   5.3222
  5.3254   5.3273   5.3354   5.3455   5.3756   5.3887   5.4067   5.4116
  5.4374   5.4464   5.4551   5.4694   5.4942   5.5123   5.5226   5.5332
  5.5521   5.5546   5.5703   5.5924   5.6014   5.6044   5.6361   5.6537
  5.6576   5.6648   5.6684   5.6909   5.6990   5.7188   5.7522   5.7617
  5.8148   5.8252   5.8360   5.8608   5.9560   5.9896   6.0407   6.0421
  6.0556   6.0802   6.1171   6.1462   6.1578   6.2721   6.2841   6.5169
  6.5741   6.6116   6.6890   6.7386   6.7660   6.7917   6.8295   6.9701
  7.0432   7.0500   7.0799   7.0963   7.1315   7.1604   7.1780   7.2153
  7.2442   7.2633   7.2709   7.2826   7.3135   7.3214   7.3282   7.3401
  7.3667   7.3822   7.3973   7.4009   7.4053   7.4405   7.4466   7.5231
  7.5439   7.6391   7.6447   7.6482   7.6709   7.7328   7.7617   7.7784
  7.7923   7.8153   7.8479   7.8673   7.9513   8.0083   8.2624  24.5802
 24.7589  24.7684  24.7851  24.8453  25.1317  50.5424  50.5739  50.5839
 50.6092  50.6249  50.6551  50.7550
 
 Beta MOs
 -- Occupied --
-19.4084 -19.4049 -19.3547 -19.3479 -19.3443 -19.3372 -19.3321 -10.4546
-10.4373 -10.4370 -10.4192 -10.3930 -10.3777  -1.2803  -1.2067  -1.1763
 -1.1649  -1.1605  -1.1417  -1.0709  -0.9112  -0.8576  -0.8114  -0.7906
 -0.7341  -0.6809  -0.6709  -0.6546  -0.6461  -0.6320  -0.6235  -0.6002
 -0.5894  -0.5801  -0.5640  -0.5560  -0.5348  -0.5252  -0.5131  -0.4964
 -0.4949  -0.4784  -0.4642  -0.4460  -0.4427  -0.4221  -0.4193  -0.4171
 -0.4023  -0.3779  -0.3630
 -- Virtual --
 -0.0528   0.0221   0.0334   0.0362   0.0383   0.0532   0.0562   0.0580
  0.0646   0.0720   0.0829   0.0857   0.0933   0.1038   0.1096   0.1140
  0.1231   0.1234   0.1261   0.1356   0.1390   0.1469   0.1525   0.1571
  0.1617   0.1648   0.1677   0.1714   0.1749   0.1796   0.1860   0.1908
  0.1974   0.2050   0.2146   0.2180   0.2271   0.2370   0.2452   0.2524
  0.2564   0.2624   0.2704   0.2762   0.2805   0.2865   0.2897   0.2931
  0.2967   0.3052   0.3121   0.3172   0.3190   0.3232   0.3339   0.3369
  0.3409   0.3442   0.3459   0.3503   0.3531   0.3569   0.3628   0.3681
  0.3760   0.3779   0.3890   0.3902   0.3911   0.3984   0.4027   0.4063
  0.4145   0.4177   0.4207   0.4290   0.4325   0.4449   0.4531   0.4603
  0.4878   0.4966   0.5046   0.5086   0.5129   0.5301   0.5448   0.5589
  0.5635   0.5876   0.5936   0.6060   0.6150   0.6174   0.6234   0.6310
  0.6402   0.6480   0.6594   0.6647   0.6706   0.6728   0.6801   0.6895
  0.7011   0.7060   0.7074   0.7134   0.7251   0.7306   0.7403   0.7465
  0.7510   0.7589   0.7630   0.7685   0.8015   0.8107   0.8333   0.8448
  0.8587   0.8705   0.8759   0.8814   0.9040   0.9264   0.9337   0.9400
  0.9617   0.9664   0.9858   0.9919   1.0055   1.0174   1.0313   1.0349
  1.0407   1.0656   1.0788   1.0851   1.0917   1.1001   1.1028   1.1141
  1.1271   1.1414   1.1547   1.1727   1.1784   1.1904   1.1989   1.2059
  1.2094   1.2158   1.2230   1.2341   1.2397   1.2493   1.2525   1.2610
  1.2758   1.2797   1.2863   1.2913   1.3029   1.3047   1.3190   1.3223
  1.3336   1.3460   1.3550   1.3659   1.3721   1.3907   1.3935   1.4077
  1.4109   1.4272   1.4317   1.4392   1.4460   1.4704   1.4732   1.4854
  1.4878   1.5071   1.5091   1.5218   1.5270   1.5368   1.5449   1.5494
  1.5737   1.5814   1.5907   1.5921   1.6064   1.6205   1.6361   1.6527
  1.6625   1.6735   1.6874   1.7040   1.7167   1.7325   1.7752   1.7847
  1.8020   1.8052   1.8275   1.8581   1.8650   1.8731   1.9240   1.9288
  1.9385   1.9595   1.9787   1.9920   2.0167   2.0315   2.0519   2.0815
  2.1044   2.1148   2.1600   2.1992   2.2185   2.2296   2.2398   2.2644
  2.2982   2.3066   2.3245   2.3345   2.3581   2.3741   2.3825   2.4080
  2.4207   2.4415   2.4782   2.4946   2.5222   2.5372   2.5733   2.5789
  2.6341   2.6428   2.7012   2.7062   2.7227   2.7584   2.7724   2.7877
  2.8031   2.8484   2.8525   2.8902   2.9101   2.9223   2.9320   2.9491
  2.9720   2.9759   3.0009   3.0202   3.0372   3.0508   3.0789   3.1172
  3.1247   3.1298   3.1608   3.1723   3.1825   3.2134   3.2313   3.2388
  3.2624   3.2725   3.2864   3.2933   3.3162   3.3231   3.3363   3.3532
  3.3589   3.3862   3.4112   3.4214   3.4357   3.4573   3.4641   3.4702
  3.4755   3.4856   3.5037   3.5251   3.5465   3.5559   3.5654   3.5716
  3.5791   3.6056   3.6168   3.6382   3.6711   3.6763   3.6852   3.6953
  3.7203   3.7405   3.7585   3.7673   3.7777   3.7911   3.8075   3.8314
  3.8361   3.8476   3.8580   3.8727   3.8800   3.8831   3.8932   3.9193
  3.9346   3.9510   3.9620   3.9663   4.0015   4.0216   4.0321   4.0475
  4.0739   4.0929   4.1237   4.1266   4.1305   4.1649   4.1762   4.1927
  4.2078   4.2301   4.2655   4.2774   4.2894   4.3103   4.3242   4.3272
  4.3424   4.3478   4.3573   4.3789   4.3854   4.4071   4.4162   4.4445
  4.4490   4.4659   4.4881   4.5039   4.5393   4.5420   4.5516   4.5643
  4.6359   4.6667   4.7078   4.7408   4.7477   4.8029   4.8108   4.9979
  5.0599   5.0835   5.0915   5.1529   5.1906   5.2005   5.2058   5.2154
  5.2253   5.2404   5.2633   5.2666   5.2779   5.2873   5.2994   5.3090
  5.3249   5.3279   5.3329   5.3366   5.3492   5.3763   5.3898   5.4078
  5.4168   5.4392   5.4479   5.4649   5.4718   5.4953   5.5176   5.5242
  5.5381   5.5538   5.5606   5.5745   5.5950   5.6052   5.6100   5.6423
  5.6545   5.6597   5.6659   5.6720   5.6961   5.7072   5.7225   5.7530
  5.7646   5.8228   5.8386   5.8416   5.8707   5.9614   5.9918   6.0410
  6.0427   6.0560   6.0810   6.1175   6.1467   6.1582   6.2729   6.3011
  6.5170   6.5751   6.6129   6.6902   6.7397   6.7685   6.7956   6.8304
  7.0010   7.0504   7.0702   7.0810   7.0985   7.1322   7.1645   7.1802
  7.2158   7.2446   7.2639   7.2712   7.2833   7.3138   7.3234   7.3284
  7.3406   7.3792   7.3902   7.4002   7.4023   7.4090   7.4410   7.4469
  7.5233   7.5445   7.6397   7.6452   7.6552   7.6714   7.7334   7.7619
  7.7807   7.8034   7.8171   7.8482   7.8678   7.9517   8.0086   8.2626
 24.5867  24.7604  24.7685  24.7851  24.8459  25.1346  50.5425  50.5739
 50.5839  50.6092  50.6250  50.6554  50.7597
 --------------------------------------------------------------
 
          Ground-State Mulliken Net Atomic Charges

     Atom                 Charge (a.u.)    Spin (a.u.)
  --------------------------------------------------------
      1 O                    -0.422699      -0.000658
      2 C                    -0.344737       0.000804
      3 C                     0.137379       0.023553
      4 O                    -0.486133       0.246643
      5 C                    -0.316660       0.705864
      6 C                     0.332233      -0.046178
      7 C                    -0.337534       0.040501
      8 O                    -0.420439       0.005808
      9 O                    -0.432349       0.000818
     10 H                     0.334854       0.000980
     11 H                     0.207730       0.001472
     12 H                     0.209147       0.002470
     13 H                     0.318329      -0.010178
     14 H                     0.322651       0.018736
     15 H                     0.277295      -0.001023
     16 H                     0.360667      -0.000806
     17 H                     0.366011       0.000632
     18 O                    -0.125792       0.006714
     19 O                    -0.105495       0.002942
     20 C                    -0.177700       0.000610
     21 O                    -0.493869       0.000275
     22 H                     0.213438      -0.000047
     23 H                     0.221396       0.000194
     24 H                     0.362277      -0.000125
  --------------------------------------------------------
  Sum of atomic charges =    -0.000000
  Sum of spin   charges =     1.000000

 -----------------------------------------------------------------
                    Cartesian Multipole Moments
 -----------------------------------------------------------------
    Charge (ESU x 10^10)
                -0.0000
    Dipole Moment (Debye)
         X       0.6980      Y       3.1288      Z      -2.3844
       Tot       3.9952
    Quadrupole Moments (Debye-Ang)
        XX     -68.9497     XY      19.4089     YY     -66.9724
        XZ      -2.5889     YZ      -7.5034     ZZ     -92.7621
    Octopole Moments (Debye-Ang^2)
       XXX    -838.2956    XXY      32.6178    XYY    -196.9043
       YYY    -260.4906    XXZ    -170.5688    XYZ       0.4885
       YYZ    -242.8194    XZZ    -361.7371    YZZ    -180.0919
       ZZZ    -667.8777
    Hexadecapole Moments (Debye-Ang^3)
      XXXX   -7210.0156   XXXY    -491.2767   XXYY    -850.6497
      XYYY    -930.8763   YYYY   -1566.6986   XXXZ   -2112.6271
      XXYZ    -241.2697   XYYZ    -805.7749   YYYZ   -1409.3147
      XXZZ   -2315.5361   XYZZ    -693.7700   YYZZ   -1545.0722
      XZZZ   -2781.4943   YZZZ   -1686.6405   ZZZZ   -5196.2470
 -----------------------------------------------------------------
 Calculating analytic gradient of the SCF energy
 Gradient of CDS energy
            1           2           3           4           5           6
    1   0.0008578  -0.0012091   0.0021416  -0.0014655  -0.0001498   0.0000292
    2   0.0002410  -0.0006771   0.0004129  -0.0003562  -0.0000994   0.0000179
    3  -0.0001409  -0.0004336  -0.0009383   0.0006531   0.0002392   0.0002534
            7           8           9          10          11          12
    1  -0.0005816   0.0015595  -0.0008915  -0.0005346   0.0000754   0.0001025
    2   0.0012335  -0.0009765  -0.0006505   0.0000858   0.0002012  -0.0001296
    3   0.0004314   0.0004330  -0.0008153   0.0000259   0.0000186   0.0001052
           13          14          15          16          17          18
    1  -0.0000690   0.0001290  -0.0000369  -0.0003152   0.0003837  -0.0000578
    2  -0.0000291  -0.0000753  -0.0000770   0.0003530   0.0003239   0.0000743
    3   0.0000610   0.0000364  -0.0000379  -0.0002377   0.0001716  -0.0000633
           19          20          21          22          23          24
    1   0.0003774   0.0006244  -0.0012276  -0.0001305   0.0001624   0.0002263
    2   0.0002865   0.0033869  -0.0037247   0.0000547  -0.0002194   0.0003432
    3   0.0001332   0.0002373   0.0003985  -0.0002497  -0.0003644   0.0000834
 Gradient of SCF Energy
            1           2           3           4           5           6
    1   0.0057784  -0.0016335  -0.0011623   0.0047946   0.0032685  -0.0021167
    2  -0.0184234  -0.0000551   0.0008136  -0.0020086   0.0016798   0.0043131
    3  -0.0023008   0.0096714   0.0014860  -0.0042153  -0.0013129  -0.0038578
            7           8           9          10          11          12
    1  -0.0069037  -0.0082296  -0.0084347  -0.0056458  -0.0022762   0.0017531
    2  -0.0072148  -0.0150488  -0.0196807   0.0152325   0.0050496  -0.0027905
    3   0.0129995   0.0157800   0.0095246   0.0016250  -0.0057301  -0.0023055
           13          14          15          16          17          18
    1  -0.0039982   0.0039703   0.0055845   0.0067920   0.0079056   0.0021500
    2  -0.0007189  -0.0017125   0.0039897   0.0154595   0.0180170  -0.0009738
    3  -0.0004426  -0.0006487  -0.0092339  -0.0125212  -0.0094946   0.0007513
           19          20          21          22          23          24
    1  -0.0024422   0.0025552  -0.0032672  -0.0009731   0.0000241   0.0025068
    2   0.0030654  -0.0006154   0.0040628  -0.0013068  -0.0002989  -0.0008347
    3   0.0001406  -0.0016507  -0.0010658   0.0015215   0.0009101   0.0003699
 Max gradient component =       1.968E-02
 RMS gradient           =       6.916E-03
 Computing fast CPCM-SWIG gradient
 Updating gradient with PCM contributions...
 -- total gradient after adding PCM contribution --
---------------------------------------------------
  Atom         X              Y              Z     
---------------------------------------------------
   1       0.000879      -0.000256      -0.000367
   2      -0.000494      -0.000110       0.000214
   3      -0.000058      -0.000023       0.000067
   4      -0.000018      -0.000011      -0.000014
   5      -0.000014       0.000005      -0.000025
   6       0.000032      -0.000011       0.000006
   7      -0.000032      -0.000024      -0.000030
   8       0.000025       0.000013       0.000020
   9       0.000003       0.000005       0.000023
  10      -0.000269       0.000425       0.000073
  11      -0.000011      -0.000002       0.000015
  12      -0.000048      -0.000002       0.000018
  13      -0.000001      -0.000006      -0.000002
  14      -0.000007      -0.000010       0.000001
  15       0.000013       0.000005       0.000009
  16       0.000005      -0.000004      -0.000014
  17       0.000019      -0.000015      -0.000000
  18      -0.000027       0.000006      -0.000001
  19       0.000013      -0.000014       0.000002
  20      -0.000017       0.000029       0.000020
  21       0.000012       0.000000       0.000014
  22      -0.000009      -0.000002      -0.000003
  23      -0.000009      -0.000008       0.000004
  24       0.000012       0.000012      -0.000029
---------------------------------------------------
 Number of fixed atoms: 0
 Gradient time:  CPU 697.74 s  wall 57.81 s
 ----------------------------------------------------------------
             Standard Nuclear Orientation (Angstroms)
    I     Atom           X                Y                Z
 ----------------------------------------------------------------
    1      O       1.5897865096    -0.7181961045     0.4465959127
    2      C       2.8063084817    -0.4414297793    -0.2227344998
    3      C       3.8929484566     0.1585415825     0.6448183616
    4      O       5.0003609138     0.3841788470     0.1326367705
    5      C       3.6361733287     0.4549268408     2.0169152981
    6      C       4.6846085732     1.0820042512     2.8609047305
    7      C       4.9428601759     2.5442696836     2.4663245936
    8      O       3.7187093120     3.2257405861     2.3278372841
    9      O       5.7539813277     3.1112594190     3.4711442927
   10      H       1.1215322174     0.1102184038     0.5915445928
   11      H       2.6559881903     0.2307134918    -1.0703942580
   12      H       3.1878740981    -1.3845200616    -0.6128000413
   13      H       2.6742860769     0.2286144273     2.4497502417
   14      H       5.6342002457     0.5598566760     2.7147704664
   15      H       5.4757613003     2.5488038765     1.5159129433
   16      H       3.8732005656     4.0143101608     1.7951746506
   17      H       6.1604458870     3.9110985054     3.1169720138
   18      O       4.4522664375     0.8849368427     4.2473428165
   19      O       3.1541435937     1.4040688862     4.6059262672
   20      C       3.3511667308     2.1887308104     5.7655778220
   21      O       3.7733859321     3.4928207403     5.4763985860
   22      H       2.3662643268     2.2500324325     6.2223149309
   23      H       4.0534315675     1.6700754153     6.4188639362
   24      H       4.6074710507     3.4393469664     4.9788494878
 ----------------------------------------------------------------
 Nuclear Repulsion Energy =         897.27580212 hartrees
 There are       52 alpha and       51 beta electrons
 Discretize the solute cavity surface with Lebedev spheres
	Using 110 Lebedev grid points for each H atom
	Using 194 Lebedev grid points for other atoms
	Atomic van der Waals radii will be scaled by 1.20
 Remove points where switching function is < 1.0e-08
 Keep 1844 surface tesserae and discard 1888 interior tesserae
 Molecular Surface Area = 205.951 Angst**2
 Requested basis set is 6-311++G(2df,2p)
 There are 170 shells and 552 basis functions
 A cutoff of  1.0D-12 yielded  11801 shell pairs
 There are    122450 function pairs (    151288 Cartesian)
 Smallest overlap matrix eigenvalue = 2.81E-06
 Guess MOs from SCF MO coefficient file

 -----------------------------------------------------------------------
  General SCF calculation program by
  Eric Jon Sundstrom, Paul Horn, Yuezhi Mao, Dmitri Zuev, Alec White,
  David Stuck, Shaama M.S., Shane Yost, Joonho Lee, David Small,
  Daniel Levine, Susi Lehtola, Hugh Burton, Evgeny Epifanovsky,
  Bang C. Huynh
 -----------------------------------------------------------------------
 Exchange:     0.1500 Hartree-Fock + 1.0000 wB97M-V + LR-HF
 Correlation:  1.0000 wB97M-V
 Using SG-2 standard quadrature grid
 Nonlocal Correlation:  VV10 with C = 0.0100 and b = 6.00 and scale = 1.00000
 Grid used for NLC:  SG-1 standard quadrature
 
 Citation of the SMD model:
 Marenich, A.V.; Cramer, C.J.; Truhlar, D.G.
 J. Phys. Chem. B 2009, 113, 6378-6396.
 iSolventCode=           1
 Solvent: water                                                           
 
 vradii
            1           2           3           4           5           6
    1   1.5200000   1.8500000   1.8500000   1.5200000   1.8500000   1.8500000
            7           8           9          10          11          12
    1   1.8500000   1.5200000   1.5200000   1.2000000   1.2000000   1.2000000
           13          14          15          16          17          18
    1   1.2000000   1.2000000   1.2000000   1.2000000   1.2000000   1.5200000
           19          20          21          22          23          24
    1   1.5200000   1.8500000   1.5200000   1.2000000   1.2000000   1.2000000
 -------------------------------------------------------
 OpenMP BLAS3 based DFT computing Module                
 Release: version 1.0, May 2013, Q-Chem Inc. Pittsburgh 
 -------------------------------------------------------
 A unrestricted SCF calculation will be
 performed using Roothaan-Hall, DIIS, GDM
 SCF converges when RMS gradient is below 1.0e-07
 ---------------------------------------
  Cycle       Energy         DIIS error
 ---------------------------------------
    1    -761.6681110954      1.94e-04  Roothaan Step
 ---------------------------------------
  Cycle       Energy         DIIS error
 ---------------------------------------
    1    -761.7186024921      2.21e-04  
    2    -761.7253107175      1.92e-04  Done DIIS. Switching to GDM
 ---------------------------------------
  Cycle       Energy        RMS Gradient
 ---------------------------------------
    1    -761.7253107175      1.25e-02   Normal BFGS step
    2    -761.7244294531      1.97e-02  Line search: overstep
    3    -761.7289186987      3.57e-03   Normal BFGS step
    4    -761.7291295550      5.17e-04   Normal BFGS step
    5    -761.7291691003      8.79e-04   Normal BFGS step
    6    -761.7291775647      3.04e-04   Normal BFGS step
    7    -761.7291786389      2.00e-04   Normal BFGS step
    8    -761.7291789997      1.25e-04   Normal BFGS step
    9    -761.7291791221      2.68e-05   Normal BFGS step
   10    -761.7291791486      3.80e-05   Normal BFGS step
   11    -761.7291791576      2.07e-05   Normal BFGS step
   12    -761.7291791589      8.20e-06   Normal BFGS step
   13    -761.7291791594      4.49e-06   Normal BFGS step
   14    -761.7291791594      9.70e-07   Normal BFGS step
   15    -761.7291791594      7.52e-07   Normal BFGS step
   16    -761.7291791594      5.55e-07   Normal BFGS step
   17    -761.7291791595      3.83e-07   Normal BFGS step
   18    -761.7291791595      2.34e-07   Normal BFGS step
   19    -761.7291791598      5.87e-08  Convergence criterion met
 ---------------------------------------
 SCF time:   CPU 4329.86s  wall 298.00s 
<S^2> =          0.760775473
(3)  G-ENP(liq) elect-nuc-pol free energy of system     -761.729179160 a.u.
(4)  G-CDS(liq) cavity-dispersion-solvent structure 
     free energy                                                5.4715 kcal/mol
(6)  G-S(liq) free energy of system                     -761.720459826 a.u.
 SCF   energy in the final basis set =     -761.7204598256
 Total energy in the final basis set =     -761.7204598256
 
 --------------------------------------------------------------
 
                    Orbital Energies (a.u.)
 --------------------------------------------------------------
 
 Alpha MOs
 -- Occupied --
-19.4085 -19.4050 -19.3547 -19.3481 -19.3443 -19.3389 -19.3372 -10.4554
-10.4370 -10.4365 -10.4186 -10.3931 -10.3882  -1.2805  -1.2072  -1.1856
 -1.1650  -1.1623  -1.1421  -1.0716  -0.9269  -0.8622  -0.8188  -0.7911
 -0.7376  -0.6842  -0.6726  -0.6553  -0.6490  -0.6336  -0.6278  -0.6044
 -0.5919  -0.5848  -0.5696  -0.5595  -0.5401  -0.5271  -0.5148  -0.5130
 -0.4982  -0.4792  -0.4688  -0.4562  -0.4452  -0.4268  -0.4200  -0.4181
 -0.4031  -0.3798  -0.3690  -0.3439
 -- Virtual --
  0.0223   0.0334   0.0362   0.0387   0.0533   0.0559   0.0575   0.0645
  0.0716   0.0823   0.0856   0.0912   0.0932   0.1044   0.1099   0.1147
  0.1236   0.1260   0.1353   0.1389   0.1461   0.1520   0.1557   0.1617
  0.1646   0.1680   0.1714   0.1749   0.1797   0.1860   0.1908   0.1974
  0.2043   0.2149   0.2182   0.2257   0.2373   0.2447   0.2519   0.2564
  0.2619   0.2696   0.2750   0.2790   0.2858   0.2887   0.2920   0.2960
  0.3046   0.3116   0.3167   0.3179   0.3228   0.3329   0.3334   0.3394
  0.3433   0.3438   0.3489   0.3517   0.3548   0.3607   0.3678   0.3740
  0.3772   0.3877   0.3899   0.3903   0.3979   0.4018   0.4056   0.4139
  0.4173   0.4199   0.4275   0.4318   0.4432   0.4528   0.4598   0.4866
  0.4959   0.5020   0.5072   0.5104   0.5266   0.5420   0.5578   0.5601
  0.5861   0.5920   0.6045   0.6128   0.6166   0.6227   0.6291   0.6390
  0.6455   0.6569   0.6613   0.6678   0.6722   0.6798   0.6879   0.6959
  0.7012   0.7052   0.7115   0.7236   0.7295   0.7386   0.7460   0.7475
  0.7562   0.7591   0.7670   0.7985   0.8103   0.8317   0.8433   0.8570
  0.8632   0.8739   0.8799   0.9020   0.9242   0.9295   0.9390   0.9582
  0.9643   0.9840   0.9904   1.0022   1.0155   1.0306   1.0334   1.0404
  1.0649   1.0781   1.0841   1.0910   1.0989   1.1007   1.1132   1.1257
  1.1412   1.1525   1.1717   1.1763   1.1888   1.1956   1.2045   1.2069
  1.2146   1.2219   1.2318   1.2376   1.2475   1.2520   1.2574   1.2742
  1.2777   1.2845   1.2899   1.2991   1.3026   1.3167   1.3206   1.3330
  1.3436   1.3507   1.3650   1.3707   1.3886   1.3923   1.4063   1.4097
  1.4266   1.4301   1.4373   1.4424   1.4686   1.4707   1.4831   1.4847
  1.5021   1.5065   1.5202   1.5257   1.5349   1.5438   1.5468   1.5713
  1.5762   1.5891   1.5907   1.6040   1.6198   1.6357   1.6482   1.6602
  1.6718   1.6846   1.7001   1.7119   1.7288   1.7696   1.7791   1.7983
  1.8009   1.8243   1.8514   1.8633   1.8684   1.9213   1.9256   1.9351
  1.9577   1.9767   1.9888   2.0158   2.0297   2.0477   2.0796   2.1019
  2.1101   2.1580   2.1981   2.2130   2.2258   2.2386   2.2616   2.2974
  2.3046   2.3234   2.3332   2.3554   2.3720   2.3815   2.4069   2.4194
  2.4402   2.4758   2.4919   2.5215   2.5336   2.5704   2.5725   2.6277
  2.6409   2.6946   2.6996   2.7194   2.7524   2.7659   2.7808   2.7936
  2.8422   2.8480   2.8827   2.8888   2.9083   2.9173   2.9323   2.9530
  2.9656   2.9960   3.0029   3.0110   3.0419   3.0678   3.1055   3.1156
  3.1265   3.1540   3.1653   3.1798   3.2037   3.2243   3.2305   3.2559
  3.2599   3.2767   3.2904   3.3078   3.3194   3.3296   3.3487   3.3539
  3.3808   3.4032   3.4139   3.4304   3.4452   3.4537   3.4607   3.4673
  3.4823   3.4982   3.5145   3.5418   3.5477   3.5520   3.5615   3.5749
  3.5963   3.6111   3.6257   3.6632   3.6704   3.6746   3.6895   3.7131
  3.7304   3.7492   3.7532   3.7705   3.7874   3.7982   3.8275   3.8324
  3.8408   3.8564   3.8671   3.8762   3.8784   3.8886   3.9141   3.9341
  3.9471   3.9584   3.9617   3.9955   4.0194   4.0296   4.0414   4.0676
  4.0886   4.1163   4.1216   4.1234   4.1586   4.1717   4.1869   4.1985
  4.2261   4.2584   4.2680   4.2885   4.3055   4.3203   4.3243   4.3395
  4.3429   4.3526   4.3699   4.3793   4.4009   4.4107   4.4383   4.4457
  4.4612   4.4832   4.4939   4.5210   4.5334   4.5407   4.5503   4.6240
  4.6597   4.6926   4.7294   4.7373   4.7998   4.8074   4.9901   5.0527
  5.0793   5.0815   5.1476   5.1835   5.1871   5.1922   5.2105   5.2226
  5.2281   5.2422   5.2627   5.2768   5.2858   5.2984   5.3047   5.3221
  5.3253   5.3271   5.3354   5.3456   5.3756   5.3887   5.4067   5.4116
  5.4373   5.4461   5.4551   5.4692   5.4942   5.5123   5.5226   5.5330
  5.5520   5.5544   5.5702   5.5924   5.6015   5.6044   5.6361   5.6537
  5.6581   5.6648   5.6688   5.6909   5.6987   5.7188   5.7522   5.7617
  5.8147   5.8248   5.8359   5.8608   5.9559   5.9864   6.0393   6.0411
  6.0556   6.0802   6.1171   6.1462   6.1577   6.2721   6.2840   6.5168
  6.5737   6.6076   6.6888   6.7385   6.7659   6.7915   6.8295   6.9701
  7.0432   7.0500   7.0799   7.0961   7.1315   7.1602   7.1780   7.2153
  7.2442   7.2633   7.2709   7.2826   7.3174   7.3217   7.3282   7.3401
  7.3667   7.3822   7.3971   7.4004   7.4050   7.4405   7.4466   7.5231
  7.5439   7.6387   7.6439   7.6479   7.6709   7.7328   7.7616   7.7781
  7.7923   7.8153   7.8479   7.8673   7.9513   8.0083   8.2624  24.5801
 24.7584  24.7660  24.7851  24.8452  25.1315  50.5424  50.5739  50.5838
 50.6092  50.6248  50.6551  50.7549
 
 Beta MOs
 -- Occupied --
-19.4084 -19.4049 -19.3547 -19.3479 -19.3443 -19.3372 -19.3322 -10.4546
-10.4374 -10.4370 -10.4192 -10.3931 -10.3778  -1.2803  -1.2067  -1.1763
 -1.1649  -1.1603  -1.1417  -1.0709  -0.9112  -0.8577  -0.8114  -0.7906
 -0.7341  -0.6809  -0.6709  -0.6545  -0.6460  -0.6320  -0.6235  -0.6002
 -0.5893  -0.5801  -0.5640  -0.5559  -0.5348  -0.5252  -0.5131  -0.4964
 -0.4950  -0.4784  -0.4642  -0.4462  -0.4427  -0.4221  -0.4193  -0.4171
 -0.4023  -0.3779  -0.3631
 -- Virtual --
 -0.0528   0.0221   0.0334   0.0362   0.0383   0.0532   0.0562   0.0580
  0.0646   0.0720   0.0829   0.0857   0.0933   0.1038   0.1096   0.1140
  0.1231   0.1234   0.1261   0.1356   0.1390   0.1469   0.1525   0.1571
  0.1617   0.1648   0.1677   0.1714   0.1749   0.1796   0.1860   0.1908
  0.1974   0.2050   0.2146   0.2180   0.2271   0.2369   0.2450   0.2524
  0.2564   0.2624   0.2703   0.2762   0.2805   0.2864   0.2897   0.2931
  0.2966   0.3052   0.3121   0.3171   0.3190   0.3231   0.3338   0.3369
  0.3409   0.3442   0.3459   0.3503   0.3530   0.3568   0.3628   0.3681
  0.3760   0.3779   0.3889   0.3901   0.3910   0.3984   0.4026   0.4063
  0.4144   0.4177   0.4207   0.4290   0.4325   0.4449   0.4532   0.4603
  0.4878   0.4965   0.5045   0.5086   0.5129   0.5301   0.5447   0.5589
  0.5634   0.5876   0.5936   0.6060   0.6149   0.6175   0.6234   0.6310
  0.6401   0.6480   0.6594   0.6646   0.6706   0.6726   0.6801   0.6894
  0.7010   0.7060   0.7074   0.7133   0.7251   0.7306   0.7403   0.7465
  0.7509   0.7589   0.7630   0.7685   0.8015   0.8107   0.8333   0.8448
  0.8587   0.8705   0.8759   0.8814   0.9039   0.9264   0.9337   0.9399
  0.9617   0.9665   0.9858   0.9919   1.0055   1.0174   1.0313   1.0349
  1.0407   1.0655   1.0788   1.0851   1.0917   1.1000   1.1027   1.1141
  1.1270   1.1414   1.1547   1.1727   1.1784   1.1904   1.1989   1.2059
  1.2094   1.2158   1.2230   1.2340   1.2397   1.2493   1.2525   1.2609
  1.2757   1.2796   1.2862   1.2912   1.3029   1.3046   1.3190   1.3223
  1.3336   1.3460   1.3550   1.3659   1.3720   1.3906   1.3936   1.4077
  1.4110   1.4272   1.4316   1.4391   1.4460   1.4704   1.4732   1.4853
  1.4878   1.5071   1.5090   1.5218   1.5270   1.5369   1.5449   1.5493
  1.5736   1.5813   1.5910   1.5921   1.6064   1.6206   1.6361   1.6528
  1.6625   1.6735   1.6874   1.7039   1.7166   1.7325   1.7751   1.7847
  1.8020   1.8052   1.8275   1.8580   1.8650   1.8730   1.9240   1.9287
  1.9384   1.9595   1.9787   1.9916   2.0167   2.0314   2.0516   2.0815
  2.1043   2.1146   2.1600   2.1992   2.2184   2.2295   2.2398   2.2643
  2.2982   2.3065   2.3245   2.3343   2.3572   2.3738   2.3823   2.4079
  2.4207   2.4415   2.4782   2.4946   2.5221   2.5372   2.5732   2.5790
  2.6338   2.6428   2.7011   2.7062   2.7227   2.7583   2.7723   2.7876
  2.8031   2.8484   2.8523   2.8901   2.9101   2.9223   2.9319   2.9491
  2.9719   2.9758   3.0009   3.0201   3.0372   3.0507   3.0788   3.1171
  3.1246   3.1297   3.1607   3.1716   3.1824   3.2133   3.2313   3.2386
  3.2625   3.2723   3.2859   3.2932   3.3162   3.3227   3.3363   3.3532
  3.3589   3.3862   3.4112   3.4214   3.4357   3.4572   3.4640   3.4701
  3.4754   3.4856   3.5036   3.5251   3.5465   3.5559   3.5655   3.5716
  3.5791   3.6056   3.6167   3.6381   3.6713   3.6762   3.6852   3.6953
  3.7202   3.7403   3.7584   3.7672   3.7772   3.7910   3.8072   3.8313
  3.8360   3.8476   3.8580   3.8727   3.8799   3.8830   3.8932   3.9193
  3.9346   3.9510   3.9620   3.9663   4.0015   4.0216   4.0320   4.0475
  4.0739   4.0927   4.1235   4.1266   4.1305   4.1649   4.1762   4.1927
  4.2077   4.2301   4.2655   4.2777   4.2894   4.3106   4.3248   4.3272
  4.3425   4.3478   4.3573   4.3789   4.3855   4.4071   4.4162   4.4444
  4.4490   4.4657   4.4880   4.5038   4.5392   4.5418   4.5515   4.5642
  4.6358   4.6666   4.7078   4.7408   4.7476   4.8028   4.8107   4.9979
  5.0599   5.0835   5.0915   5.1529   5.1906   5.2005   5.2058   5.2154
  5.2253   5.2406   5.2633   5.2666   5.2774   5.2872   5.2994   5.3091
  5.3248   5.3278   5.3326   5.3366   5.3493   5.3763   5.3898   5.4078
  5.4168   5.4391   5.4476   5.4649   5.4716   5.4953   5.5176   5.5242
  5.5380   5.5538   5.5603   5.5744   5.5950   5.6052   5.6101   5.6423
  5.6545   5.6606   5.6659   5.6721   5.6960   5.7070   5.7225   5.7530
  5.7646   5.8227   5.8386   5.8413   5.8707   5.9613   5.9886   6.0398
  6.0416   6.0560   6.0809   6.1175   6.1467   6.1582   6.2728   6.3010
  6.5170   6.5747   6.6089   6.6901   6.7396   6.7684   6.7954   6.8304
  7.0010   7.0504   7.0701   7.0809   7.0983   7.1322   7.1644   7.1801
  7.2158   7.2446   7.2639   7.2712   7.2833   7.3177   7.3236   7.3284
  7.3406   7.3791   7.3900   7.4000   7.4022   7.4086   7.4409   7.4469
  7.5233   7.5445   7.6393   7.6442   7.6551   7.6714   7.7334   7.7619
  7.7804   7.8034   7.8171   7.8482   7.8678   7.9517   8.0086   8.2626
 24.5866  24.7598  24.7662  24.7851  24.8458  25.1344  50.5424  50.5739
 50.5838  50.6092  50.6250  50.6554  50.7596
 --------------------------------------------------------------
 
          Ground-State Mulliken Net Atomic Charges

     Atom                 Charge (a.u.)    Spin (a.u.)
  --------------------------------------------------------
      1 O                    -0.423156      -0.000654
      2 C                    -0.344830       0.000790
      3 C                     0.137488       0.023593
      4 O                    -0.485962       0.246643
      5 C                    -0.316660       0.705799
      6 C                     0.332553      -0.046169
      7 C                    -0.337621       0.040499
      8 O                    -0.420433       0.005810
      9 O                    -0.432343       0.000818
     10 H                     0.334531       0.000981
     11 H                     0.207882       0.001485
     12 H                     0.209288       0.002481
     13 H                     0.318329      -0.010177
     14 H                     0.322672       0.018736
     15 H                     0.277311      -0.001022
     16 H                     0.360664      -0.000806
     17 H                     0.366013       0.000632
     18 O                    -0.125776       0.006713
     19 O                    -0.105497       0.002942
     20 C                    -0.177698       0.000609
     21 O                    -0.493867       0.000275
     22 H                     0.213438      -0.000047
     23 H                     0.221397       0.000194
     24 H                     0.362275      -0.000125
  --------------------------------------------------------
  Sum of atomic charges =    -0.000000
  Sum of spin   charges =     1.000000

 -----------------------------------------------------------------
                    Cartesian Multipole Moments
 -----------------------------------------------------------------
    Charge (ESU x 10^10)
                -0.0000
    Dipole Moment (Debye)
         X       0.7101      Y       3.1303      Z      -2.3855
       Tot       3.9992
    Quadrupole Moments (Debye-Ang)
        XX     -68.8942     XY      19.4086     YY     -66.9701
        XZ      -2.5879     YZ      -7.5008     ZZ     -92.7569
    Octopole Moments (Debye-Ang^2)
       XXX    -838.0199    XXY      32.6209    XYY    -196.8761
       YYY    -260.4852    XXZ    -170.5567    XYZ       0.4968
       YYZ    -242.8174    XZZ    -361.6990    YZZ    -180.0841
       ZZZ    -667.8649
    Hexadecapole Moments (Debye-Ang^3)
      XXXX   -7208.6551   XXXY    -491.2488   XXYY    -850.5375
      XYYY    -930.8848   YYYY   -1566.6753   XXXZ   -2112.5305
      XXYZ    -241.2302   XYYZ    -805.7564   YYYZ   -1409.2964
      XXZZ   -2315.3813   XYZZ    -693.7533   YYZZ   -1545.0535
      XZZZ   -2781.4185   YZZZ   -1686.6099   ZZZZ   -5196.1533
 -----------------------------------------------------------------
 Calculating analytic gradient of the SCF energy
 Gradient of CDS energy
            1           2           3           4           5           6
    1   0.0006018  -0.0009528   0.0021417  -0.0014655  -0.0001498   0.0000292
    2   0.0001822  -0.0006192   0.0004129  -0.0003562  -0.0000993   0.0000179
    3   0.0000007  -0.0005750  -0.0009383   0.0006531   0.0002393   0.0002534
            7           8           9          10          11          12
    1  -0.0005816   0.0015595  -0.0008915  -0.0005350   0.0000754   0.0001027
    2   0.0012335  -0.0009765  -0.0006505   0.0000864   0.0002012  -0.0001293
    3   0.0004314   0.0004330  -0.0008153   0.0000258   0.0000186   0.0001049
           13          14          15          16          17          18
    1  -0.0000692   0.0001290  -0.0000369  -0.0003152   0.0003837  -0.0000578
    2  -0.0000291  -0.0000753  -0.0000770   0.0003530   0.0003239   0.0000743
    3   0.0000610   0.0000364  -0.0000379  -0.0002377   0.0001716  -0.0000633
           19          20          21          22          23          24
    1   0.0003774   0.0006244  -0.0012276  -0.0001305   0.0001624   0.0002263
    2   0.0002865   0.0033869  -0.0037247   0.0000547  -0.0002194   0.0003432
    3   0.0001332   0.0002373   0.0003985  -0.0002497  -0.0003644   0.0000834
 Gradient of SCF Energy
            1           2           3           4           5           6
    1   0.0039458  -0.0006675  -0.0010680   0.0048662   0.0032694  -0.0021391
    2  -0.0178805   0.0001693   0.0008255  -0.0019772   0.0016787   0.0043209
    3  -0.0015471   0.0092539   0.0013835  -0.0041993  -0.0012936  -0.0038722
            7           8           9          10          11          12
    1  -0.0069094  -0.0082311  -0.0084357  -0.0050775  -0.0022385   0.0018500
    2  -0.0072181  -0.0150499  -0.0196822   0.0143934   0.0050734  -0.0027873
    3   0.0130161   0.0157819   0.0095262   0.0014602  -0.0057756  -0.0023578
           13          14          15          16          17          18
    1  -0.0039899   0.0039804   0.0055899   0.0067931   0.0079082   0.0021505
    2  -0.0007154  -0.0017177   0.0039873   0.0154621   0.0180204  -0.0009746
    3  -0.0004399  -0.0006522  -0.0092448  -0.0125239  -0.0094960   0.0007544
           19          20          21          22          23          24
    1  -0.0024431   0.0025541  -0.0032701  -0.0009730   0.0000258   0.0025095
    2   0.0030656  -0.0006154   0.0040631  -0.0013066  -0.0002997  -0.0008350
    3   0.0001424  -0.0016534  -0.0010638   0.0015219   0.0009113   0.0003677
 Max gradient component =       1.968E-02
 RMS gradient           =       6.836E-03
 Computing fast CPCM-SWIG gradient
[...]
 IR Active:          YES                    YES                    YES
 IR Intens:        5.503                 70.569                 20.914
 Raman Active:       YES                    YES                    YES
               X      Y      Z        X      Y      Z        X      Y      Z
 O          0.029 -0.054  0.011    0.021  0.055 -0.008   -0.009 -0.020  0.003
 C         -0.146  0.013 -0.009   -0.085 -0.089 -0.038    0.034  0.035  0.019
 C         -0.021  0.010  0.008   -0.014 -0.012  0.007    0.003 -0.002 -0.020
 O          0.033  0.006 -0.011    0.026  0.007 -0.010   -0.011 -0.002  0.006
 C         -0.006 -0.002  0.000    0.002  0.006  0.015    0.003  0.003  0.008
 C          0.002  0.002 -0.009   -0.004 -0.005 -0.010   -0.001 -0.013  0.020
 C         -0.001  0.001  0.002    0.006  0.003  0.002    0.021  0.005  0.001
 O          0.000 -0.000 -0.000   -0.001 -0.000 -0.001   -0.002 -0.000 -0.002
 O         -0.000 -0.000 -0.000   -0.001 -0.001  0.001   -0.004 -0.004  0.005
 H          0.465  0.253 -0.277   -0.323 -0.186  0.212    0.115  0.067 -0.076
 H          0.654  0.311  0.068    0.059  0.260  0.220   -0.013 -0.108 -0.089
 H         -0.065 -0.060  0.274    0.695  0.134  0.165   -0.246 -0.037 -0.076
 H         -0.016 -0.008 -0.020   -0.018 -0.022 -0.042   -0.002 -0.003 -0.007
 H          0.006 -0.004  0.045    0.014  0.016  0.024    0.018  0.060 -0.129
 H         -0.003 -0.013  0.000   -0.030 -0.016 -0.019   -0.105  0.008 -0.072
 H         -0.001  0.000  0.000    0.003 -0.001  0.000    0.005  0.000  0.000
 H          0.000  0.000  0.001   -0.005  0.002  0.003   -0.023 -0.001 -0.013
 O          0.001 -0.001  0.001   -0.000 -0.001 -0.000   -0.007  0.003 -0.008
 O         -0.001  0.000 -0.001    0.001  0.003 -0.008    0.006  0.008 -0.014
 C          0.000 -0.002 -0.001   -0.030 -0.025 -0.005   -0.082 -0.057 -0.008
 O          0.000 -0.001  0.001    0.016 -0.013 -0.002    0.044 -0.033 -0.007
 H          0.002  0.005  0.003    0.024  0.005  0.114    0.047 -0.034  0.281
 H          0.005  0.022  0.013    0.055  0.241  0.112    0.128  0.548  0.239
 H         -0.000  0.002 -0.000    0.018  0.227 -0.010    0.051  0.611 -0.029
 TransDip  -0.060  0.042  0.019   -0.226 -0.066  0.131    0.114  0.075 -0.055

 Mode:                49                     50                     51
 Frequency:      1416.45                1444.86                1451.19
 Force Cnst:      1.4468                 1.6113                 1.4774
 Red. Mass:       1.2239                 1.3100                 1.1907
 IR Active:          YES                    YES                    YES
 IR Intens:       16.120                186.267                 38.809
 Raman Active:       YES                    YES                    YES
               X      Y      Z        X      Y      Z        X      Y      Z
 O         -0.001 -0.001  0.000    0.003  0.003  0.002   -0.009 -0.007 -0.002
 C          0.002  0.003  0.004   -0.035  0.002  0.056    0.053  0.007 -0.052
 C         -0.001 -0.003 -0.010   -0.004 -0.020 -0.061    0.008  0.003 -0.003
 O         -0.001  0.000  0.002   -0.002  0.002  0.008   -0.011 -0.003  0.004
 C          0.002  0.004  0.008    0.022  0.032  0.079   -0.006 -0.009 -0.021
 C          0.019  0.017 -0.001   -0.013 -0.016 -0.032    0.010 -0.000  0.034
 C         -0.111 -0.017 -0.052    0.005  0.014  0.003   -0.001 -0.008 -0.003
 O         -0.011 -0.001  0.027   -0.002 -0.002  0.001    0.001  0.001 -0.001
 O          0.018  0.008 -0.033    0.000  0.001  0.005    0.001  0.002  0.001
 H          0.006  0.004 -0.003    0.002  0.002  0.010    0.012  0.007 -0.020
 H          0.007 -0.012 -0.009    0.247 -0.273 -0.229   -0.272  0.310  0.265
 H         -0.006  0.006 -0.012    0.121  0.231 -0.374   -0.146 -0.261  0.434
 H         -0.010 -0.011 -0.025   -0.074 -0.083 -0.188    0.025  0.028  0.067
 H         -0.046 -0.100  0.017    0.025  0.022  0.066   -0.008  0.020 -0.145
 H          0.804 -0.040  0.465   -0.022 -0.063 -0.014    0.005  0.055  0.002
 H          0.121 -0.050 -0.015    0.028 -0.009 -0.002   -0.013  0.005  0.000
 H          0.108  0.066  0.218   -0.013 -0.010 -0.039    0.003 -0.005 -0.009
 O          0.001 -0.002 -0.000   -0.003  0.001 -0.000   -0.008  0.006 -0.007
 O          0.000  0.002 -0.002    0.005  0.004 -0.003    0.008  0.004  0.000
 C         -0.011 -0.011 -0.005    0.018 -0.068 -0.048    0.009 -0.069 -0.045
 O          0.004 -0.004  0.000   -0.025  0.023  0.019   -0.021  0.022  0.017
 H          0.018  0.012  0.057    0.142  0.509  0.121    0.133  0.478  0.130
 H          0.009  0.085  0.050    0.034  0.211  0.156    0.039  0.207  0.140
 H          0.018  0.092  0.004   -0.045 -0.387  0.027   -0.037 -0.325  0.024
 TransDip  -0.105 -0.007 -0.075   -0.071 -0.309 -0.301    0.101 -0.172  0.010

 Mode:                52                     53                     54
 Frequency:      1471.49                1476.17                1481.12
 Force Cnst:      2.5044                 2.6890                 1.4807
 Red. Mass:       1.9631                 2.0945                 1.1456
 IR Active:          YES                    YES                    YES
 IR Intens:       93.138                 52.401                  9.673
 Raman Active:       YES                    YES                    YES
               X      Y      Z        X      Y      Z        X      Y      Z
 O         -0.011 -0.008 -0.000    0.009  0.007  0.001   -0.001 -0.001 -0.000
 C          0.047  0.018 -0.009   -0.031 -0.014  0.001    0.003  0.002  0.000
 C          0.006 -0.036 -0.133   -0.034  0.028  0.140    0.004 -0.003 -0.017
 O         -0.023 -0.001  0.024    0.040  0.004 -0.031   -0.005 -0.000  0.004
 C          0.036  0.056  0.134   -0.037 -0.056 -0.147    0.005  0.007  0.018
 C         -0.028 -0.053 -0.061    0.027 -0.026  0.086   -0.003  0.003 -0.011
 C          0.016  0.166 -0.027    0.012  0.169 -0.048   -0.003 -0.021  0.004
 O         -0.024 -0.028  0.022   -0.024 -0.028  0.024    0.003  0.003 -0.002
 O         -0.005 -0.023  0.025   -0.005 -0.028  0.027    0.001  0.003 -0.003
 H          0.021  0.014 -0.019   -0.024 -0.015  0.015    0.003  0.002 -0.002
 H         -0.128  0.187  0.165    0.069 -0.133 -0.117   -0.006  0.014  0.012
 H         -0.067 -0.135  0.266    0.034  0.086 -0.187   -0.002 -0.008  0.019
 H         -0.103 -0.122 -0.261    0.131  0.130  0.320   -0.016 -0.016 -0.040
 H          0.033 -0.017  0.173   -0.030 -0.020 -0.269    0.004  0.001  0.038
 H          0.063 -0.557 -0.024    0.117 -0.463 -0.011   -0.003  0.054  0.007
 H          0.369 -0.124 -0.023    0.395 -0.130 -0.024   -0.045  0.015  0.003
 H         -0.156 -0.069 -0.275   -0.173 -0.085 -0.318    0.022  0.013  0.047
 O          0.004 -0.002  0.002   -0.007  0.010 -0.012    0.005 -0.003 -0.000
 O         -0.004 -0.002 -0.001    0.005  0.002  0.006   -0.001  0.006  0.006
 C          0.002  0.028  0.017   -0.009 -0.030  0.006   -0.039 -0.054  0.080
 O          0.005 -0.007 -0.005   -0.002  0.006  0.003    0.009  0.000 -0.004
 H         -0.048 -0.155 -0.060   -0.028  0.197 -0.073   -0.280  0.351 -0.505
 H         -0.014 -0.084 -0.053    0.127  0.063 -0.074    0.539  0.096 -0.448
 H          0.004  0.072 -0.008   -0.012 -0.054 -0.000    0.006  0.135 -0.012
 TransDip   0.110  0.094 -0.273   -0.053  0.057  0.218   -0.006 -0.042 -0.090

 Mode:                55                     56                     57
 Frequency:      1591.46                3062.74                3073.81
 Force Cnst:     12.7907                 5.8748                 6.0259
 Red. Mass:       8.5714                 1.0630                 1.0825
 IR Active:          YES                    YES                    YES
 IR Intens:      181.146                 36.205                  0.379
 Raman Active:       YES                    YES                    YES
               X      Y      Z        X      Y      Z        X      Y      Z
 O          0.013  0.003 -0.008    0.000  0.000 -0.000   -0.000 -0.000  0.000
 C         -0.135 -0.045  0.004    0.000  0.013 -0.070    0.000  0.000  0.001
 C          0.606  0.159 -0.159    0.000  0.001 -0.001   -0.001 -0.000  0.001
 O         -0.365 -0.077  0.162   -0.000 -0.000  0.000    0.000  0.000 -0.000
 C         -0.077 -0.056 -0.099   -0.000  0.000  0.000    0.001  0.000 -0.002
 C          0.037  0.012  0.046   -0.001  0.000  0.000   -0.071  0.040  0.010
 C         -0.002  0.034 -0.011   -0.000  0.000 -0.000    0.004  0.001 -0.010
 O         -0.001 -0.006  0.004   -0.000 -0.000 -0.000    0.000 -0.001  0.000
 O         -0.003 -0.009  0.004   -0.000 -0.000 -0.000    0.000 -0.000  0.000
 H          0.007 -0.004 -0.012    0.003 -0.003  0.001   -0.000  0.000  0.000
 H          0.256  0.041 -0.014    0.139 -0.554  0.685   -0.001  0.004 -0.005
 H          0.231  0.111 -0.038   -0.157  0.392  0.146    0.002 -0.005 -0.002
 H          0.116  0.157  0.411    0.001  0.000  0.000   -0.016  0.001  0.007
 H         -0.006 -0.044 -0.111    0.007 -0.004 -0.001    0.859 -0.469 -0.134
 H          0.015 -0.086 -0.011   -0.000 -0.000  0.000   -0.059 -0.000  0.109
 H          0.050 -0.019 -0.002    0.000 -0.000  0.000    0.001  0.001 -0.000
 H         -0.032 -0.022 -0.060   -0.000 -0.000 -0.000    0.000 -0.000 -0.000
 O         -0.007  0.002 -0.010   -0.000 -0.000 -0.000   -0.001  0.000  0.002
 O          0.002 -0.001  0.001    0.000 -0.000 -0.000    0.001 -0.000 -0.001
 C         -0.001  0.002  0.001   -0.000  0.000 -0.000   -0.001  0.002 -0.003
 O          0.000 -0.001 -0.000   -0.000 -0.000  0.000   -0.000  0.000  0.000
 H         -0.001 -0.005  0.002   -0.000  0.000  0.000   -0.017  0.001  0.007
 H         -0.003 -0.007 -0.004    0.001 -0.000  0.001    0.029 -0.020  0.026
 H          0.001  0.007  0.001    0.000  0.000 -0.000    0.001 -0.000 -0.001
 TransDip   0.362  0.044 -0.230    0.117  0.045 -0.146    0.004 -0.004 -0.019

 Mode:                58                     59                     60
 Frequency:      3075.06                3103.22                3121.82
 Force Cnst:      5.9150                 6.1699                 6.3245
 Red. Mass:       1.0617                 1.0874                 1.1014
 IR Active:          YES                    YES                    YES
 IR Intens:       64.312                 24.171                  9.934
 Raman Active:       YES                    YES                    YES
               X      Y      Z        X      Y      Z        X      Y      Z
 O         -0.000 -0.000 -0.000   -0.000 -0.000  0.000   -0.000  0.002  0.000
 C          0.000 -0.000  0.000   -0.000  0.000 -0.000    0.031 -0.087  0.001
 C          0.000  0.000  0.000    0.001  0.000 -0.000    0.000 -0.001  0.000
 O         -0.000 -0.000 -0.000   -0.000 -0.000 -0.000   -0.000  0.000 -0.000
 C          0.000  0.000  0.000   -0.000  0.000 -0.000   -0.000 -0.000  0.000
 C          0.003 -0.002 -0.000    0.009 -0.005 -0.002   -0.000  0.000  0.000
 C          0.000 -0.000 -0.000    0.042  0.003 -0.073    0.000  0.000 -0.000
 O         -0.000  0.000 -0.000   -0.000 -0.001  0.001   -0.000 -0.000  0.000
 O          0.000 -0.000 -0.000   -0.000 -0.001  0.001   -0.000 -0.000  0.000
 H          0.000  0.000  0.000    0.000  0.000 -0.000   -0.001 -0.016 -0.001
 H         -0.000  0.000 -0.001    0.000 -0.001  0.002   -0.068  0.257 -0.342
 H          0.000 -0.000 -0.000    0.001 -0.002 -0.001   -0.302  0.780  0.323
 H          0.000 -0.000 -0.000    0.002 -0.000 -0.001    0.001  0.001 -0.000
 H         -0.041  0.023  0.006   -0.107  0.061  0.017    0.001 -0.001 -0.000
 H         -0.001  0.000  0.001   -0.485 -0.018  0.861   -0.002 -0.000  0.003
 H          0.000  0.000 -0.000    0.006  0.004 -0.001    0.000  0.000 -0.000
 H          0.000  0.000 -0.000   -0.002  0.005 -0.005   -0.000  0.000 -0.000
 O         -0.000  0.000  0.000    0.000 -0.000  0.000   -0.000 -0.000 -0.000
 O         -0.000 -0.000 -0.001   -0.000  0.000  0.000    0.000 -0.000 -0.000
 C         -0.018  0.033 -0.059    0.000 -0.000  0.000    0.000 -0.000  0.000
 O         -0.001  0.001  0.001   -0.000 -0.000  0.000   -0.000 -0.000  0.000
 H         -0.380  0.030  0.172    0.001 -0.000 -0.000    0.000 -0.000 -0.000
 H          0.593 -0.424  0.535   -0.005  0.004 -0.005   -0.000  0.000 -0.000
 H          0.013 -0.002 -0.004    0.004  0.001 -0.000    0.000  0.000  0.000
 TransDip   0.005  0.135 -0.218    0.085 -0.044 -0.125    0.063 -0.079  0.002

 Mode:                61                     62                     63
 Frequency:      3156.95                3244.50                3636.78
 Force Cnst:      6.5000                 6.7545                 8.3168
 Red. Mass:       1.1070                 1.0891                 1.0673
 IR Active:          YES                    YES                    YES
 IR Intens:       17.396                  5.144                573.449
 Raman Active:       YES                    YES                    YES
               X      Y      Z        X      Y      Z        X      Y      Z
 O          0.000 -0.000  0.000   -0.000 -0.000 -0.001    0.000 -0.000 -0.000
 C         -0.000 -0.000  0.000   -0.000  0.000  0.001    0.000  0.000 -0.000
 C          0.000  0.000 -0.000   -0.001 -0.001 -0.001   -0.000  0.000  0.000
 O         -0.000 -0.000  0.000    0.001  0.000 -0.001    0.000 -0.000 -0.000
 C         -0.000 -0.000  0.000   -0.076 -0.018  0.035    0.000 -0.000  0.000
 C          0.000 -0.000 -0.000    0.000  0.002  0.001   -0.000  0.000 -0.000
 C          0.000 -0.000 -0.000    0.000  0.000  0.000    0.001  0.001  0.001
 O          0.000  0.000  0.000    0.000 -0.000  0.000   -0.000 -0.000  0.000
 O          0.000  0.000  0.000   -0.000 -0.000 -0.000   -0.001 -0.002 -0.000
 H          0.000 -0.000  0.000    0.001  0.001  0.001   -0.000  0.000  0.000
 H          0.000 -0.000  0.000    0.000  0.001  0.000   -0.000 -0.000 -0.000
 H         -0.000  0.000  0.000    0.001 -0.001  0.000   -0.000 -0.000 -0.000
 H          0.002  0.000 -0.001    0.887  0.208 -0.402   -0.001 -0.000 -0.000
 H         -0.002  0.001 -0.000    0.017 -0.007 -0.000   -0.000  0.000  0.000
 H         -0.001 -0.000  0.002    0.000 -0.000  0.000   -0.001 -0.002 -0.006
 H         -0.000 -0.000  0.000    0.000 -0.000  0.000    0.001  0.005 -0.003
 H         -0.000 -0.000  0.000   -0.000 -0.000  0.000    0.013  0.024 -0.015
 O          0.001 -0.001 -0.000   -0.000 -0.000 -0.000   -0.000 -0.000  0.000
 O         -0.001  0.001  0.001    0.000  0.000  0.000    0.000  0.001  0.000
 C         -0.092  0.020  0.012    0.000 -0.000 -0.000   -0.003 -0.001  0.001
 O          0.002 -0.001 -0.001   -0.000  0.000  0.000   -0.054  0.002  0.032
 H          0.823 -0.058 -0.385   -0.002  0.000  0.001    0.023  0.005 -0.009
 H          0.259 -0.189  0.241   -0.000  0.000  0.000   -0.001  0.007 -0.002
 H         -0.018  0.009  0.010    0.001 -0.000 -0.000    0.863 -0.035 -0.498
 TransDip  -0.132  0.017  0.003    0.052 -0.001 -0.051    0.563  0.057 -0.518

 Mode:                64                     65                     66
 Frequency:      3817.91                3822.23                3832.24
 Force Cnst:      9.1609                 9.1827                 9.2312
 Red. Mass:       1.0667                 1.0668                 1.0669
 IR Active:          YES                    YES                    YES
 IR Intens:      138.859                162.245                126.323
 Raman Active:       YES                    YES                    YES
               X      Y      Z        X      Y      Z        X      Y      Z
 O         -0.000  0.000  0.000   -0.000  0.000  0.000    0.032 -0.053 -0.010
 C         -0.000 -0.000  0.000   -0.000  0.000  0.000   -0.000 -0.002  0.000
 C          0.000 -0.000 -0.000    0.000 -0.000 -0.000    0.000  0.000  0.000
 O         -0.000  0.000  0.000   -0.000  0.000  0.000   -0.000 -0.000 -0.000
 C         -0.000  0.000 -0.000   -0.000 -0.000  0.000    0.000 -0.000 -0.000
 C          0.000  0.000  0.000   -0.000  0.000 -0.000    0.000 -0.000  0.000
 C         -0.001 -0.001  0.001   -0.001 -0.001  0.001   -0.000  0.000 -0.000
 O          0.001  0.005 -0.003   -0.008 -0.051  0.035   -0.000 -0.000  0.000
 O         -0.027 -0.052  0.021   -0.003 -0.005  0.002   -0.000 -0.000  0.000
 H          0.001 -0.002 -0.000    0.002 -0.003 -0.001   -0.496  0.852  0.152
 H          0.000 -0.000  0.000    0.000 -0.000  0.000   -0.004  0.002 -0.000
 H          0.000 -0.000  0.000    0.000  0.000  0.000   -0.006  0.012  0.004
 H          0.000 -0.000  0.000    0.000  0.000  0.000   -0.000  0.000  0.001
 H          0.001 -0.001 -0.000   -0.001  0.000  0.000   -0.000 -0.000 -0.000
 H          0.005  0.003 -0.001   -0.000  0.004 -0.006    0.000  0.000 -0.000
 H         -0.015 -0.074  0.050    0.148  0.813 -0.552    0.000  0.002 -0.002
 H          0.428  0.823 -0.356    0.040  0.075 -0.032    0.001  0.002 -0.001
 O          0.000  0.000 -0.000    0.000  0.000 -0.000   -0.000 -0.000 -0.000
 O         -0.000 -0.000 -0.000   -0.000 -0.000 -0.000    0.000 -0.000 -0.000
 C          0.000 -0.000  0.000    0.000 -0.000  0.000    0.000  0.000  0.000
 O          0.002 -0.000 -0.001    0.000 -0.000 -0.000    0.000 -0.000 -0.000
 H         -0.000 -0.000  0.000   -0.000 -0.000 -0.000    0.000 -0.000 -0.000
 H         -0.000 -0.000 -0.000   -0.000  0.000 -0.000   -0.000 -0.000 -0.000
 H         -0.025  0.001  0.016   -0.007  0.000  0.005   -0.000  0.000  0.000
 TransDip   0.218  0.307 -0.028   -0.011  0.355 -0.201   -0.248  0.251  0.069

 STANDARD THERMODYNAMIC QUANTITIES AT   298.15 K  AND     1.00 ATM

   This Molecule has  0 Imaginary Frequencies
   Zero point vibrational energy:      117.557 kcal/mol

   Atom    1 Element O  Has Mass   15.99491
   Atom    2 Element C  Has Mass   12.00000
   Atom    3 Element C  Has Mass   12.00000
   Atom    4 Element O  Has Mass   15.99491
   Atom    5 Element C  Has Mass   12.00000
   Atom    6 Element C  Has Mass   12.00000
   Atom    7 Element C  Has Mass   12.00000
   Atom    8 Element O  Has Mass   15.99491
   Atom    9 Element O  Has Mass   15.99491
   Atom   10 Element H  Has Mass    1.00783
   Atom   11 Element H  Has Mass    1.00783
   Atom   12 Element H  Has Mass    1.00783
   Atom   13 Element H  Has Mass    1.00783
   Atom   14 Element H  Has Mass    1.00783
   Atom   15 Element H  Has Mass    1.00783
   Atom   16 Element H  Has Mass    1.00783
   Atom   17 Element H  Has Mass    1.00783
   Atom   18 Element O  Has Mass   15.99491
   Atom   19 Element O  Has Mass   15.99491
   Atom   20 Element C  Has Mass   12.00000
   Atom   21 Element O  Has Mass   15.99491
   Atom   22 Element H  Has Mass    1.00783
   Atom   23 Element H  Has Mass    1.00783
   Atom   24 Element H  Has Mass    1.00783
   Molecular Mass:   195.050500 amu
   Principal axes and moments of inertia in amu*Bohr^2:
                             1           2           3
    Eigenvalues --     1360.31913  3950.52524  4561.83395
          X               0.18281     0.77777    -0.60138
          Y               0.52999     0.43724     0.72659
          Z               0.82806    -0.45156    -0.33228
   Rotational Symmetry Number is   1
   The Molecule is an Asymmetric Top
   Translational Enthalpy:        0.889 kcal/mol
   Rotational Enthalpy:           0.889 kcal/mol
   Vibrational Enthalpy:        124.849 kcal/mol
   gas constant (RT):             0.592 kcal/mol
   Translational Entropy:        41.709  cal/mol.K
   Rotational Entropy:           31.572  cal/mol.K
   Vibrational Entropy:          47.342  cal/mol.K

   Total Enthalpy:              127.219 kcal/mol
   Total Entropy:               120.624  cal/mol.K
 Total job time:  54023.69s(wall), 755973.59s(cpu) 
 Fri May 17 03:04:59 2024

        *************************************************************
        *                                                           *
        *  Thank you very much for using Q-Chem.  Have a nice day.  *
        *                                                           *
        *************************************************************


