
Running Job 1 of 1 Q_in.in
qchem Q_in.in_305261.0 /scratch/ari.fischer/qChem2208546.hpc-mn1/qchem305261/ 0
/usr/local/qchem-5.4.1/exe/qcprog.exe_s Q_in.in_305261.0 /scratch/ari.fischer/qChem2208546.hpc-mn1/qchem305261/
                  Welcome to Q-Chem
     A Quantum Leap Into The Future Of Chemistry


 Q-Chem 5.4, Q-Chem, Inc., Pleasanton, CA (2021)

 License issued to: Nanyang Technological University (site)

 E. Epifanovsky,  A. T. B. Gilbert,  Xintian Feng,  Joonho Lee,  Yuezhi Mao,  
 N. Mardirossian,  P. Pokhilko,  A. White,  M. Wormit,  M. P. Coons,  
 A. L. Dempwolff,  Zhengting Gan,  D. Hait,  P. R. Horn,  L. D. Jacobson,  
 I. Kaliman,  J. Kussmann,  A. W. Lange,  Ka Un Lao,  D. S. Levine,  Jie Liu,  
 S. C. McKenzie,  A. F. Morrison,  K. Nanda,  F. Plasser,  D. R. Rehn,  
 M. L. Vidal,  Zhi-Qiang You,  Ying Zhu,  B. Alam,  B. Albrecht,  
 A. Aldossary,  E. Alguire,  J. H. Andersen,  D. Barton,  K. Begam,  A. Behn,  
 Y. A. Bernard,  E. J. Berquist,  H. Burton,  A. Carreras,  K. Carter-Fenk,  
 R. Chakraborty,  A. D. Chien,  K. D. Closser,  V. Cofer-Shabica,  
 S. Dasgupta,  Jia Deng,  M. de Wergifosse,  M. Diedenhofen,  Hainam Do,  
 S. Ehlert,  Po-Tung Fang,  S. Fatehi,  Qingguo Feng,  T. Friedhoff,  
 J. Gayvert,  Qinghui Ge,  G. Gidofalvi,  M. Goldey,  J. Gomes,  
 C. Gonzalez-Espinoza,  S. Gulania,  A. Gunina,  M. W. D. Hanson-Heine,  
 P. H. P. Harbach,  A. W. Hauser,  M. F. Herbst,  M. Hernandez Vera,  
 M. Hodecker,  Z. C. Holden,  S. Houck,  Xunkun Huang,  Kerwin Hui,  
 B. C. Huynh,  M. Ivanov,  Hyunjun Ji,  Hanjie Jiang,  B. Kaduk,  S. Kaehler,  
 K. Khistyaev,  Jaehoon Kim,  P. Klunzinger,  Z. Koczor-Benda,  
 Joong Hoon Koh,  D. Kosenkov,  L. Koulias,  T. Kowalczyk,  C. M. Krauter,  
 K. Kue,  A. Kunitsa,  T. Kus,  A. Landau,  K. V. Lawler,  D. Lefrancois,  
 S. Lehtola,  Rain Li,  Yi-Pei Li,  Jiashu Liang,  M. Liebenthal,  
 Hung-Hsuan Lin,  You-Sheng Lin,  Fenglai Liu,  Kuan-Yu Liu,  
 M. Loipersberger,  A. Luenser,  A. Manjanath,  P. Manohar,  E. Mansoor,  
 S. F. Manzer,  Shan-Ping Mao,  A. V. Marenich,  T. Markovich,  S. Mason,  
 S. A. Maurer,  P. F. McLaughlin,  M. F. S. J. Menger,  J.-M. Mewes,  
 S. A. Mewes,  P. Morgante,  J. W. Mullinax,  K. J. Oosterbaan,  G. Paran,  
 Alexander C. Paul,  Suranjan K. Paul,  F. Pavosevic,  Zheng Pei,  S. Prager,  
 E. I. Proynov,  E. Ramos,  B. Rana,  A. E. Rask,  A. Rettig,  R. M. Richard,  
 F. Rob,  E. Rossomme,  T. Scheele,  M. Scheurer,  M. Schneider,  
 N. Sergueev,  S. M. Sharada,  W. Skomorowski,  D. W. Small,  C. J. Stein,  
 Yu-Chuan Su,  E. J. Sundstrom,  Zhen Tao,  J. Thirman,  T. Tsuchimochi,  
 N. M. Tubman,  S. P. Veccham,  O. Vydrov,  J. Wenzel,  J. Witte,  A. Yamada,  
 Kun Yao,  S. Yeganeh,  S. R. Yost,  A. Zech,  Igor Ying Zhang,  Xing Zhang,  
 Yu Zhang,  D. Zuev,  A. Aspuru-Guzik,  A. T. Bell,  N. A. Besley,  
 K. B. Bravaya,  B. R. Brooks,  D. Casanova,  Jeng-Da Chai,  S. Coriani,  
 C. J. Cramer,  A. E. DePrince, III,  R. A. DiStasio Jr.,  A. Dreuw,  
 B. D. Dunietz,  T. R. Furlani,  W. A. Goddard III,  S. Grimme,  
 S. Hammes-Schiffer,  T. Head-Gordon,  W. J. Hehre,  Chao-Ping Hsu,  
 T.-C. Jagau,  Yousung Jung,  A. Klamt,  Jing Kong,  D. S. Lambrecht,  
 WanZhen Liang,  N. J. Mayhall,  C. W. McCurdy,  J. B. Neaton,  
 C. Ochsenfeld,  J. A. Parkhill,  R. Peverati,  V. A. Rassolov,  Yihan Shao,  
 L. V. Slipchenko,  T. Stauch,  R. P. Steele,  J. E. Subotnik,  
 A. J. W. Thom,  A. Tkatchenko,  D. G. Truhlar,  T. Van Voorhis,  
 T. A. Wesolowski,  K. B. Whaley,  H. L. Woodcock III,  P. M. Zimmerman,  
 S. Faraji,  P. M. W. Gill,  M. Head-Gordon,  J. M. Herbert,  A. I. Krylov

 Additional authors for Version 5.4.1: 
 S. Kotaru,  Shaozhi Li,  Xiangyuan Li,  F. Matz,  A. Molle,  Haisheng Ren,  
 Yingli Su,  Hung-Yi Tsai,  C. Utku,  Fang Wang

 Contributors to earlier versions of Q-Chem not listed above: 
 R. D. Adamson,  B. Austin,  R. Baer,  J. Baker,  G. J. O. Beran,  
 K. Brandhorst,  S. T. Brown,  E. F. C. Byrd,  A. K. Chakraborty,  
 G. K. L. Chan,  Chun-Min Chang,  Yunqing Chen,  C.-L. Cheng,  
 Siu Hung Chien,  D. M. Chipman,  D. L. Crittenden,  H. Dachsel,  
 R. J. Doerksen,  A. D. Dutoi,  R. G. Edgar,  J. Fosso-Tande,  
 L. Fusti-Molnar,  D. Ghosh,  A. Ghysels,  A. Golubeva-Zadorozhnaya,  
 J. Gonthier,  M. S. Gordon,  S. R. Gwaltney,  G. Hawkins,  J. E. Herr,  
 A. Heyden,  S. Hirata,  E. G. Hohenstein,  G. Kedziora,  F. J. Keil,  
 C. Kelley,  Jihan Kim,  R. A. King,  R. Z. Khaliullin,  P. P. Korambath,  
 W. Kurlancheek,  A. Laurent,  A. M. Lee,  M. S. Lee,  S. V. Levchenko,  
 Ching Yeh Lin,  D. Liotard,  E. Livshits,  R. C. Lochan,  I. Lotan,  
 L. A. Martinez-Martinez,  P. E. Maslen,  N. Nair,  D. P. O'Neill,  
 D. Neuhauser,  E. Neuscamman,  C. M. Oana,  R. Olivares-Amaya,  R. Olson,  
 T. M. Perrine,  B. Peters,  P. A. Pieniazek,  A. Prociuk,  Y. M. Rhee,  
 J. Ritchie,  M. A. Rohrdanz,  E. Rosta,  N. J. Russ,  H. F. Schaefer III,  
 M. W. Schmidt,  N. E. Schultz,  S. Sharma,  N. Shenvi,  C. D. Sherrill,  
 A. C. Simmonett,  A. Sodt,  T. Stein,  D. Stuck,  K. S. Thanthiriwatte,  
 V. Vanovschi,  L. Vogt,  Tao Wang,  A. Warshel,  M. A. Watson,  
 C. F. Williams,  Q. Wu,  X. Xu,  Jun Yang,  W. Zhang,  Yan Zhao

 Please cite Q-Chem as follows:
 Y. Shao et al., Mol. Phys. 113, 184-215 (2015)
 DOI: 10.1080/00268976.2014.952696

 Q-Chem 5.4.1 for Intel X86 EM64T Linux

 Parts of Q-Chem use Armadillo 9.800.1 (Horizon Scraper).
 http://arma.sourceforge.net/

 Q-Chem begins on Wed Jul  3 16:41:57 2024  

 Host: 
0

     Scratch files written to /scratch/ari.fischer/qChem2208546.hpc-mn1/qchem305261//
 Aug1521 |scratch|qcdevops|jenkins|workspace|build_RNUM 8249   
 Processing $rem in /usr/local/qchem-5.4.1/config/preferences:
 Processing $rem in /home/ari.fischer/.qchemrc:
 Symmetry turned off for PCM/SM12/SMD calculation


!!********************************************.
!!******************Warning*******************.
!!Desired Analytical derivatives not available.
!!Finite difference job might take a long time.
!!********************************************.
!!********************************************.


 2-order derivative to be evaluated numerically with 1-order analytical derivatives

 Checking the input file for inconsistencies... 	...done.

--------------------------------------------------------------
User input:
--------------------------------------------------------------
$molecule
0 1
C         2.4301211961   -0.7823617346   -0.9646096491
O         3.4470897200   -1.7444693278   -1.1283516768
C         2.9370413024    0.1640318941    0.1210277831
O         2.4601117369    0.1121244988    1.2343075541
C         4.0401718010    1.1072572724   -0.2655890853
C         4.7035914159    1.7488622003    0.9324724941
O         5.4066166217    0.6931271476    1.5931411505
O         5.4804395250    0.9774291959    2.9892893765
C         5.6647576675    2.8591677573    0.5213136613
O         4.8614149499    3.9075439135    0.0297152537
O         6.4781150860    3.2852253438    1.5880230493
H         1.5059617638   -1.2534377728   -0.6324137663
H         3.0486791513   -2.5606975674   -1.4514422517
H         3.6073850676    1.8731390072   -0.9112978248
H         4.7715359905    0.5726672172   -0.8755795175
H         3.9580375362    2.1552801008    1.6176943370
H         4.6900862653    0.5281185805    3.3260354899
H         6.3546937435    2.5079940771   -0.2469929405
H         5.4285753976    4.5274198718   -0.4423700398
H         5.9166838069    3.4558097409    2.3550505409
O         2.2215580077   -0.0250216584   -2.1300182767
H         1.6404765470   -0.5219130580   -2.7174183616
$end

$rem
BASIS = 6-311++G(2df,2p)
GUI = 2
JOB_TYPE = Frequency
METHOD = wB97M-V
SOLVENT_METHOD = SMD
SCF_ALGORITHM = DIIS_GDM
MAX_SCF_CYCLES = 400
SCF_CONVERGENCE = 7
THRESH = 12
$end
--------------------------------------------------------------
 ----------------------------------------------------------------
             Standard Nuclear Orientation (Angstroms)
    I     Atom           X                Y                Z
 ----------------------------------------------------------------
    1      C       2.4301211961    -0.7823617346    -0.9646096491
    2      O       3.4470897200    -1.7444693278    -1.1283516768
    3      C       2.9370413024     0.1640318941     0.1210277831
    4      O       2.4601117369     0.1121244988     1.2343075541
    5      C       4.0401718010     1.1072572724    -0.2655890853
    6      C       4.7035914159     1.7488622003     0.9324724941
    7      O       5.4066166217     0.6931271476     1.5931411505
    8      O       5.4804395250     0.9774291959     2.9892893765
    9      C       5.6647576675     2.8591677573     0.5213136613
   10      O       4.8614149499     3.9075439135     0.0297152537
   11      O       6.4781150860     3.2852253438     1.5880230493
   12      H       1.5059617638    -1.2534377728    -0.6324137663
   13      H       3.0486791513    -2.5606975674    -1.4514422517
   14      H       3.6073850676     1.8731390072    -0.9112978248
   15      H       4.7715359905     0.5726672172    -0.8755795175
   16      H       3.9580375362     2.1552801008     1.6176943370
   17      H       4.6900862653     0.5281185805     3.3260354899
   18      H       6.3546937435     2.5079940771    -0.2469929405
   19      H       5.4285753976     4.5274198718    -0.4423700398
   20      H       5.9166838069     3.4558097409     2.3550505409
   21      O       2.2215580077    -0.0250216584    -2.1300182767
   22      H       1.6404765470    -0.5219130580    -2.7174183616
 ----------------------------------------------------------------
 Nuclear Repulsion Energy =         788.73395431 hartrees
 There are       48 alpha and       48 beta electrons
 Requested basis set is 6-311++G(2df,2p)
 There are 156 shells and 508 basis functions

 Total QAlloc Memory Limit 288000 MB
 Mega-Array Size       188 MB
 MEM_STATIC part       192 MB
 
 Citation of the SMD model:
 Marenich, A.V.; Cramer, C.J.; Truhlar, D.G.
 J. Phys. Chem. B 2009, 113, 6378-6396.
 iSolventCode=           1
 Solvent: water                                                           
 
 vradii
            1           2           3           4           5           6
    1   1.8500000   1.5200000   1.8500000   1.5200000   1.8500000   1.8500000
            7           8           9          10          11          12
    1   1.5200000   1.5200000   1.8500000   1.5200000   1.5200000   1.2000000
           13          14          15          16          17          18
    1   1.2000000   1.2000000   1.2000000   1.2000000   1.2000000   1.2000000
           19          20          21          22
    1   1.2000000   1.2000000   1.5200000   1.2000000
 Changing PCM_VDW_RADII to SMD_RADIUS
 Discretize the solute cavity surface with Lebedev spheres
	Using 110 Lebedev grid points for each H atom
	Using 194 Lebedev grid points for other atoms
	Atomic van der Waals radii will be scaled by 1.20
 Remove points where switching function is < 1.0e-08
 Keep 1735 surface tesserae and discard 1693 interior tesserae
 Molecular Surface Area = 193.003 Angst**2
 A cutoff of  1.0D-12 yielded  10029 shell pairs
 There are    104485 function pairs (    129148 Cartesian)
 Smallest overlap matrix eigenvalue = 3.81E-06
 Guess from superposition of atomic densities
 Warning:  Energy on first SCF cycle will be non-variational
 SAD guess density has 96.000000 electrons

 -----------------------------------------------------------------------
  General SCF calculation program by
  Eric Jon Sundstrom, Paul Horn, Yuezhi Mao, Dmitri Zuev, Alec White,
  David Stuck, Shaama M.S., Shane Yost, Joonho Lee, David Small,
  Daniel Levine, Susi Lehtola, Hugh Burton, Evgeny Epifanovsky,
  Bang C. Huynh
 -----------------------------------------------------------------------
 Exchange:     0.1500 Hartree-Fock + 1.0000 wB97M-V + LR-HF
 Correlation:  1.0000 wB97M-V
 Using SG-2 standard quadrature grid
 Nonlocal Correlation:  VV10 with C = 0.0100 and b = 6.00 and scale = 1.00000
 Grid used for NLC:  SG-1 standard quadrature
 using 16 threads for integral computing
 -------------------------------------------------------
 OpenMP Integral computing Module                
 Release: version 1.0, May 2013, Q-Chem Inc. Pittsburgh 
 -------------------------------------------------------
 
 Citation of the SMD model:
 Marenich, A.V.; Cramer, C.J.; Truhlar, D.G.
 J. Phys. Chem. B 2009, 113, 6378-6396.
 iSolventCode=           1
 Solvent: water                                                           
 
 vradii
            1           2           3           4           5           6
    1   1.8500000   1.5200000   1.8500000   1.5200000   1.8500000   1.8500000
            7           8           9          10          11          12
    1   1.5200000   1.5200000   1.8500000   1.5200000   1.5200000   1.2000000
           13          14          15          16          17          18
    1   1.2000000   1.2000000   1.2000000   1.2000000   1.2000000   1.2000000
           19          20          21          22
    1   1.2000000   1.2000000   1.5200000   1.2000000
 -------------------------------------------------------
 OpenMP BLAS3 based DFT computing Module                
 Release: version 1.0, May 2013, Q-Chem Inc. Pittsburgh 
 -------------------------------------------------------
 A restricted SCF calculation will be
 performed using DIIS, GDM
 SCF converges when RMS gradient is below 1.0e-07
 ---------------------------------------
  Cycle       Energy         DIIS error
 ---------------------------------------
    1    -725.5338421732      2.22e-02  
    2    -722.8619194328      3.01e-03  Done DIIS. Switching to GDM
 ---------------------------------------
  Cycle       Energy        RMS Gradient
 ---------------------------------------
    1    -722.8619194328      1.24e-01   Descent step
    2    -723.0701175307      1.51e-02   Normal BFGS step
    3    -723.0885956744      1.26e-02   Normal BFGS step
    4    -723.0906391210      4.85e-03   Normal BFGS step
    5    -723.0914958930      6.10e-04   Normal BFGS step
    6    -723.0915340259      3.84e-04   Normal BFGS step
    7    -723.0915406760      7.45e-05   Normal BFGS step
    8    -723.0915411904      3.10e-05   Normal BFGS step
    9    -723.0915412455      1.78e-05   Normal BFGS step
   10    -723.0915412640      6.39e-06   Normal BFGS step
   11    -723.0915412667      1.65e-06   Normal BFGS step
   12    -723.0915412668      4.57e-07   Normal BFGS step
   13    -723.0915412669      1.79e-07   Normal BFGS step
   14    -723.0915412669      1.29e-07   Normal BFGS step
   15    -723.0915412667      6.17e-08  Convergence criterion met
 ---------------------------------------
 SCF time:   CPU 2498.47s  wall 177.00s 
(3)  G-ENP(liq) elect-nuc-pol free energy of system     -723.091541267 a.u.
(4)  G-CDS(liq) cavity-dispersion-solvent structure 
     free energy                                                4.9673 kcal/mol
(6)  G-S(liq) free energy of system                     -723.083625333 a.u.
 SCF   energy in the final basis set =     -723.0836253333
 Total energy in the final basis set =     -723.0836253333
 
 --------------------------------------------------------------
 
                    Orbital Energies (a.u.)
 --------------------------------------------------------------
 
 Alpha MOs
 -- Occupied --
-19.4029 -19.3951 -19.3530 -19.3520 -19.3482 -19.3463 -19.3443 -10.4539
-10.4517 -10.4453 -10.4038 -10.3537  -1.2706  -1.2148  -1.2013  -1.1925
 -1.1434  -1.1351  -1.0537  -0.9138  -0.8539  -0.8094  -0.7395  -0.6848
 -0.6680  -0.6586  -0.6552  -0.6417  -0.6328  -0.5962  -0.5841  -0.5676
 -0.5525  -0.5444  -0.5438  -0.5320  -0.5138  -0.4962  -0.4775  -0.4637
 -0.4551  -0.4332  -0.4256  -0.4185  -0.4167  -0.4071  -0.3901  -0.3722
 -- Virtual --
  0.0250   0.0328   0.0366   0.0438   0.0459   0.0573   0.0594   0.0654
  0.0678   0.0835   0.0924   0.0979   0.1092   0.1169   0.1280   0.1319
  0.1370   0.1430   0.1461   0.1502   0.1538   0.1599   0.1642   0.1654
  0.1741   0.1853   0.1885   0.1955   0.2069   0.2101   0.2151   0.2233
  0.2339   0.2382   0.2484   0.2559   0.2603   0.2649   0.2703   0.2737
  0.2797   0.2864   0.2909   0.2955   0.3011   0.3056   0.3144   0.3245
  0.3298   0.3323   0.3384   0.3418   0.3482   0.3513   0.3525   0.3618
  0.3650   0.3684   0.3724   0.3803   0.3831   0.3866   0.3941   0.3960
  0.4083   0.4119   0.4243   0.4329   0.4350   0.4423   0.4457   0.4544
  0.4566   0.4605   0.4705   0.4792   0.4918   0.4986   0.5311   0.5558
  0.5677   0.5855   0.5888   0.6009   0.6079   0.6213   0.6314   0.6413
  0.6458   0.6521   0.6633   0.6673   0.6801   0.6859   0.7026   0.7056
  0.7138   0.7276   0.7315   0.7370   0.7423   0.7530   0.7682   0.7818
  0.7871   0.7927   0.8173   0.8245   0.8453   0.8631   0.8733   0.8948
  0.9121   0.9216   0.9450   0.9599   0.9676   0.9755   0.9911   1.0032
  1.0210   1.0420   1.0485   1.0684   1.0732   1.0791   1.1015   1.1074
  1.1173   1.1331   1.1474   1.1580   1.1610   1.1663   1.1777   1.1843
  1.1895   1.1983   1.2064   1.2137   1.2196   1.2275   1.2364   1.2480
  1.2559   1.2664   1.2749   1.2860   1.2886   1.3054   1.3141   1.3279
  1.3329   1.3463   1.3549   1.3652   1.3711   1.3784   1.3979   1.4022
  1.4154   1.4385   1.4504   1.4655   1.4763   1.4944   1.5039   1.5061
  1.5195   1.5282   1.5469   1.5508   1.5525   1.5629   1.5856   1.5909
  1.6051   1.6173   1.6252   1.6347   1.6729   1.6866   1.7062   1.7108
  1.7307   1.7411   1.7471   1.7648   1.7809   1.7994   1.8297   1.8468
  1.8638   1.8843   1.8862   1.9024   1.9320   1.9529   1.9553   1.9645
  1.9885   2.0067   2.0498   2.0687   2.0874   2.1291   2.1753   2.1880
  2.2225   2.2402   2.2534   2.2865   2.3078   2.3239   2.3481   2.3606
  2.3929   2.4005   2.4115   2.4179   2.4258   2.4489   2.4642   2.5097
  2.5366   2.5411   2.6014   2.6629   2.6778   2.7086   2.7333   2.7716
  2.8035   2.8270   2.8328   2.8404   2.8562   2.8822   2.9120   2.9257
  2.9465   2.9557   2.9674   3.0467   3.0492   3.0752   3.0912   3.0975
  3.1178   3.1473   3.1805   3.1849   3.2211   3.2501   3.2690   3.2868
  3.3144   3.3364   3.3531   3.3869   3.3954   3.4122   3.4169   3.4401
  3.4505   3.4694   3.4902   3.5151   3.5324   3.5468   3.5830   3.5943
  3.6055   3.6315   3.6554   3.6687   3.6760   3.6839   3.6963   3.7198
  3.7356   3.7577   3.7676   3.7776   3.7938   3.8014   3.8109   3.8289
  3.8419   3.8625   3.8630   3.8869   3.8969   3.9102   3.9250   3.9329
  3.9429   3.9698   3.9763   3.9960   4.0289   4.0580   4.0901   4.1074
  4.1127   4.1348   4.1695   4.1809   4.1910   4.2053   4.2315   4.2467
  4.2671   4.2741   4.2770   4.3071   4.3192   4.3357   4.3366   4.3693
  4.3973   4.4094   4.4625   4.4667   4.4837   4.5230   4.5304   4.5585
  4.5723   4.5867   4.6497   4.6790   4.6897   4.7260   4.7329   4.7908
  4.8297   4.8782   4.9433   4.9984   5.0397   5.0773   5.1806   5.1870
  5.2006   5.2129   5.2184   5.2395   5.2425   5.2666   5.2721   5.2802
  5.2876   5.3003   5.3147   5.3208   5.3318   5.3484   5.3497   5.3562
  5.3708   5.3983   5.4121   5.4249   5.4330   5.4601   5.4682   5.4900
  5.4982   5.5141   5.5421   5.5542   5.5652   5.5789   5.5967   5.6173
  5.6230   5.6306   5.6351   5.6492   5.6674   5.6773   5.6840   5.7044
  5.7222   5.7772   5.7962   5.8390   5.8503   5.8618   5.9100   6.0165
  6.0289   6.0574   6.0930   6.1251   6.1471   6.1667   6.2581   6.4265
  6.5265   6.5449   6.6385   6.7022   6.7550   6.7888   6.8581   6.9991
  7.0114   7.0358   7.0484   7.0497   7.0765   7.1207   7.1454   7.1690
  7.2007   7.2342   7.2603   7.2632   7.2686   7.2810   7.2902   7.3208
  7.3223   7.3449   7.3713   7.3814   7.3912   7.4045   7.4332   7.4758
  7.5328   7.5440   7.6088   7.6138   7.6599   7.6867   7.6960   7.7131
  7.7963   7.8008   7.8089   7.8572   7.8839   7.9014   7.9753   8.1762
 24.6379  24.7772  24.7876  24.8490  25.0417  50.5080  50.5762  50.5857
 50.6223  50.6308  50.6367  50.7564
 --------------------------------------------------------------
 
          Ground-State Mulliken Net Atomic Charges

     Atom                 Charge (a.u.)
  ----------------------------------------
      1 C                    -0.244562
      2 O                    -0.369309
      3 C                     0.502759
      4 O                    -0.419238
      5 C                    -0.575999
      6 C                    -0.061279
      7 O                    -0.099975
      8 O                    -0.314988
      9 C                    -0.273467
     10 O                    -0.411897
     11 O                    -0.463637
     12 H                     0.249987
     13 H                     0.345058
     14 H                     0.230463
     15 H                     0.294664
     16 H                     0.319713
     17 H                     0.356415
     18 H                     0.292211
     19 H                     0.336569
     20 H                     0.347461
     21 O                    -0.389493
     22 H                     0.348543
  ----------------------------------------
  Sum of atomic charges =     0.000000

 -----------------------------------------------------------------
                    Cartesian Multipole Moments
 -----------------------------------------------------------------
    Charge (ESU x 10^10)
                 0.0000
    Dipole Moment (Debye)
         X      -4.3993      Y      -1.8045      Z      -4.5696
       Tot       6.5948
    Quadrupole Moments (Debye-Ang)
        XX    -110.7712     XY       0.7109     YY     -60.0181
        XZ     -18.3529     YZ       2.7257     ZZ     -64.3200
    Octopole Moments (Debye-Ang^2)
       XXX   -1206.5422    XXY     -71.6273    XYY    -257.0130
       YYY    -218.3853    XXZ    -158.9897    XYZ     -25.3282
       YYZ     -53.5345    XZZ    -298.4995    YZZ     -78.3631
       ZZZ     -64.8325
    Hexadecapole Moments (Debye-Ang^3)
      XXXX  -10797.7225   XXXY   -1454.2220   XXYY   -1545.9429
      XYYY   -1169.5464   YYYY   -1472.9220   XXXZ   -1631.4674
      XXYZ    -374.2978   XYYZ    -347.4617   YYYZ    -306.7236
      XXZZ   -1687.2908   XYZZ    -424.5311   YYZZ    -370.1418
      XZZZ    -513.8922   YZZZ    -206.0085   ZZZZ    -793.8451
 -----------------------------------------------------------------
 Calculating analytic gradient of the SCF energy
 Gradient of CDS energy
            1           2           3           4           5           6
    1   0.0004238  -0.0012041  -0.0006150   0.0003022   0.0000855   0.0000839
    2   0.0000443   0.0015175  -0.0000370   0.0000375   0.0001150  -0.0000446
    3  -0.0022924   0.0000961   0.0016534  -0.0012938  -0.0000728  -0.0000458
            7           8           9          10          11          12
    1  -0.0000003   0.0001383   0.0006526   0.0009346  -0.0014525  -0.0000504
    2   0.0000934   0.0000212   0.0020064  -0.0014433  -0.0008748  -0.0000582
    3   0.0000511  -0.0003155   0.0009923   0.0008005  -0.0017759   0.0000535
           13          14          15          16          17          18
    1   0.0001476  -0.0000720   0.0001267  -0.0000205  -0.0000276   0.0000726
    2  -0.0004960   0.0001087  -0.0001430   0.0000478  -0.0001616  -0.0001576
    3  -0.0000858  -0.0000834  -0.0000465   0.0000532   0.0004853  -0.0000701
           19          20          21          22
    1  -0.0000465   0.0000638   0.0007066  -0.0002496
    2   0.0004302   0.0003309  -0.0014231   0.0000862
    3  -0.0002844   0.0003711   0.0022618  -0.0004519
 Gradient of SCF Energy
            1           2           3           4           5           6
    1   0.0153906   0.0122834  -0.0042932  -0.0008278  -0.0062099   0.0039041
    2   0.0114084   0.0156303  -0.0012833  -0.0007921  -0.0051714  -0.0047481
    3   0.0028624   0.0076118  -0.0049164   0.0010525   0.0042886  -0.0038214
            7           8           9          10          11          12
    1   0.0014052   0.0094107  -0.0040145  -0.0095657   0.0089328  -0.0106758
    2  -0.0028872   0.0030895   0.0040556  -0.0043511  -0.0032986  -0.0068394
    3  -0.0015728  -0.0011695   0.0046294   0.0057768  -0.0005746   0.0003559
           13          14          15          16          17          18
    1  -0.0111225  -0.0007433   0.0019905  -0.0011351  -0.0077015   0.0008876
    2  -0.0154720   0.0016523   0.0008334   0.0017841  -0.0019120  -0.0003110
    3  -0.0072978  -0.0016448  -0.0019575   0.0022295   0.0049984  -0.0058191
           19          20          21          22
    1   0.0075738  -0.0060811   0.0136229  -0.0130312
    2   0.0062515   0.0027328   0.0118638  -0.0122356
    3  -0.0070643   0.0027521   0.0102091  -0.0109283
 Max gradient component =       1.563E-02
 RMS gradient           =       6.967E-03
 Computing fast CPCM-SWIG gradient
 Updating gradient with PCM contributions...
 -- total gradient after adding PCM contribution --
---------------------------------------------------
  Atom         X              Y              Z     
---------------------------------------------------
   1       0.000015      -0.000008      -0.000012
   2      -0.000017      -0.000010       0.000052
   3      -0.000006       0.000013       0.000012
   4       0.000010       0.000004      -0.000002
   5      -0.000003       0.000001       0.000001
   6       0.000020      -0.000003       0.000019
   7      -0.000025       0.000000      -0.000011
   8       0.000009       0.000009      -0.000009
   9       0.000023       0.000004      -0.000002
  10      -0.000004      -0.000006       0.000009
  11      -0.000004       0.000011      -0.000018
  12      -0.000003       0.000006       0.000020
  13      -0.000002       0.000007      -0.000028
  14       0.000005       0.000001      -0.000006
  15      -0.000002      -0.000005       0.000004
  16      -0.000003      -0.000004      -0.000007
  17       0.000008       0.000003       0.000006
  18      -0.000004       0.000001      -0.000014
  19      -0.000001      -0.000008      -0.000006
  20       0.000013      -0.000017       0.000001
  21      -0.000029       0.000008      -0.000013
  22      -0.000001      -0.000005       0.000002
---------------------------------------------------
 Number of fixed atoms: 0
 Gradient time:  CPU 505.68 s  wall 42.78 s
 ######################################################
 ######################################################
 # Starting finite difference calculation for IDERIV  #
 Finite diff step size:  1.88973e-03 a.u.
 ----------------------------------------------------------------
             Standard Nuclear Orientation (Angstroms)
    I     Atom           X                Y                Z
 ----------------------------------------------------------------
    1      C       2.4311211961    -0.7823617346    -0.9646096491
    2      O       3.4470897200    -1.7444693278    -1.1283516768
    3      C       2.9370413024     0.1640318941     0.1210277831
    4      O       2.4601117369     0.1121244988     1.2343075541
    5      C       4.0401718010     1.1072572724    -0.2655890853
    6      C       4.7035914159     1.7488622003     0.9324724941
    7      O       5.4066166217     0.6931271476     1.5931411505
    8      O       5.4804395250     0.9774291959     2.9892893765
    9      C       5.6647576675     2.8591677573     0.5213136613
   10      O       4.8614149499     3.9075439135     0.0297152537
   11      O       6.4781150860     3.2852253438     1.5880230493
   12      H       1.5059617638    -1.2534377728    -0.6324137663
   13      H       3.0486791513    -2.5606975674    -1.4514422517
   14      H       3.6073850676     1.8731390072    -0.9112978248
   15      H       4.7715359905     0.5726672172    -0.8755795175
   16      H       3.9580375362     2.1552801008     1.6176943370
   17      H       4.6900862653     0.5281185805     3.3260354899
   18      H       6.3546937435     2.5079940771    -0.2469929405
   19      H       5.4285753976     4.5274198718    -0.4423700398
   20      H       5.9166838069     3.4558097409     2.3550505409
   21      O       2.2215580077    -0.0250216584    -2.1300182767
   22      H       1.6404765470    -0.5219130580    -2.7174183616
 ----------------------------------------------------------------
 Nuclear Repulsion Energy =         788.74786122 hartrees
 There are       48 alpha and       48 beta electrons
 Discretize the solute cavity surface with Lebedev spheres
	Using 110 Lebedev grid points for each H atom
	Using 194 Lebedev grid points for other atoms
	Atomic van der Waals radii will be scaled by 1.20
 Remove points where switching function is < 1.0e-08
 Keep 1735 surface tesserae and discard 1693 interior tesserae
 Molecular Surface Area = 192.999 Angst**2
 Requested basis set is 6-311++G(2df,2p)
 There are 156 shells and 508 basis functions
 A cutoff of  1.0D-12 yielded  10029 shell pairs
 There are    104485 function pairs (    129148 Cartesian)
 Smallest overlap matrix eigenvalue = 3.81E-06
 Guess MOs from SCF MO coefficient file

 -----------------------------------------------------------------------
  General SCF calculation program by
  Eric Jon Sundstrom, Paul Horn, Yuezhi Mao, Dmitri Zuev, Alec White,
  David Stuck, Shaama M.S., Shane Yost, Joonho Lee, David Small,
  Daniel Levine, Susi Lehtola, Hugh Burton, Evgeny Epifanovsky,
  Bang C. Huynh
 -----------------------------------------------------------------------
 Exchange:     0.1500 Hartree-Fock + 1.0000 wB97M-V + LR-HF
 Correlation:  1.0000 wB97M-V
 Using SG-2 standard quadrature grid
 Nonlocal Correlation:  VV10 with C = 0.0100 and b = 6.00 and scale = 1.00000
 Grid used for NLC:  SG-1 standard quadrature
 
 Citation of the SMD model:
 Marenich, A.V.; Cramer, C.J.; Truhlar, D.G.
 J. Phys. Chem. B 2009, 113, 6378-6396.
 iSolventCode=           1
 Solvent: water                                                           
 
 vradii
            1           2           3           4           5           6
    1   1.8500000   1.5200000   1.8500000   1.5200000   1.8500000   1.8500000
            7           8           9          10          11          12
    1   1.5200000   1.5200000   1.8500000   1.5200000   1.5200000   1.2000000
           13          14          15          16          17          18
    1   1.2000000   1.2000000   1.2000000   1.2000000   1.2000000   1.2000000
           19          20          21          22
    1   1.2000000   1.2000000   1.5200000   1.2000000
 -------------------------------------------------------
 OpenMP BLAS3 based DFT computing Module                
 Release: version 1.0, May 2013, Q-Chem Inc. Pittsburgh 
 -------------------------------------------------------
 A restricted SCF calculation will be
 performed using Roothaan-Hall, DIIS, GDM
 SCF converges when RMS gradient is below 1.0e-07
 ---------------------------------------
  Cycle       Energy         DIIS error
 ---------------------------------------
    1    -723.0279879114      4.25e-04  Roothaan Step
 ---------------------------------------
  Cycle       Energy         DIIS error
 ---------------------------------------
    1    -723.0812928338      4.63e-04  
    2    -723.0886879732      3.58e-04  Done DIIS. Switching to GDM
 ---------------------------------------
  Cycle       Energy        RMS Gradient
 ---------------------------------------
    1    -723.0886879732      9.41e-03   Normal BFGS step
    2    -723.0885549428      1.45e-02  Line search: overstep
    3    -723.0912948541      2.15e-03   Normal BFGS step
    4    -723.0914998971      5.63e-04   Normal BFGS step
    5    -723.0915310012      5.94e-04   Normal BFGS step
    6    -723.0915402995      7.53e-05   Normal BFGS step
    7    -723.0915408888      2.68e-05   Normal BFGS step
    8    -723.0915409973      1.22e-05   Normal BFGS step
    9    -723.0915410053      5.58e-06   Normal BFGS step
   10    -723.0915410078      1.12e-06   Normal BFGS step
   11    -723.0915410080      6.93e-07   Normal BFGS step
   12    -723.0915410080      2.57e-07   Normal BFGS step
   13    -723.0915410081      1.32e-07   Normal BFGS step
   14    -723.0915410080      8.33e-08  Convergence criterion met
 ---------------------------------------
 SCF time:   CPU 2612.56s  wall 183.00s 
(3)  G-ENP(liq) elect-nuc-pol free energy of system     -723.091541008 a.u.
(4)  G-CDS(liq) cavity-dispersion-solvent structure 
     free energy                                                4.9679 kcal/mol
(6)  G-S(liq) free energy of system                     -723.083624153 a.u.
 SCF   energy in the final basis set =     -723.0836241531
 Total energy in the final basis set =     -723.0836241531
 
 --------------------------------------------------------------
 
                    Orbital Energies (a.u.)
 --------------------------------------------------------------
 
 Alpha MOs
 -- Occupied --
-19.4028 -19.3951 -19.3531 -19.3520 -19.3482 -19.3463 -19.3443 -10.4540
-10.4517 -10.4453 -10.4038 -10.3537  -1.2706  -1.2148  -1.2013  -1.1925
 -1.1434  -1.1351  -1.0537  -0.9138  -0.8539  -0.8094  -0.7395  -0.6848
 -0.6680  -0.6587  -0.6552  -0.6417  -0.6328  -0.5962  -0.5841  -0.5676
 -0.5525  -0.5445  -0.5438  -0.5320  -0.5138  -0.4962  -0.4775  -0.4637
 -0.4551  -0.4332  -0.4254  -0.4185  -0.4167  -0.4071  -0.3901  -0.3722
 -- Virtual --
  0.0250   0.0328   0.0366   0.0438   0.0459   0.0573   0.0594   0.0654
  0.0678   0.0835   0.0924   0.0979   0.1092   0.1170   0.1280   0.1319
  0.1371   0.1430   0.1461   0.1502   0.1537   0.1599   0.1642   0.1653
  0.1741   0.1853   0.1885   0.1955   0.2069   0.2101   0.2150   0.2233
  0.2339   0.2382   0.2484   0.2559   0.2603   0.2648   0.2703   0.2737
  0.2797   0.2864   0.2910   0.2955   0.3012   0.3056   0.3144   0.3245
  0.3298   0.3324   0.3384   0.3419   0.3482   0.3514   0.3525   0.3618
  0.3650   0.3684   0.3724   0.3803   0.3831   0.3865   0.3941   0.3960
  0.4082   0.4119   0.4243   0.4330   0.4350   0.4423   0.4457   0.4544
  0.4566   0.4605   0.4705   0.4792   0.4918   0.4986   0.5311   0.5559
  0.5678   0.5855   0.5888   0.6009   0.6079   0.6213   0.6314   0.6413
  0.6458   0.6521   0.6633   0.6673   0.6801   0.6859   0.7025   0.7056
  0.7137   0.7276   0.7315   0.7370   0.7423   0.7530   0.7682   0.7818
  0.7871   0.7927   0.8172   0.8245   0.8453   0.8631   0.8733   0.8948
  0.9121   0.9216   0.9450   0.9600   0.9677   0.9755   0.9911   1.0033
  1.0210   1.0420   1.0485   1.0684   1.0732   1.0791   1.1015   1.1073
  1.1173   1.1331   1.1473   1.1580   1.1610   1.1663   1.1778   1.1842
  1.1895   1.1983   1.2064   1.2137   1.2197   1.2275   1.2363   1.2480
  1.2559   1.2664   1.2750   1.2859   1.2886   1.3054   1.3141   1.3279
  1.3329   1.3463   1.3548   1.3652   1.3711   1.3783   1.3979   1.4022
  1.4154   1.4385   1.4504   1.4656   1.4764   1.4944   1.5040   1.5060
  1.5195   1.5282   1.5469   1.5509   1.5525   1.5630   1.5853   1.5907
  1.6050   1.6173   1.6251   1.6347   1.6729   1.6866   1.7062   1.7109
  1.7307   1.7411   1.7471   1.7648   1.7809   1.7994   1.8297   1.8468
  1.8637   1.8843   1.8863   1.9024   1.9320   1.9528   1.9555   1.9646
  1.9885   2.0067   2.0499   2.0688   2.0874   2.1291   2.1753   2.1880
  2.2226   2.2403   2.2534   2.2866   2.3079   2.3238   2.3481   2.3606
  2.3929   2.4005   2.4115   2.4180   2.4258   2.4489   2.4642   2.5098
  2.5367   2.5412   2.6014   2.6632   2.6778   2.7087   2.7336   2.7716
  2.8035   2.8269   2.8328   2.8404   2.8562   2.8822   2.9121   2.9258
  2.9466   2.9557   2.9674   3.0468   3.0491   3.0752   3.0912   3.0977
  3.1179   3.1473   3.1805   3.1849   3.2213   3.2500   3.2690   3.2867
  3.3144   3.3365   3.3531   3.3870   3.3955   3.4124   3.4169   3.4401
  3.4505   3.4694   3.4901   3.5152   3.5323   3.5468   3.5829   3.5943
  3.6055   3.6316   3.6554   3.6687   3.6760   3.6837   3.6963   3.7200
  3.7355   3.7577   3.7676   3.7777   3.7938   3.8014   3.8110   3.8289
  3.8419   3.8625   3.8632   3.8868   3.8969   3.9103   3.9250   3.9329
  3.9430   3.9700   3.9762   3.9960   4.0286   4.0580   4.0901   4.1074
  4.1127   4.1348   4.1696   4.1811   4.1910   4.2053   4.2316   4.2468
  4.2671   4.2742   4.2771   4.3071   4.3192   4.3357   4.3368   4.3694
  4.3973   4.4094   4.4624   4.4661   4.4836   4.5229   4.5301   4.5584
  4.5723   4.5867   4.6495   4.6792   4.6898   4.7259   4.7328   4.7908
  4.8297   4.8782   4.9433   4.9983   5.0397   5.0773   5.1805   5.1870
  5.2005   5.2129   5.2184   5.2394   5.2424   5.2666   5.2722   5.2801
  5.2875   5.3003   5.3147   5.3208   5.3318   5.3484   5.3496   5.3561
  5.3708   5.3981   5.4122   5.4249   5.4331   5.4602   5.4681   5.4900
  5.4982   5.5141   5.5421   5.5541   5.5652   5.5788   5.5967   5.6172
  5.6229   5.6306   5.6351   5.6492   5.6676   5.6773   5.6837   5.7044
  5.7222   5.7773   5.7961   5.8389   5.8503   5.8618   5.9100   6.0169
  6.0289   6.0586   6.0930   6.1251   6.1471   6.1678   6.2581   6.4265
  6.5265   6.5450   6.6385   6.7032   6.7550   6.7890   6.8581   6.9991
  7.0114   7.0358   7.0484   7.0497   7.0765   7.1207   7.1455   7.1690
  7.2008   7.2342   7.2602   7.2632   7.2686   7.2811   7.2902   7.3208
  7.3223   7.3449   7.3714   7.3814   7.3912   7.4045   7.4333   7.4758
  7.5328   7.5440   7.6089   7.6138   7.6599   7.6871   7.6961   7.7132
  7.7963   7.8008   7.8090   7.8572   7.8839   7.9014   7.9753   8.1762
 24.6378  24.7773  24.7877  24.8491  25.0419  50.5080  50.5762  50.5857
 50.6223  50.6308  50.6367  50.7564
 --------------------------------------------------------------
 
          Ground-State Mulliken Net Atomic Charges

     Atom                 Charge (a.u.)
  ----------------------------------------
      1 C                    -0.244999
      2 O                    -0.368913
      3 C                     0.503080
      4 O                    -0.419236
      5 C                    -0.575939
      6 C                    -0.061219
      7 O                    -0.099971
      8 O                    -0.314990
      9 C                    -0.273420
     10 O                    -0.411894
     11 O                    -0.463640
     12 H                     0.249635
     13 H                     0.345133
     14 H                     0.230479
     15 H                     0.294679
     16 H                     0.319713
     17 H                     0.356415
     18 H                     0.292205
     19 H                     0.336568
     20 H                     0.347459
     21 O                    -0.389726
     22 H                     0.348582
  ----------------------------------------
  Sum of atomic charges =     0.000000

 -----------------------------------------------------------------
                    Cartesian Multipole Moments
 -----------------------------------------------------------------
    Charge (ESU x 10^10)
                 0.0000
    Dipole Moment (Debye)
         X      -4.3948      Y      -1.8074      Z      -4.5690
       Tot       6.5922
    Quadrupole Moments (Debye-Ang)
        XX    -110.7505     XY       0.6962     YY     -60.0134
        XZ     -18.3559     YZ       2.7301     ZZ     -64.3219
    Octopole Moments (Debye-Ang^2)
       XXX   -1206.4810    XXY     -71.6860    XYY    -256.9970
       YYY    -218.4080    XXZ    -159.0095    XYZ     -25.3120
       YYZ     -53.5431    XZZ    -298.5032    YZZ     -78.3724
       ZZZ     -64.8212
    Hexadecapole Moments (Debye-Ang^3)
      XXXX  -10797.6227   XXXY   -1454.4429   XXYY   -1545.8987
      XYYY   -1169.6281   YYYY   -1472.8767   XXXZ   -1631.5470
      XXYZ    -374.2452   XYYZ    -347.4913   YYYZ    -306.6986
      XXZZ   -1687.2988   XYZZ    -424.5634   YYZZ    -370.1307
      XZZZ    -513.8586   YZZZ    -205.9897   ZZZZ    -793.8801
 -----------------------------------------------------------------
 Calculating analytic gradient of the SCF energy
 Gradient of CDS energy
            1           2           3           4           5           6
    1   0.0005516  -0.0013261  -0.0006154   0.0003021   0.0000855   0.0000839
    2  -0.0000893   0.0016341  -0.0000369   0.0000375   0.0001150  -0.0000446
    3  -0.0022860   0.0001159   0.0016530  -0.0012939  -0.0000728  -0.0000458
            7           8           9          10          11          12
    1  -0.0000003   0.0001383   0.0006526   0.0009346  -0.0014525  -0.0000517
    2   0.0000934   0.0000212   0.0020064  -0.0014433  -0.0008748  -0.0000587
    3   0.0000511  -0.0003155   0.0009923   0.0008005  -0.0017759   0.0000535
           13          14          15          16          17          18
    1   0.0001471  -0.0000720   0.0001267  -0.0000205  -0.0000276   0.0000726
    2  -0.0004957   0.0001087  -0.0001428   0.0000478  -0.0001616  -0.0001576
    3  -0.0000858  -0.0000834  -0.0000464   0.0000532   0.0004853  -0.0000701
           19          20          21          22
    1  -0.0000465   0.0000638   0.0007037  -0.0002500
    2   0.0004302   0.0003309  -0.0014059   0.0000861
    3  -0.0002844   0.0003711   0.0022358  -0.0004517
 Gradient of SCF Energy
            1           2           3           4           5           6
    1   0.0166080   0.0118313  -0.0044937  -0.0007996  -0.0062178   0.0039012
    2   0.0115163   0.0159027  -0.0013768  -0.0007788  -0.0052001  -0.0047549
    3   0.0027939   0.0076805  -0.0049634   0.0010916   0.0042653  -0.0038185
            7           8           9          10          11          12
    1   0.0014065   0.0094124  -0.0040146  -0.0095663   0.0089313  -0.0111155
    2  -0.0028847   0.0030904   0.0040559  -0.0043512  -0.0032994  -0.0070309
    3  -0.0015711  -0.0011714   0.0046274   0.0057762  -0.0005751   0.0004556
           13          14          15          16          17          18
    1  -0.0111049  -0.0007440   0.0019959  -0.0011349  -0.0077038   0.0008882
    2  -0.0155077   0.0016485   0.0008306   0.0017839  -0.0019139  -0.0003119
    3  -0.0073040  -0.0016420  -0.0019613   0.0022306   0.0049980  -0.0058196
           19          20          21          22
    1   0.0075740  -0.0060810   0.0134587  -0.0130313
    2   0.0062511   0.0027326   0.0118024  -0.0122042
    3  -0.0070639   0.0027525   0.0101919  -0.0109731
 Max gradient component =       1.661E-02
 RMS gradient           =       7.021E-03
 Computing fast CPCM-SWIG gradient
 Updating gradient with PCM contributions...
 -- total gradient after adding PCM contribution --
---------------------------------------------------
  Atom         X              Y              Z     
---------------------------------------------------
   1       0.001234       0.000113      -0.000087
   2      -0.000452       0.000249       0.000118
   3      -0.000221      -0.000082      -0.000039
   4       0.000043       0.000017       0.000040
   5      -0.000002      -0.000039      -0.000031
   6       0.000016      -0.000010       0.000025
   7      -0.000024       0.000001      -0.000011
   8       0.000009       0.000009      -0.000009
   9       0.000023       0.000005      -0.000005
  10      -0.000004      -0.000007       0.000009
  11      -0.000006       0.000010      -0.000018
  12      -0.000459      -0.000199       0.000132
  13       0.000013      -0.000014      -0.000029
  14       0.000003      -0.000002      -0.000005
  15      -0.000001      -0.000002       0.000004
  16      -0.000003      -0.000004      -0.000006
  17       0.000008       0.000003       0.000006
  18      -0.000004       0.000001      -0.000014
  19      -0.000001      -0.000008      -0.000006
  20       0.000013      -0.000016       0.000001
  21      -0.000178      -0.000050      -0.000029
  22      -0.000009       0.000026      -0.000046
---------------------------------------------------
 Number of fixed atoms: 0
 Gradient time:  CPU 512.96 s  wall 42.67 s
 ----------------------------------------------------------------
             Standard Nuclear Orientation (Angstroms)
    I     Atom           X                Y                Z
 ----------------------------------------------------------------
    1      C       2.4291211961    -0.7823617346    -0.9646096491
    2      O       3.4470897200    -1.7444693278    -1.1283516768
    3      C       2.9370413024     0.1640318941     0.1210277831
    4      O       2.4601117369     0.1121244988     1.2343075541
    5      C       4.0401718010     1.1072572724    -0.2655890853
    6      C       4.7035914159     1.7488622003     0.9324724941
    7      O       5.4066166217     0.6931271476     1.5931411505
    8      O       5.4804395250     0.9774291959     2.9892893765
    9      C       5.6647576675     2.8591677573     0.5213136613
   10      O       4.8614149499     3.9075439135     0.0297152537
   11      O       6.4781150860     3.2852253438     1.5880230493
   12      H       1.5059617638    -1.2534377728    -0.6324137663
   13      H       3.0486791513    -2.5606975674    -1.4514422517
   14      H       3.6073850676     1.8731390072    -0.9112978248
   15      H       4.7715359905     0.5726672172    -0.8755795175
   16      H       3.9580375362     2.1552801008     1.6176943370
   17      H       4.6900862653     0.5281185805     3.3260354899
   18      H       6.3546937435     2.5079940771    -0.2469929405
   19      H       5.4285753976     4.5274198718    -0.4423700398
   20      H       5.9166838069     3.4558097409     2.3550505409
   21      O       2.2215580077    -0.0250216584    -2.1300182767
   22      H       1.6404765470    -0.5219130580    -2.7174183616
 ----------------------------------------------------------------
 Nuclear Repulsion Energy =         788.72004127 hartrees
 There are       48 alpha and       48 beta electrons
 Discretize the solute cavity surface with Lebedev spheres
	Using 110 Lebedev grid points for each H atom
	Using 194 Lebedev grid points for other atoms
	Atomic van der Waals radii will be scaled by 1.20
 Remove points where switching function is < 1.0e-08
 Keep 1735 surface tesserae and discard 1693 interior tesserae
 Molecular Surface Area = 193.006 Angst**2
 Requested basis set is 6-311++G(2df,2p)
 There are 156 shells and 508 basis functions
 A cutoff of  1.0D-12 yielded  10029 shell pairs
 There are    104485 function pairs (    129148 Cartesian)
 Smallest overlap matrix eigenvalue = 3.81E-06
 Guess MOs from SCF MO coefficient file

 -----------------------------------------------------------------------
  General SCF calculation program by
  Eric Jon Sundstrom, Paul Horn, Yuezhi Mao, Dmitri Zuev, Alec White,
  David Stuck, Shaama M.S., Shane Yost, Joonho Lee, David Small,
  Daniel Levine, Susi Lehtola, Hugh Burton, Evgeny Epifanovsky,
  Bang C. Huynh
 -----------------------------------------------------------------------
 Exchange:     0.1500 Hartree-Fock + 1.0000 wB97M-V + LR-HF
 Correlation:  1.0000 wB97M-V
 Using SG-2 standard quadrature grid
 Nonlocal Correlation:  VV10 with C = 0.0100 and b = 6.00 and scale = 1.00000
 Grid used for NLC:  SG-1 standard quadrature
 
 Citation of the SMD model:
 Marenich, A.V.; Cramer, C.J.; Truhlar, D.G.
 J. Phys. Chem. B 2009, 113, 6378-6396.
 iSolventCode=           1
 Solvent: water                                                           
 
 vradii
            1           2           3           4           5           6
    1   1.8500000   1.5200000   1.8500000   1.5200000   1.8500000   1.8500000
            7           8           9          10          11          12
    1   1.5200000   1.5200000   1.8500000   1.5200000   1.5200000   1.2000000
           13          14          15          16          17          18
    1   1.2000000   1.2000000   1.2000000   1.2000000   1.2000000   1.2000000
           19          20          21          22
    1   1.2000000   1.2000000   1.5200000   1.2000000
 -------------------------------------------------------
 OpenMP BLAS3 based DFT computing Module                
 Release: version 1.0, May 2013, Q-Chem Inc. Pittsburgh 
 -------------------------------------------------------
 A restricted SCF calculation will be
 performed using Roothaan-Hall, DIIS, GDM
 SCF converges when RMS gradient is below 1.0e-07
 ---------------------------------------
  Cycle       Energy         DIIS error
 ---------------------------------------
    1    -723.0279798203      4.25e-04  Roothaan Step
 ---------------------------------------
  Cycle       Energy         DIIS error
 ---------------------------------------
    1    -723.0812693085      4.64e-04  
    2    -723.0886721990      3.59e-04  Done DIIS. Switching to GDM
 ---------------------------------------
  Cycle       Energy        RMS Gradient
 ---------------------------------------
    1    -723.0886721990      9.41e-03   Normal BFGS step
    2    -723.0885366368      1.45e-02  Line search: overstep
    3    -723.0912927648      2.15e-03   Normal BFGS step
    4    -723.0914982694      5.64e-04   Normal BFGS step
    5    -723.0915294229      6.01e-04   Normal BFGS step
    6    -723.0915387522      7.63e-05   Normal BFGS step
    7    -723.0915393433      2.66e-05   Normal BFGS step
    8    -723.0915394524      1.20e-05   Normal BFGS step
    9    -723.0915394605      5.52e-06   Normal BFGS step
   10    -723.0915394630      1.13e-06   Normal BFGS step
   11    -723.0915394632      6.97e-07   Normal BFGS step
   12    -723.0915394632      1.71e-07   Normal BFGS step
   13    -723.0915394632      7.32e-08  Convergence criterion met
 ---------------------------------------
 SCF time:   CPU 2488.68s  wall 174.00s 
(3)  G-ENP(liq) elect-nuc-pol free energy of system     -723.091539463 a.u.
(4)  G-CDS(liq) cavity-dispersion-solvent structure 
     free energy                                                4.9669 kcal/mol
(6)  G-S(liq) free energy of system                     -723.083624210 a.u.
 SCF   energy in the final basis set =     -723.0836242105
 Total energy in the final basis set =     -723.0836242105
 
 --------------------------------------------------------------
 
                    Orbital Energies (a.u.)
 --------------------------------------------------------------
 
 Alpha MOs
 -- Occupied --
-19.4029 -19.3951 -19.3529 -19.3521 -19.3482 -19.3463 -19.3443 -10.4539
-10.4517 -10.4453 -10.4038 -10.3537  -1.2706  -1.2147  -1.2013  -1.1924
 -1.1433  -1.1351  -1.0537  -0.9137  -0.8538  -0.8094  -0.7395  -0.6848
 -0.6680  -0.6585  -0.6552  -0.6417  -0.6328  -0.5962  -0.5841  -0.5675
 -0.5525  -0.5444  -0.5438  -0.5320  -0.5138  -0.4962  -0.4775  -0.4637
 -0.4551  -0.4332  -0.4257  -0.4184  -0.4167  -0.4071  -0.3901  -0.3722
 -- Virtual --
  0.0250   0.0328   0.0366   0.0438   0.0459   0.0573   0.0594   0.0654
  0.0678   0.0835   0.0924   0.0979   0.1092   0.1169   0.1280   0.1319
  0.1370   0.1430   0.1461   0.1502   0.1538   0.1599   0.1642   0.1654
  0.1741   0.1853   0.1885   0.1955   0.2069   0.2101   0.2151   0.2233
  0.2338   0.2382   0.2483   0.2559   0.2602   0.2649   0.2704   0.2736
  0.2797   0.2865   0.2909   0.2955   0.3010   0.3056   0.3144   0.3244
  0.3298   0.3323   0.3384   0.3417   0.3482   0.3513   0.3525   0.3618
  0.3650   0.3683   0.3724   0.3803   0.3831   0.3866   0.3940   0.3960
  0.4083   0.4119   0.4243   0.4329   0.4351   0.4423   0.4457   0.4543
  0.4566   0.4605   0.4704   0.4791   0.4918   0.4986   0.5311   0.5557
  0.5677   0.5855   0.5888   0.6009   0.6080   0.6214   0.6314   0.6413
  0.6458   0.6521   0.6633   0.6674   0.6802   0.6859   0.7026   0.7056
  0.7138   0.7276   0.7315   0.7370   0.7423   0.7529   0.7682   0.7818
  0.7871   0.7927   0.8173   0.8245   0.8453   0.8631   0.8733   0.8948
  0.9121   0.9216   0.9450   0.9599   0.9676   0.9756   0.9910   1.0032
  1.0210   1.0420   1.0485   1.0684   1.0732   1.0791   1.1015   1.1074
  1.1173   1.1331   1.1474   1.1580   1.1610   1.1663   1.1777   1.1843
  1.1895   1.1983   1.2064   1.2137   1.2196   1.2275   1.2364   1.2480
  1.2559   1.2664   1.2749   1.2860   1.2886   1.3054   1.3141   1.3280
  1.3329   1.3463   1.3550   1.3652   1.3711   1.3784   1.3979   1.4022
  1.4154   1.4385   1.4504   1.4655   1.4762   1.4944   1.5039   1.5061
  1.5195   1.5282   1.5468   1.5508   1.5525   1.5629   1.5858   1.5910
  1.6052   1.6173   1.6252   1.6346   1.6729   1.6866   1.7062   1.7108
  1.7308   1.7412   1.7471   1.7648   1.7809   1.7995   1.8297   1.8468
  1.8638   1.8843   1.8862   1.9025   1.9319   1.9530   1.9552   1.9644
  1.9885   2.0067   2.0497   2.0686   2.0873   2.1291   2.1753   2.1879
  2.2225   2.2400   2.2534   2.2864   2.3078   2.3239   2.3481   2.3607
  2.3928   2.4005   2.4114   2.4178   2.4258   2.4488   2.4642   2.5096
  2.5364   2.5410   2.6013   2.6626   2.6778   2.7085   2.7330   2.7716
  2.8035   2.8271   2.8328   2.8404   2.8561   2.8822   2.9119   2.9257
  2.9463   2.9556   2.9675   3.0466   3.0492   3.0751   3.0912   3.0973
  3.1177   3.1473   3.1805   3.1849   3.2210   3.2502   3.2690   3.2869
  3.3143   3.3363   3.3531   3.3867   3.3953   3.4120   3.4168   3.4400
  3.4504   3.4694   3.4902   3.5149   3.5325   3.5468   3.5830   3.5944
  3.6055   3.6313   3.6555   3.6687   3.6760   3.6840   3.6964   3.7197
  3.7357   3.7577   3.7677   3.7776   3.7939   3.8014   3.8108   3.8288
  3.8419   3.8624   3.8629   3.8870   3.8968   3.9102   3.9250   3.9329
  3.9428   3.9697   3.9763   3.9960   4.0292   4.0581   4.0901   4.1074
  4.1126   4.1348   4.1694   4.1807   4.1910   4.2054   4.2314   4.2467
  4.2672   4.2740   4.2770   4.3072   4.3193   4.3357   4.3364   4.3693
  4.3973   4.4093   4.4626   4.4674   4.4838   4.5232   4.5307   4.5585
  4.5723   4.5867   4.6498   4.6788   4.6897   4.7261   4.7329   4.7908
  4.8297   4.8782   4.9433   4.9984   5.0397   5.0773   5.1806   5.1870
  5.2007   5.2129   5.2183   5.2395   5.2426   5.2666   5.2721   5.2803
  5.2877   5.3003   5.3148   5.3208   5.3318   5.3484   5.3498   5.3563
  5.3708   5.3984   5.4121   5.4249   5.4330   5.4601   5.4684   5.4900
  5.4982   5.5141   5.5421   5.5542   5.5653   5.5789   5.5968   5.6173
  5.6230   5.6306   5.6351   5.6491   5.6671   5.6773   5.6844   5.7044
  5.7222   5.7772   5.7962   5.8391   5.8503   5.8617   5.9100   6.0160
  6.0289   6.0562   6.0930   6.1251   6.1471   6.1656   6.2581   6.4265
  6.5265   6.5448   6.6385   6.7012   6.7549   6.7885   6.8581   6.9991
  7.0114   7.0358   7.0485   7.0497   7.0765   7.1207   7.1453   7.1690
  7.2007   7.2342   7.2603   7.2632   7.2686   7.2810   7.2902   7.3208
  7.3223   7.3449   7.3713   7.3814   7.3911   7.4045   7.4332   7.4758
  7.5327   7.5440   7.6087   7.6138   7.6599   7.6864   7.6959   7.7130
  7.7963   7.8008   7.8087   7.8572   7.8839   7.9014   7.9753   8.1762
 24.6379  24.7772  24.7875  24.8490  25.0414  50.5080  50.5761  50.5857
 50.6223  50.6307  50.6366  50.7564
 --------------------------------------------------------------
 
          Ground-State Mulliken Net Atomic Charges

     Atom                 Charge (a.u.)
  ----------------------------------------
      1 C                    -0.244126
      2 O                    -0.369705
      3 C                     0.502437
      4 O                    -0.419240
      5 C                    -0.576058
      6 C                    -0.061339
      7 O                    -0.099980
      8 O                    -0.314985
      9 C                    -0.273514
     10 O                    -0.411900
     11 O                    -0.463635
     12 H                     0.250339
     13 H                     0.344984
     14 H                     0.230448
     15 H                     0.294650
     16 H                     0.319713
     17 H                     0.356415
     18 H                     0.292218
     19 H                     0.336570
     20 H                     0.347463
     21 O                    -0.389260
     22 H                     0.348505
  ----------------------------------------
  Sum of atomic charges =     0.000000

 -----------------------------------------------------------------
                    Cartesian Multipole Moments
 -----------------------------------------------------------------
    Charge (ESU x 10^10)
                -0.0000
    Dipole Moment (Debye)
         X      -4.4038      Y      -1.8015      Z      -4.5702
       Tot       6.5974
    Quadrupole Moments (Debye-Ang)
        XX    -110.7919     XY       0.7256     YY     -60.0229
        XZ     -18.3500     YZ       2.7212     ZZ     -64.3182
    Octopole Moments (Debye-Ang^2)
       XXX   -1206.6031    XXY     -71.5686    XYY    -257.0290
       YYY    -218.3627    XXZ    -158.9699    XYZ     -25.3443
       YYZ     -53.5258    XZZ    -298.4958    YZZ     -78.3539
       ZZZ     -64.8438
    Hexadecapole Moments (Debye-Ang^3)
      XXXX  -10797.8214   XXXY   -1454.0012   XXYY   -1545.9872
      XYYY   -1169.4648   YYYY   -1472.9673   XXXZ   -1631.3879
      XXYZ    -374.3502   XYYZ    -347.4320   YYYZ    -306.7486
      XXZZ   -1687.2827   XYZZ    -424.4988   YYZZ    -370.1529
      XZZZ    -513.9258   YZZZ    -206.0272   ZZZZ    -793.8101
 -----------------------------------------------------------------
 Calculating analytic gradient of the SCF energy
 Gradient of CDS energy
            1           2           3           4           5           6
    1   0.0002967  -0.0010826  -0.0006146   0.0003024   0.0000855   0.0000839
    2   0.0001771   0.0014017  -0.0000370   0.0000375   0.0001150  -0.0000446
    3  -0.0022986   0.0000764   0.0016538  -0.0012937  -0.0000728  -0.0000458
            7           8           9          10          11          12
    1  -0.0000003   0.0001383   0.0006526   0.0009346  -0.0014525  -0.0000490
    2   0.0000934   0.0000212   0.0020064  -0.0014433  -0.0008748  -0.0000577
    3   0.0000511  -0.0003155   0.0009923   0.0008005  -0.0017759   0.0000536
           13          14          15          16          17          18
    1   0.0001481  -0.0000719   0.0001268  -0.0000205  -0.0000276   0.0000726
    2  -0.0004962   0.0001087  -0.0001431   0.0000478  -0.0001616  -0.0001576
    3  -0.0000858  -0.0000833  -0.0000465   0.0000532   0.0004853  -0.0000701
           19          20          21          22
    1  -0.0000465   0.0000638   0.0007093  -0.0002492
    2   0.0004302   0.0003309  -0.0014401   0.0000863
    3  -0.0002844   0.0003711   0.0022875  -0.0004521
 Gradient of SCF Energy
            1           2           3           4           5           6
    1   0.0141725   0.0127340  -0.0040926  -0.0008561  -0.0062020   0.0039070
    2   0.0112970   0.0153599  -0.0011898  -0.0008055  -0.0051429  -0.0047414
    3   0.0029319   0.0075435  -0.0048696   0.0010135   0.0043119  -0.0038243
            7           8           9          10          11          12
    1   0.0014039   0.0094089  -0.0040144  -0.0095651   0.0089343  -0.0102339
    2  -0.0028898   0.0030886   0.0040553  -0.0043509  -0.0032978  -0.0066464
    3  -0.0015744  -0.0011677   0.0046313   0.0057773  -0.0005740   0.0002553
           13          14          15          16          17          18
    1  -0.0111402  -0.0007425   0.0019851  -0.0011352  -0.0076993   0.0008870
    2  -0.0154363   0.0016561   0.0008361   0.0017843  -0.0019101  -0.0003101
    3  -0.0072917  -0.0016477  -0.0019536   0.0022285   0.0049988  -0.0058187
           19          20          21          22
    1   0.0075737  -0.0060812   0.0137872  -0.0130311
    2   0.0062520   0.0027331   0.0119255  -0.0122670
    3  -0.0070646   0.0027518   0.0102259  -0.0108835
 Max gradient component =       1.544E-02
 RMS gradient           =       6.918E-03
 Computing fast CPCM-SWIG gradient
 Updating gradient with PCM contributions...
 -- total gradient after adding PCM contribution --
---------------------------------------------------
  Atom         X              Y              Z     
---------------------------------------------------
   1      -0.001204      -0.000132       0.000064
   2       0.000417      -0.000266      -0.000012
   3       0.000208       0.000108       0.000063
   4      -0.000023      -0.000010      -0.000044
   5      -0.000005       0.000040       0.000033
   6       0.000024       0.000004       0.000013
   7      -0.000025      -0.000000      -0.000012
   8       0.000009       0.000009      -0.000009
   9       0.000022       0.000003       0.000000
  10      -0.000004      -0.000006       0.000009
  11      -0.000003       0.000012      -0.000017
  12       0.000455       0.000211      -0.000093
  13      -0.000017       0.000027      -0.000027
  14       0.000008       0.000003      -0.000007
  15      -0.000003      -0.000009       0.000005
  16      -0.000004      -0.000004      -0.000007
  17       0.000008       0.000003       0.000006
  18      -0.000004       0.000001      -0.000014
  19      -0.000001      -0.000008      -0.000006
  20       0.000013      -0.000017       0.000000
  21       0.000120       0.000066       0.000004
  22       0.000007      -0.000036       0.000050
---------------------------------------------------
 Number of fixed atoms: 0
 Gradient time:  CPU 519.69 s  wall 43.83 s
 ----------------------------------------------------------------
             Standard Nuclear Orientation (Angstroms)
    I     Atom           X                Y                Z
 ----------------------------------------------------------------
    1      C       2.4301211961    -0.7813617346    -0.9646096491
    2      O       3.4470897200    -1.7444693278    -1.1283516768
    3      C       2.9370413024     0.1640318941     0.1210277831
    4      O       2.4601117369     0.1121244988     1.2343075541
    5      C       4.0401718010     1.1072572724    -0.2655890853
    6      C       4.7035914159     1.7488622003     0.9324724941
    7      O       5.4066166217     0.6931271476     1.5931411505
    8      O       5.4804395250     0.9774291959     2.9892893765
    9      C       5.6647576675     2.8591677573     0.5213136613
   10      O       4.8614149499     3.9075439135     0.0297152537
   11      O       6.4781150860     3.2852253438     1.5880230493
   12      H       1.5059617638    -1.2534377728    -0.6324137663
   13      H       3.0486791513    -2.5606975674    -1.4514422517
   14      H       3.6073850676     1.8731390072    -0.9112978248
   15      H       4.7715359905     0.5726672172    -0.8755795175
   16      H       3.9580375362     2.1552801008     1.6176943370
   17      H       4.6900862653     0.5281185805     3.3260354899
   18      H       6.3546937435     2.5079940771    -0.2469929405
   19      H       5.4285753976     4.5274198718    -0.4423700398
   20      H       5.9166838069     3.4558097409     2.3550505409
   21      O       2.2215580077    -0.0250216584    -2.1300182767
   22      H       1.6404765470    -0.5219130580    -2.7174183616
 ----------------------------------------------------------------
 Nuclear Repulsion Energy =         788.74346186 hartrees
 There are       48 alpha and       48 beta electrons
 Discretize the solute cavity surface with Lebedev spheres
	Using 110 Lebedev grid points for each H atom
	Using 194 Lebedev grid points for other atoms
	Atomic van der Waals radii will be scaled by 1.20
 Remove points where switching function is < 1.0e-08
 Keep 1736 surface tesserae and discard 1692 interior tesserae
 Molecular Surface Area = 193.002 Angst**2
 Requested basis set is 6-311++G(2df,2p)
 There are 156 shells and 508 basis functions
 A cutoff of  1.0D-12 yielded  10029 shell pairs
 There are    104485 function pairs (    129148 Cartesian)
 Smallest overlap matrix eigenvalue = 3.81E-06
 Guess MOs from SCF MO coefficient file

 -----------------------------------------------------------------------
  General SCF calculation program by
  Eric Jon Sundstrom, Paul Horn, Yuezhi Mao, Dmitri Zuev, Alec White,
  David Stuck, Shaama M.S., Shane Yost, Joonho Lee, David Small,
  Daniel Levine, Susi Lehtola, Hugh Burton, Evgeny Epifanovsky,
  Bang C. Huynh
 -----------------------------------------------------------------------
 Exchange:     0.1500 Hartree-Fock + 1.0000 wB97M-V + LR-HF
 Correlation:  1.0000 wB97M-V
 Using SG-2 standard quadrature grid
 Nonlocal Correlation:  VV10 with C = 0.0100 and b = 6.00 and scale = 1.00000
 Grid used for NLC:  SG-1 standard quadrature
 
 Citation of the SMD model:
 Marenich, A.V.; Cramer, C.J.; Truhlar, D.G.
 J. Phys. Chem. B 2009, 113, 6378-6396.
 iSolventCode=           1
 Solvent: water                                                           
 
 vradii
            1           2           3           4           5           6
    1   1.8500000   1.5200000   1.8500000   1.5200000   1.8500000   1.8500000
            7           8           9          10          11          12
    1   1.5200000   1.5200000   1.8500000   1.5200000   1.5200000   1.2000000
           13          14          15          16          17          18
    1   1.2000000   1.2000000   1.2000000   1.2000000   1.2000000   1.2000000
           19          20          21          22
    1   1.2000000   1.2000000   1.5200000   1.2000000
 -------------------------------------------------------
 OpenMP BLAS3 based DFT computing Module                
 Release: version 1.0, May 2013, Q-Chem Inc. Pittsburgh 
 -------------------------------------------------------
 A restricted SCF calculation will be
 performed using Roothaan-Hall, DIIS, GDM
 SCF converges when RMS gradient is below 1.0e-07
 ---------------------------------------
  Cycle       Energy         DIIS error
 ---------------------------------------
    1    -723.0279759424      4.25e-04  Roothaan Step
 ---------------------------------------
  Cycle       Energy         DIIS error
 ---------------------------------------
    1    -723.0812860040      4.64e-04  
    2    -723.0886820457      3.58e-04  Done DIIS. Switching to GDM
 ---------------------------------------
  Cycle       Energy        RMS Gradient
 ---------------------------------------
    1    -723.0886820457      9.41e-03   Normal BFGS step
    2    -723.0885474731      1.45e-02  Line search: overstep
    3    -723.0912942457      2.15e-03   Normal BFGS step
    4    -723.0914993772      5.71e-04   Normal BFGS step
    5    -723.0915304724      5.90e-04   Normal BFGS step
    6    -723.0915397826      7.52e-05   Normal BFGS step
    7    -723.0915403720      2.70e-05   Normal BFGS step
    8    -723.0915404807      1.22e-05   Normal BFGS step
    9    -723.0915404888      5.54e-06   Normal BFGS step
   10    -723.0915404913      1.13e-06   Normal BFGS step
   11    -723.0915404915      6.89e-07   Normal BFGS step
   12    -723.0915404915      1.73e-07   Normal BFGS step
   13    -723.0915404915      8.39e-08  Convergence criterion met
 ---------------------------------------
 SCF time:   CPU 2486.45s  wall 173.00s 
(3)  G-ENP(liq) elect-nuc-pol free energy of system     -723.091540492 a.u.
(4)  G-CDS(liq) cavity-dispersion-solvent structure 
     free energy                                                4.9675 kcal/mol
(6)  G-S(liq) free energy of system                     -723.083624313 a.u.
 SCF   energy in the final basis set =     -723.0836243132
 Total energy in the final basis set =     -723.0836243132
 
 --------------------------------------------------------------
 
                    Orbital Energies (a.u.)
 --------------------------------------------------------------
 
 Alpha MOs
 -- Occupied --
-19.4029 -19.3951 -19.3529 -19.3521 -19.3483 -19.3463 -19.3443 -10.4540
-10.4517 -10.4453 -10.4038 -10.3537  -1.2706  -1.2148  -1.2013  -1.1925
 -1.1433  -1.1351  -1.0537  -0.9138  -0.8540  -0.8094  -0.7395  -0.6848
 -0.6680  -0.6585  -0.6554  -0.6417  -0.6328  -0.5962  -0.5841  -0.5676
 -0.5525  -0.5444  -0.5438  -0.5320  -0.5137  -0.4962  -0.4775  -0.4637
 -0.4551  -0.4332  -0.4255  -0.4184  -0.4167  -0.4071  -0.3901  -0.3723
 -- Virtual --
  0.0250   0.0328   0.0366   0.0438   0.0459   0.0573   0.0594   0.0654
  0.0678   0.0835   0.0924   0.0979   0.1092   0.1170   0.1280   0.1319
  0.1370   0.1430   0.1461   0.1502   0.1538   0.1599   0.1642   0.1654
  0.1741   0.1853   0.1885   0.1955   0.2069   0.2101   0.2151   0.2233
  0.2339   0.2383   0.2483   0.2559   0.2602   0.2649   0.2703   0.2736
  0.2797   0.2865   0.2910   0.2955   0.3011   0.3056   0.3144   0.3245
  0.3298   0.3323   0.3384   0.3418   0.3482   0.3513   0.3525   0.3618
  0.3650   0.3684   0.3724   0.3803   0.3831   0.3866   0.3941   0.3960
  0.4083   0.4119   0.4243   0.4329   0.4351   0.4423   0.4457   0.4544
  0.4566   0.4605   0.4705   0.4792   0.4917   0.4986   0.5311   0.5559
  0.5677   0.5855   0.5888   0.6009   0.6080   0.6213   0.6314   0.6413
  0.6458   0.6521   0.6633   0.6673   0.6801   0.6859   0.7025   0.7056
  0.7137   0.7276   0.7314   0.7371   0.7423   0.7529   0.7682   0.7818
  0.7871   0.7927   0.8172   0.8245   0.8453   0.8631   0.8733   0.8949
  0.9121   0.9216   0.9450   0.9599   0.9676   0.9755   0.9911   1.0032
  1.0210   1.0420   1.0485   1.0684   1.0732   1.0791   1.1015   1.1074
  1.1173   1.1331   1.1474   1.1580   1.1610   1.1663   1.1777   1.1844
  1.1895   1.1983   1.2064   1.2137   1.2196   1.2275   1.2363   1.2480
  1.2559   1.2664   1.2749   1.2859   1.2886   1.3054   1.3141   1.3280
  1.3330   1.3463   1.3548   1.3651   1.3711   1.3784   1.3979   1.4022
  1.4154   1.4386   1.4504   1.4655   1.4763   1.4944   1.5039   1.5061
  1.5195   1.5282   1.5468   1.5508   1.5525   1.5630   1.5855   1.5909
  1.6050   1.6173   1.6252   1.6347   1.6729   1.6867   1.7062   1.7108
  1.7307   1.7412   1.7471   1.7649   1.7810   1.7995   1.8297   1.8468
  1.8638   1.8843   1.8862   1.9025   1.9319   1.9530   1.9554   1.9645
  1.9885   2.0067   2.0499   2.0687   2.0875   2.1291   2.1753   2.1878
  2.2225   2.2402   2.2535   2.2864   2.3078   2.3237   2.3481   2.3606
  2.3929   2.4005   2.4114   2.4179   2.4258   2.4489   2.4642   2.5099
  2.5367   2.5411   2.6014   2.6630   2.6778   2.7087   2.7334   2.7716
  2.8035   2.8270   2.8328   2.8404   2.8562   2.8823   2.9120   2.9258
  2.9465   2.9556   2.9675   3.0468   3.0492   3.0752   3.0912   3.0976
  3.1179   3.1473   3.1804   3.1849   3.2210   3.2502   3.2690   3.2867
  3.3142   3.3364   3.3530   3.3870   3.3955   3.4122   3.4168   3.4401
  3.4504   3.4694   3.4902   3.5152   3.5325   3.5468   3.5830   3.5943
  3.6055   3.6316   3.6554   3.6686   3.6760   3.6839   3.6964   3.7197
  3.7358   3.7577   3.7676   3.7776   3.7938   3.8012   3.8108   3.8289
  3.8420   3.8625   3.8630   3.8869   3.8969   3.9102   3.9250   3.9329
  3.9428   3.9700   3.9762   3.9960   4.0288   4.0581   4.0901   4.1075
  4.1127   4.1349   4.1696   4.1813   4.1910   4.2055   4.2316   4.2469
  4.2671   4.2742   4.2771   4.3072   4.3193   4.3357   4.3366   4.3694
  4.3973   4.4093   4.4625   4.4665   4.4837   4.5230   4.5304   4.5585
  4.5723   4.5868   4.6497   4.6792   4.6897   4.7261   4.7329   4.7908
  4.8297   4.8782   4.9433   4.9984   5.0397   5.0773   5.1806   5.1870
  5.2006   5.2129   5.2184   5.2394   5.2425   5.2666   5.2721   5.2802
  5.2875   5.3003   5.3147   5.3206   5.3318   5.3484   5.3496   5.3562
  5.3708   5.3982   5.4121   5.4249   5.4330   5.4601   5.4684   5.4901
  5.4982   5.5141   5.5421   5.5540   5.5652   5.5785   5.5967   5.6173
  5.6230   5.6305   5.6351   5.6493   5.6674   5.6773   5.6840   5.7043
  5.7222   5.7773   5.7962   5.8390   5.8503   5.8617   5.9100   6.0168
  6.0290   6.0577   6.0930   6.1251   6.1471   6.1661   6.2581   6.4266
  6.5262   6.5449   6.6385   6.7021   6.7550   6.7893   6.8581   6.9991
  7.0114   7.0359   7.0484   7.0497   7.0765   7.1207   7.1454   7.1690
  7.2007   7.2342   7.2602   7.2632   7.2686   7.2811   7.2902   7.3208
  7.3222   7.3449   7.3713   7.3814   7.3911   7.4045   7.4332   7.4758
  7.5326   7.5440   7.6090   7.6138   7.6599   7.6869   7.6961   7.7131
  7.7963   7.8008   7.8089   7.8572   7.8838   7.9014   7.9753   8.1762
 24.6378  24.7773  24.7872  24.8491  25.0422  50.5080  50.5762  50.5857
 50.6223  50.6307  50.6366  50.7564
 --------------------------------------------------------------
 
          Ground-State Mulliken Net Atomic Charges

     Atom                 Charge (a.u.)
  ----------------------------------------
      1 C                    -0.244984
      2 O                    -0.369842
      3 C                     0.503279
      4 O                    -0.419198
      5 C                    -0.575892
      6 C                    -0.061318
      7 O                    -0.099980
      8 O                    -0.314987
      9 C                    -0.273441
     10 O                    -0.411898
     11 O                    -0.463640
     12 H                     0.249881
     13 H                     0.345063
     14 H                     0.230481
     15 H                     0.294652
     16 H                     0.319718
     17 H                     0.356416
     18 H                     0.292211
     19 H                     0.336569
     20 H                     0.347463
     21 O                    -0.389153
     22 H                     0.348602
  ----------------------------------------
  Sum of atomic charges =     0.000000

 -----------------------------------------------------------------
                    Cartesian Multipole Moments
 -----------------------------------------------------------------
    Charge (ESU x 10^10)
                -0.0000
    Dipole Moment (Debye)
         X      -4.4022      Y      -1.7985      Z      -4.5714
       Tot       6.5964
    Quadrupole Moments (Debye-Ang)
        XX    -110.7889     XY       0.7298     YY     -60.0286
        XZ     -18.3526     YZ       2.7205     ZZ     -64.3114
    Octopole Moments (Debye-Ang^2)
       XXX   -1206.6277    XXY     -71.5664    XYY    -257.0483
       YYY    -218.3733    XXZ    -158.9765    XYZ     -25.3468
       YYZ     -53.5241    XZZ    -298.4886    YZZ     -78.3602
       ZZZ     -64.8562
    Hexadecapole Moments (Debye-Ang^3)
      XXXX  -10798.1146   XXXY   -1454.0119   XXYY   -1546.0629
      XYYY   -1169.4958   YYYY   -1472.9339   XXXZ   -1631.3886
      XXYZ    -374.3632   XYYZ    -347.4258   YYYZ    -306.7351
      XXZZ   -1687.2869   XYZZ    -424.5128   YYZZ    -370.1484
      XZZZ    -513.9246   YZZZ    -206.0020   ZZZZ    -793.7531
 -----------------------------------------------------------------
 Calculating analytic gradient of the SCF energy
 Gradient of CDS energy
            1           2           3           4           5           6
    1   0.0002911  -0.0010880  -0.0006147   0.0003023   0.0000855   0.0000839
    2   0.0002146   0.0014091  -0.0000376   0.0000374   0.0001150  -0.0000446
    3  -0.0023683   0.0000776   0.0016533  -0.0012939  -0.0000727  -0.0000458
            7           8           9          10          11          12
    1  -0.0000003   0.0001383   0.0006526   0.0009346  -0.0014525  -0.0000508
    2   0.0000934   0.0000212   0.0020064  -0.0014433  -0.0008748  -0.0000589
    3   0.0000511  -0.0003155   0.0009923   0.0008005  -0.0017759   0.0000535
           13          14          15          16          17          18
    1   0.0001475  -0.0000719   0.0001268  -0.0000205  -0.0000276   0.0000726
    2  -0.0004963   0.0001087  -0.0001431   0.0000478  -0.0001616  -0.0001576
    3  -0.0000856  -0.0000832  -0.0000465   0.0000532   0.0004853  -0.0000701
           19          20          21          22
    1  -0.0000465   0.0000638   0.0007232  -0.0002496
    2   0.0004302   0.0003309  -0.0014824   0.0000857
    3  -0.0002844   0.0003711   0.0023555  -0.0004515
 Gradient of SCF Energy
            1           2           3           4           5           6
    1   0.0155188   0.0124255  -0.0044154  -0.0008278  -0.0062290   0.0039088
    2   0.0125288   0.0152483  -0.0015346  -0.0007633  -0.0051845  -0.0047512
    3   0.0028635   0.0075260  -0.0050227   0.0010575   0.0042655  -0.0038177
            7           8           9          10          11          12
    1   0.0014048   0.0094111  -0.0040159  -0.0095647   0.0089335  -0.0108602
    2  -0.0028880   0.0030891   0.0040566  -0.0043522  -0.0032996  -0.0070446
    3  -0.0015739  -0.0011690   0.0046292   0.0057790  -0.0005753   0.0003954
           13          14          15          16          17          18
    1  -0.0110510  -0.0007443   0.0019882  -0.0011379  -0.0077020   0.0008880
    2  -0.0155087   0.0016589   0.0008364   0.0017860  -0.0019109  -0.0003111
    3  -0.0073086  -0.0016506  -0.0019574   0.0022312   0.0049985  -0.0058204
           19          20          21          22
    1   0.0075741  -0.0060821   0.0136226  -0.0130450
    2   0.0062529   0.0027332   0.0115728  -0.0122142
    3  -0.0070657   0.0027527   0.0104390  -0.0109761
 Max gradient component =       1.552E-02
 RMS gradient           =       7.000E-03
 Computing fast CPCM-SWIG gradient
 Updating gradient with PCM contributions...
 -- total gradient after adding PCM contribution --
---------------------------------------------------
  Atom         X              Y              Z     
---------------------------------------------------
   1       0.000139       0.001087      -0.000028
   2       0.000130      -0.000372      -0.000031
   3      -0.000112      -0.000242      -0.000084
   4       0.000008       0.000038       0.000001
   5      -0.000025      -0.000003      -0.000030
   6       0.000017      -0.000005       0.000023
   7      -0.000024       0.000000      -0.000011
   8       0.000009       0.000009      -0.000009
   9       0.000022       0.000004      -0.000004
  10      -0.000003      -0.000006       0.000009
  11      -0.000005       0.000010      -0.000018
  12      -0.000201      -0.000191       0.000069
  13       0.000067      -0.000045      -0.000041
  14       0.000009       0.000002      -0.000005
  15      -0.000004      -0.000006       0.000006
  16      -0.000003      -0.000004      -0.000007
  17       0.000008       0.000003       0.000006
  18      -0.000004       0.000001      -0.000014
  19      -0.000001      -0.000008      -0.000006
  20       0.000013      -0.000017       0.000001
  21      -0.000036      -0.000269       0.000202
  22      -0.000004       0.000014      -0.000031
---------------------------------------------------
 Number of fixed atoms: 0
 Gradient time:  CPU 506.10 s  wall 42.38 s
 ----------------------------------------------------------------
             Standard Nuclear Orientation (Angstroms)
    I     Atom           X                Y                Z
 ----------------------------------------------------------------
    1      C       2.4301211961    -0.7833617346    -0.9646096491
    2      O       3.4470897200    -1.7444693278    -1.1283516768
    3      C       2.9370413024     0.1640318941     0.1210277831
    4      O       2.4601117369     0.1121244988     1.2343075541
    5      C       4.0401718010     1.1072572724    -0.2655890853
    6      C       4.7035914159     1.7488622003     0.9324724941
    7      O       5.4066166217     0.6931271476     1.5931411505
    8      O       5.4804395250     0.9774291959     2.9892893765
    9      C       5.6647576675     2.8591677573     0.5213136613
   10      O       4.8614149499     3.9075439135     0.0297152537
   11      O       6.4781150860     3.2852253438     1.5880230493
   12      H       1.5059617638    -1.2534377728    -0.6324137663
   13      H       3.0486791513    -2.5606975674    -1.4514422517
   14      H       3.6073850676     1.8731390072    -0.9112978248
   15      H       4.7715359905     0.5726672172    -0.8755795175
   16      H       3.9580375362     2.1552801008     1.6176943370
   17      H       4.6900862653     0.5281185805     3.3260354899
   18      H       6.3546937435     2.5079940771    -0.2469929405
   19      H       5.4285753976     4.5274198718    -0.4423700398
   20      H       5.9166838069     3.4558097409     2.3550505409
   21      O       2.2215580077    -0.0250216584    -2.1300182767
   22      H       1.6404765470    -0.5219130580    -2.7174183616
 ----------------------------------------------------------------
 Nuclear Repulsion Energy =         788.72444902 hartrees
 There are       48 alpha and       48 beta electrons
[...]
 H          0.211 -0.037  0.039   -0.280  0.510 -0.194    0.072  0.437  0.480
 H          0.320 -0.121  0.011    0.013 -0.043 -0.012    0.280 -0.132 -0.016
 H          0.140  0.166  0.115    0.297  0.292  0.130   -0.002 -0.066 -0.083
 H         -0.039 -0.040 -0.122   -0.221 -0.205 -0.138    0.216  0.241  0.059
 H          0.287  0.417  0.194    0.069  0.282  0.033   -0.038 -0.297  0.027
 H         -0.011  0.001 -0.026   -0.006 -0.002 -0.022    0.012  0.003  0.035
 H          0.234  0.267  0.049    0.053  0.137 -0.022   -0.206 -0.215 -0.031
 H         -0.019  0.017 -0.014    0.053 -0.044  0.015   -0.045  0.028 -0.003
 H          0.307  0.119  0.202    0.083  0.034  0.054   -0.208 -0.080 -0.137
 O         -0.011 -0.041  0.041   -0.002 -0.115  0.146   -0.004 -0.038  0.041
 H          0.013  0.207 -0.182    0.045  0.150 -0.109    0.024  0.177 -0.162
 TransDip   0.413 -0.115 -0.072   -0.216  0.463 -0.305   -0.069 -0.050 -0.357

 Mode:                40                     41                     42
 Frequency:      1295.21                1340.39                1368.24
 Force Cnst:      2.4854                 1.5818                 1.6071
 Red. Mass:       2.5146                 1.4943                 1.4570
 IR Active:          YES                    YES                    YES
 IR Intens:      268.512                 42.234                  9.739
 Raman Active:       YES                    YES                    YES
               X      Y      Z        X      Y      Z        X      Y      Z
 C          0.017  0.006 -0.011   -0.010 -0.000  0.011    0.000  0.004  0.006
 O         -0.002  0.002 -0.000   -0.002 -0.002 -0.001   -0.004 -0.002 -0.001
 C         -0.045 -0.038 -0.023    0.049  0.044  0.026    0.019  0.029  0.010
 O          0.004  0.006  0.009   -0.003 -0.006 -0.011   -0.002 -0.004 -0.003
 C          0.007  0.029  0.009   -0.032 -0.065 -0.001   -0.033 -0.020 -0.021
 C         -0.013  0.013  0.067   -0.042  0.030 -0.111    0.004 -0.079  0.009
 O          0.012 -0.002 -0.013   -0.014  0.023  0.014    0.006 -0.006 -0.004
 O          0.000  0.004  0.001   -0.007 -0.012 -0.005    0.009  0.007  0.006
 C          0.220 -0.050  0.157    0.056  0.038  0.094   -0.014  0.056  0.147
 O         -0.101  0.079 -0.027   -0.023  0.003 -0.003    0.038 -0.015 -0.015
 O         -0.065 -0.047 -0.117    0.003 -0.013 -0.044    0.015 -0.011 -0.046
 H          0.021  0.130  0.183   -0.015 -0.110 -0.167    0.003 -0.055 -0.074
 H          0.038 -0.017 -0.004    0.004 -0.005  0.001    0.030 -0.017 -0.002
 H         -0.121 -0.107 -0.066    0.228  0.183  0.121   -0.046  0.031  0.054
 H         -0.011 -0.020  0.033    0.046  0.084 -0.037    0.173  0.071  0.151
 H         -0.420 -0.157 -0.270    0.386 -0.348  0.570    0.072  0.577 -0.287
 H         -0.009 -0.011 -0.044    0.044  0.050  0.204   -0.039 -0.049 -0.186
 H          0.449  0.299  0.203    0.003 -0.080  0.101   -0.253  0.089 -0.068
 H          0.315 -0.228  0.048    0.108 -0.092  0.023   -0.198  0.163 -0.052
 H         -0.089 -0.059 -0.136   -0.264 -0.116 -0.210   -0.403 -0.159 -0.307
 O          0.001 -0.001  0.002   -0.002 -0.003 -0.001   -0.002 -0.003  0.000
 H          0.004  0.021 -0.020   -0.002  0.012 -0.012   -0.000  0.018 -0.017
 TransDip   0.342 -0.242  0.316    0.163  0.079  0.102   -0.043  0.065  0.063

 Mode:                43                     44                     45
 Frequency:      1400.18                1407.11                1410.08
 Force Cnst:      1.3929                 1.5240                 1.4179
 Red. Mass:       1.2059                 1.3064                 1.2104
 IR Active:          YES                    YES                    YES
 IR Intens:       99.907                 40.006                 19.466
 Raman Active:       YES                    YES                    YES
               X      Y      Z        X      Y      Z        X      Y      Z
 C          0.004  0.002  0.022    0.074 -0.114  0.069   -0.007 -0.008 -0.013
 O         -0.004 -0.001 -0.002    0.021  0.031 -0.005    0.004  0.002  0.002
 C          0.039  0.035  0.009   -0.011  0.010 -0.004   -0.013 -0.022 -0.012
 O         -0.008 -0.005  0.004    0.003 -0.003 -0.003   -0.001  0.003  0.008
 C         -0.079 -0.060  0.043    0.009  0.003  0.001    0.043  0.036  0.059
 C          0.027  0.013  0.029   -0.002 -0.003 -0.003   -0.025 -0.037  0.002
 O         -0.006 -0.010  0.010    0.001  0.001 -0.002    0.025  0.018 -0.041
 O          0.012  0.009  0.004   -0.002 -0.001 -0.001   -0.035 -0.022 -0.011
 C          0.005  0.005 -0.015   -0.001 -0.001  0.003   -0.006 -0.025  0.037
 O         -0.005  0.001  0.003    0.001  0.000 -0.001    0.014  0.003 -0.010
 O         -0.004 -0.001  0.002    0.001  0.000 -0.001    0.005  0.003 -0.004
 H         -0.038 -0.040 -0.162   -0.495  0.677 -0.393    0.011  0.021  0.086
 H          0.032 -0.018 -0.000   -0.212  0.124  0.032   -0.036  0.021  0.002
 H          0.471 -0.112 -0.401   -0.051 -0.016  0.021    0.131 -0.195 -0.282
 H          0.028  0.537 -0.370    0.006 -0.022  0.020   -0.234  0.090 -0.334
 H         -0.153 -0.028 -0.140    0.012  0.008  0.004    0.069  0.174 -0.023
 H         -0.053 -0.067 -0.260    0.009  0.011  0.043    0.145  0.182  0.710
 H          0.026 -0.045  0.024   -0.003  0.006 -0.002   -0.078  0.155 -0.102
 H          0.032 -0.026  0.009   -0.006  0.005 -0.002   -0.106  0.091 -0.031
 H          0.037  0.012  0.028   -0.008 -0.003 -0.006   -0.061 -0.015 -0.045
 O         -0.006 -0.005 -0.002   -0.032 -0.008 -0.010    0.004  0.006  0.000
 H         -0.001  0.047 -0.049    0.009  0.140 -0.167   -0.002 -0.041  0.043
 TransDip   0.190  0.133 -0.221    0.075 -0.140  0.126   -0.044 -0.016  0.133

 Mode:                46                     47                     48
 Frequency:      1415.65                1437.69                1481.57
 Force Cnst:      1.6849                 1.6268                 2.6453
 Red. Mass:       1.4270                 1.3358                 2.0454
 IR Active:          YES                    YES                    YES
 IR Intens:      101.843                 60.584                 11.953
 Raman Active:       YES                    YES                    YES
               X      Y      Z        X      Y      Z        X      Y      Z
 C          0.008  0.024  0.025   -0.002 -0.005 -0.007    0.070  0.156  0.180
 O         -0.010 -0.006 -0.004    0.002  0.001  0.001   -0.034 -0.034 -0.021
 C          0.030  0.040  0.017   -0.005 -0.007 -0.005   -0.079 -0.086 -0.009
 O         -0.002 -0.006 -0.008   -0.001  0.001  0.004    0.021  0.009 -0.032
 C         -0.094 -0.071 -0.063    0.023  0.023  0.011    0.045  0.040  0.016
 C          0.068  0.026  0.059   -0.017 -0.049  0.012    0.001  0.020 -0.010
 O          0.026  0.002 -0.036    0.003 -0.001 -0.006   -0.001 -0.001  0.002
 O         -0.034 -0.017 -0.016   -0.002 -0.001  0.000    0.001  0.000  0.001
 C          0.001  0.019 -0.034   -0.081  0.102 -0.067   -0.041 -0.047  0.005
 O         -0.008 -0.001  0.008   -0.011 -0.017  0.027    0.010  0.005 -0.005
 O         -0.009 -0.004  0.005    0.041 -0.008 -0.013    0.018  0.005  0.002
 H          0.009 -0.092 -0.154    0.001  0.018  0.037    0.064 -0.245 -0.488
 H          0.088 -0.050 -0.006   -0.017  0.010  0.001    0.417 -0.239 -0.035
 H         -0.004  0.187  0.187   -0.018 -0.062 -0.063   -0.043 -0.044 -0.022
 H          0.344  0.118  0.307   -0.068 -0.022 -0.063   -0.106 -0.090 -0.052
 H         -0.243  0.000 -0.270    0.060  0.205 -0.045    0.017 -0.044  0.045
 H          0.132  0.159  0.629    0.008  0.013  0.045   -0.003 -0.004 -0.015
 H          0.035 -0.141  0.062    0.531 -0.257  0.638    0.119  0.174  0.056
 H          0.068 -0.057  0.021    0.155 -0.149  0.043   -0.084  0.071 -0.025
 H          0.078  0.029  0.058   -0.226 -0.124 -0.177   -0.079 -0.031 -0.058
 O         -0.006 -0.010 -0.001    0.001  0.002  0.001   -0.031 -0.041 -0.022
 H          0.002  0.073 -0.074   -0.000 -0.016  0.017    0.011  0.356 -0.382
 TransDip   0.113  0.137  0.270   -0.169  0.031 -0.180   -0.100 -0.033  0.035

 Mode:                49                     50                     51
 Frequency:      1482.96                1785.62                3075.09
 Force Cnst:      2.3613                20.8483                 5.9297
 Red. Mass:       1.8224                11.0979                 1.0643
 IR Active:          YES                    YES                    YES
 IR Intens:       89.838                373.008                  3.630
 Raman Active:       YES                    YES                    YES
               X      Y      Z        X      Y      Z        X      Y      Z
 C         -0.017 -0.035 -0.039    0.009 -0.034 -0.091    0.001  0.000 -0.000
 O          0.008  0.007  0.004    0.000  0.005  0.003    0.000  0.000  0.000
 C          0.021  0.024  0.008   -0.289 -0.015  0.702   -0.000  0.000  0.001
 O         -0.003 -0.003  0.001    0.190  0.017 -0.452    0.000  0.000 -0.001
 C         -0.034 -0.036 -0.018    0.021  0.003 -0.038   -0.026  0.001  0.064
 C          0.055  0.102  0.007   -0.008 -0.015  0.022    0.012 -0.007 -0.013
 O         -0.001 -0.010  0.005    0.001  0.002 -0.001    0.000  0.000 -0.000
 O         -0.000  0.001 -0.001   -0.001  0.000 -0.002   -0.000  0.000  0.000
 C         -0.139 -0.162  0.017    0.006  0.009 -0.009   -0.002  0.000  0.003
 O          0.033  0.019 -0.015   -0.001 -0.002  0.001   -0.000 -0.000 -0.000
 O          0.058  0.016  0.004   -0.004 -0.003 -0.001    0.000  0.000 -0.000
 H         -0.016  0.047  0.097    0.009  0.146  0.263   -0.016 -0.009  0.005
 H         -0.093  0.053  0.008   -0.050  0.025  0.021    0.001 -0.000 -0.000
 H          0.047  0.083  0.068    0.109 -0.016 -0.087   -0.223  0.391 -0.316
 H          0.061  0.027  0.046    0.081  0.185 -0.104    0.541 -0.395 -0.439
 H         -0.097 -0.213  0.025   -0.020  0.039  0.001   -0.153  0.080  0.139
 H         -0.001 -0.006 -0.013   -0.000  0.001 -0.004   -0.001 -0.001  0.001
 H          0.412  0.593  0.192    0.004 -0.009 -0.006    0.026 -0.012 -0.028
 H         -0.286  0.244 -0.084    0.007 -0.009  0.001   -0.001  0.000 -0.000
 H         -0.254 -0.099 -0.188    0.014  0.007  0.008   -0.001  0.000  0.001
 O          0.007  0.009  0.005    0.001 -0.001  0.003    0.000  0.000  0.000
 H         -0.003 -0.079  0.084   -0.010 -0.026  0.035    0.000  0.001 -0.000
 TransDip  -0.246 -0.077 -0.160   -0.297 -0.060  0.539    0.035  0.048  0.013

 Mode:                52                     53                     54
 Frequency:      3084.61                3096.32                3108.29
 Force Cnst:      6.0777                 6.1383                 6.1998
 Red. Mass:       1.0841                 1.0867                 1.0891
 IR Active:          YES                    YES                    YES
 IR Intens:        6.615                 58.446                 35.462
 Raman Active:       YES                    YES                    YES
               X      Y      Z        X      Y      Z        X      Y      Z
 C          0.001  0.000 -0.000   -0.001 -0.001  0.000   -0.073 -0.039  0.024
 O         -0.000  0.000  0.000    0.000 -0.000 -0.000    0.001  0.001  0.000
 C         -0.000 -0.000  0.001    0.000  0.000 -0.001   -0.000  0.001  0.002
 O          0.000 -0.000 -0.001   -0.000  0.000  0.001    0.000 -0.000 -0.001
 C         -0.000 -0.006  0.014   -0.005  0.010 -0.009    0.000 -0.001  0.002
 C         -0.041  0.021  0.039    0.036 -0.020 -0.034   -0.001  0.000  0.001
 O         -0.001  0.001 -0.000    0.000  0.000 -0.000   -0.000  0.000 -0.000
 O          0.000 -0.000 -0.000   -0.000  0.000  0.000   -0.000 -0.000 -0.000
 C          0.036 -0.016 -0.040    0.040 -0.020 -0.046   -0.000  0.000  0.000
 O         -0.000 -0.000  0.000   -0.000 -0.000  0.000   -0.000 -0.000 -0.000
 O         -0.001  0.000  0.000   -0.001  0.000  0.001   -0.000 -0.000 -0.000
 H         -0.010 -0.005  0.004    0.014  0.007 -0.005    0.845  0.438 -0.292
 H          0.000  0.000  0.000   -0.000 -0.000 -0.000   -0.007 -0.002 -0.004
 H         -0.071  0.131 -0.106    0.070 -0.129  0.106   -0.009  0.017 -0.014
 H          0.074 -0.057 -0.062   -0.009  0.013  0.011    0.007 -0.005 -0.006
 H          0.488 -0.262 -0.454   -0.437  0.228  0.404    0.009 -0.005 -0.009
 H          0.002  0.002 -0.005   -0.001 -0.002  0.004    0.000  0.000 -0.000
 H         -0.416  0.207  0.467   -0.471  0.229  0.527    0.003 -0.001 -0.003
 H          0.005 -0.001  0.001    0.004  0.002  0.001   -0.000 -0.000  0.000
 H          0.009 -0.003 -0.010    0.013  0.001 -0.004   -0.000 -0.000 -0.000
 O          0.000  0.000  0.000   -0.000 -0.000 -0.000    0.001  0.001  0.000
 H          0.000  0.000 -0.000    0.000 -0.000  0.000   -0.001 -0.007 -0.000
 TransDip   0.048  0.004 -0.067    0.130 -0.163 -0.128   -0.152 -0.053  0.103

 Mode:                55                     56                     57
 Frequency:      3117.30                3745.62                3797.25
 Force Cnst:      6.2859                 8.8321                 9.0569
 Red. Mass:       1.0979                 1.0685                 1.0661
 IR Active:          YES                    YES                    YES
 IR Intens:        5.547                113.528                113.445
 Raman Active:       YES                    YES                    YES
               X      Y      Z        X      Y      Z        X      Y      Z
 C          0.001  0.000 -0.000   -0.000  0.000  0.000    0.000 -0.000 -0.000
 O         -0.000 -0.000 -0.000    0.000  0.000  0.000   -0.000 -0.000 -0.000
 C         -0.000 -0.001  0.000    0.000  0.000 -0.000   -0.000 -0.000  0.000
 O          0.000 -0.000 -0.000   -0.000 -0.000  0.000    0.000  0.000 -0.000
 C          0.057 -0.068  0.012   -0.000  0.000 -0.000    0.000  0.000 -0.000
 C          0.009 -0.006 -0.008    0.001 -0.001 -0.000   -0.000  0.000  0.001
 O         -0.000  0.000 -0.000    0.000  0.000 -0.001    0.000 -0.000 -0.000
 O         -0.000  0.000 -0.000   -0.052 -0.030  0.022   -0.000 -0.000  0.000
 C          0.003 -0.001 -0.003   -0.000 -0.000  0.000    0.002 -0.000 -0.002
 O         -0.000 -0.000 -0.000   -0.000  0.000  0.000    0.001  0.001 -0.001
 O         -0.000  0.000  0.000   -0.000  0.000  0.000    0.035 -0.011 -0.050
 H         -0.009 -0.004  0.003   -0.000 -0.000 -0.000    0.000  0.000  0.000
 H         -0.000  0.000  0.000   -0.000 -0.000 -0.000    0.001  0.001  0.000
 H         -0.302  0.558 -0.477   -0.001 -0.000 -0.001    0.000 -0.000  0.000
 H         -0.386  0.275  0.331   -0.000 -0.000  0.000    0.000  0.000  0.000
 H         -0.104  0.057  0.100   -0.002  0.001  0.004    0.001 -0.003 -0.002
 H         -0.001 -0.001  0.001    0.814  0.469 -0.338    0.003  0.002 -0.001
 H         -0.030  0.014  0.033    0.000  0.000 -0.000   -0.009  0.004  0.012
 H         -0.000 -0.000 -0.000    0.000  0.001 -0.001   -0.016 -0.018  0.013
 H          0.001  0.000  0.000    0.002 -0.001 -0.003   -0.568  0.179  0.800
 O          0.000  0.000  0.000   -0.000  0.000  0.000   -0.000 -0.000 -0.000
 H         -0.000  0.001 -0.000   -0.000 -0.000 -0.000    0.001  0.000  0.001
 TransDip   0.049  0.015 -0.055    0.228  0.157 -0.199   -0.119  0.062  0.313

 Mode:                58                     59                     60
 Frequency:      3820.89                3821.80                3826.86
 Force Cnst:      9.1780                 9.1810                 9.2040
 Red. Mass:       1.0670                 1.0669                 1.0667
 IR Active:          YES                    YES                    YES
 IR Intens:      142.783                191.861                136.761
 Raman Active:       YES                    YES                    YES
               X      Y      Z        X      Y      Z        X      Y      Z
 C         -0.002 -0.000  0.000   -0.001 -0.001  0.000    0.000  0.000 -0.000
 O         -0.024 -0.054 -0.021   -0.003 -0.008 -0.003    0.000  0.000  0.000
 C         -0.000  0.000 -0.000    0.000 -0.000  0.000   -0.000 -0.000  0.000
 O         -0.000 -0.000  0.000   -0.000  0.000  0.000    0.000  0.000 -0.000
 C          0.000  0.000  0.000    0.000  0.000  0.000    0.000  0.000 -0.000
 C          0.000  0.000 -0.000    0.000  0.000 -0.000    0.000  0.000 -0.000
 O         -0.000  0.000  0.000    0.000  0.000 -0.000   -0.000  0.000 -0.000
 O         -0.000 -0.000  0.000   -0.000 -0.000  0.000    0.000  0.000 -0.000
 C         -0.000 -0.000  0.000   -0.000 -0.000  0.000   -0.001 -0.000  0.001
 O         -0.000 -0.000  0.000   -0.000 -0.000  0.000   -0.035 -0.041  0.031
 O         -0.000  0.000  0.000   -0.000  0.000  0.000    0.001 -0.000 -0.002
 H          0.002  0.007 -0.001    0.005  0.002  0.003    0.000  0.000  0.000
 H          0.402  0.841  0.328    0.057  0.120  0.047   -0.001 -0.003 -0.001
 H         -0.000 -0.000  0.000    0.000  0.000 -0.000   -0.000  0.000 -0.000
 H          0.000 -0.000 -0.000   -0.000 -0.000  0.000   -0.000  0.000  0.000
 H         -0.000  0.000  0.000    0.000  0.000  0.000    0.001  0.000 -0.001
 H          0.000  0.000 -0.000    0.000  0.000 -0.000   -0.001 -0.000  0.000
 H          0.000  0.000 -0.000    0.000  0.000 -0.000    0.001  0.003 -0.004
 H          0.001  0.002 -0.001    0.002  0.003 -0.002    0.577  0.647 -0.494
 H          0.001 -0.000 -0.001    0.001 -0.000 -0.001   -0.016  0.005  0.023
 O          0.005  0.005  0.005   -0.038 -0.030 -0.039    0.000  0.000  0.000
 H         -0.085 -0.072 -0.086    0.598  0.500  0.608   -0.002 -0.002 -0.002
 TransDip   0.049  0.369  0.089    0.253  0.182  0.316    0.144  0.279 -0.205

 STANDARD THERMODYNAMIC QUANTITIES AT   298.15 K  AND     1.00 ATM

   This Molecule has  0 Imaginary Frequencies
   Zero point vibrational energy:      106.771 kcal/mol

   Atom    1 Element C  Has Mass   12.00000
   Atom    2 Element O  Has Mass   15.99491
   Atom    3 Element C  Has Mass   12.00000
   Atom    4 Element O  Has Mass   15.99491
   Atom    5 Element C  Has Mass   12.00000
   Atom    6 Element C  Has Mass   12.00000
   Atom    7 Element O  Has Mass   15.99491
   Atom    8 Element O  Has Mass   15.99491
   Atom    9 Element C  Has Mass   12.00000
   Atom   10 Element O  Has Mass   15.99491
   Atom   11 Element O  Has Mass   15.99491
   Atom   12 Element H  Has Mass    1.00783
   Atom   13 Element H  Has Mass    1.00783
   Atom   14 Element H  Has Mass    1.00783
   Atom   15 Element H  Has Mass    1.00783
   Atom   16 Element H  Has Mass    1.00783
   Atom   17 Element H  Has Mass    1.00783
   Atom   18 Element H  Has Mass    1.00783
   Atom   19 Element H  Has Mass    1.00783
   Atom   20 Element H  Has Mass    1.00783
   Atom   21 Element O  Has Mass   15.99491
   Atom   22 Element H  Has Mass    1.00783
   Molecular Mass:   182.042670 amu
   Principal axes and moments of inertia in amu*Bohr^2:
                             1           2           3
    Eigenvalues --     1210.96217  3534.64776  4181.69682
          X               0.59066     0.09581     0.80121
          Y               0.65380    -0.63878    -0.40560
          Z               0.47293     0.76340    -0.43994
   Rotational Symmetry Number is   1
   The Molecule is an Asymmetric Top
   Translational Enthalpy:        0.889 kcal/mol
   Rotational Enthalpy:           0.889 kcal/mol
   Vibrational Enthalpy:        113.992 kcal/mol
   gas constant (RT):             0.592 kcal/mol
   Translational Entropy:        41.504  cal/mol.K
   Rotational Entropy:           31.260  cal/mol.K
   Vibrational Entropy:          48.612  cal/mol.K

   Total Enthalpy:              116.362 kcal/mol
   Total Entropy:               121.376  cal/mol.K
 Total job time:  29204.33s(wall), 404033.41s(cpu) 
 Thu Jul  4 00:48:42 2024

        *************************************************************
        *                                                           *
        *  Thank you very much for using Q-Chem.  Have a nice day.  *
        *                                                           *
        *************************************************************


