
Running Job 1 of 1 Q_in.in
qchem Q_in.in_144850.0 /scratch/ari.fischer/qChem2201972.hpc-mn1/qchem144850/ 0
/usr/local/qchem-5.4.1/exe/qcprog.exe_s Q_in.in_144850.0 /scratch/ari.fischer/qChem2201972.hpc-mn1/qchem144850/
                  Welcome to Q-Chem
     A Quantum Leap Into The Future Of Chemistry


 Q-Chem 5.4, Q-Chem, Inc., Pleasanton, CA (2021)

 License issued to: Nanyang Technological University (site)

 E. Epifanovsky,  A. T. B. Gilbert,  Xintian Feng,  Joonho Lee,  Yuezhi Mao,  
 N. Mardirossian,  P. Pokhilko,  A. White,  M. Wormit,  M. P. Coons,  
 A. L. Dempwolff,  Zhengting Gan,  D. Hait,  P. R. Horn,  L. D. Jacobson,  
 I. Kaliman,  J. Kussmann,  A. W. Lange,  Ka Un Lao,  D. S. Levine,  Jie Liu,  
 S. C. McKenzie,  A. F. Morrison,  K. Nanda,  F. Plasser,  D. R. Rehn,  
 M. L. Vidal,  Zhi-Qiang You,  Ying Zhu,  B. Alam,  B. Albrecht,  
 A. Aldossary,  E. Alguire,  J. H. Andersen,  D. Barton,  K. Begam,  A. Behn,  
 Y. A. Bernard,  E. J. Berquist,  H. Burton,  A. Carreras,  K. Carter-Fenk,  
 R. Chakraborty,  A. D. Chien,  K. D. Closser,  V. Cofer-Shabica,  
 S. Dasgupta,  Jia Deng,  M. de Wergifosse,  M. Diedenhofen,  Hainam Do,  
 S. Ehlert,  Po-Tung Fang,  S. Fatehi,  Qingguo Feng,  T. Friedhoff,  
 J. Gayvert,  Qinghui Ge,  G. Gidofalvi,  M. Goldey,  J. Gomes,  
 C. Gonzalez-Espinoza,  S. Gulania,  A. Gunina,  M. W. D. Hanson-Heine,  
 P. H. P. Harbach,  A. W. Hauser,  M. F. Herbst,  M. Hernandez Vera,  
 M. Hodecker,  Z. C. Holden,  S. Houck,  Xunkun Huang,  Kerwin Hui,  
 B. C. Huynh,  M. Ivanov,  Hyunjun Ji,  Hanjie Jiang,  B. Kaduk,  S. Kaehler,  
 K. Khistyaev,  Jaehoon Kim,  P. Klunzinger,  Z. Koczor-Benda,  
 Joong Hoon Koh,  D. Kosenkov,  L. Koulias,  T. Kowalczyk,  C. M. Krauter,  
 K. Kue,  A. Kunitsa,  T. Kus,  A. Landau,  K. V. Lawler,  D. Lefrancois,  
 S. Lehtola,  Rain Li,  Yi-Pei Li,  Jiashu Liang,  M. Liebenthal,  
 Hung-Hsuan Lin,  You-Sheng Lin,  Fenglai Liu,  Kuan-Yu Liu,  
 M. Loipersberger,  A. Luenser,  A. Manjanath,  P. Manohar,  E. Mansoor,  
 S. F. Manzer,  Shan-Ping Mao,  A. V. Marenich,  T. Markovich,  S. Mason,  
 S. A. Maurer,  P. F. McLaughlin,  M. F. S. J. Menger,  J.-M. Mewes,  
 S. A. Mewes,  P. Morgante,  J. W. Mullinax,  K. J. Oosterbaan,  G. Paran,  
 Alexander C. Paul,  Suranjan K. Paul,  F. Pavosevic,  Zheng Pei,  S. Prager,  
 E. I. Proynov,  E. Ramos,  B. Rana,  A. E. Rask,  A. Rettig,  R. M. Richard,  
 F. Rob,  E. Rossomme,  T. Scheele,  M. Scheurer,  M. Schneider,  
 N. Sergueev,  S. M. Sharada,  W. Skomorowski,  D. W. Small,  C. J. Stein,  
 Yu-Chuan Su,  E. J. Sundstrom,  Zhen Tao,  J. Thirman,  T. Tsuchimochi,  
 N. M. Tubman,  S. P. Veccham,  O. Vydrov,  J. Wenzel,  J. Witte,  A. Yamada,  
 Kun Yao,  S. Yeganeh,  S. R. Yost,  A. Zech,  Igor Ying Zhang,  Xing Zhang,  
 Yu Zhang,  D. Zuev,  A. Aspuru-Guzik,  A. T. Bell,  N. A. Besley,  
 K. B. Bravaya,  B. R. Brooks,  D. Casanova,  Jeng-Da Chai,  S. Coriani,  
 C. J. Cramer,  A. E. DePrince, III,  R. A. DiStasio Jr.,  A. Dreuw,  
 B. D. Dunietz,  T. R. Furlani,  W. A. Goddard III,  S. Grimme,  
 S. Hammes-Schiffer,  T. Head-Gordon,  W. J. Hehre,  Chao-Ping Hsu,  
 T.-C. Jagau,  Yousung Jung,  A. Klamt,  Jing Kong,  D. S. Lambrecht,  
 WanZhen Liang,  N. J. Mayhall,  C. W. McCurdy,  J. B. Neaton,  
 C. Ochsenfeld,  J. A. Parkhill,  R. Peverati,  V. A. Rassolov,  Yihan Shao,  
 L. V. Slipchenko,  T. Stauch,  R. P. Steele,  J. E. Subotnik,  
 A. J. W. Thom,  A. Tkatchenko,  D. G. Truhlar,  T. Van Voorhis,  
 T. A. Wesolowski,  K. B. Whaley,  H. L. Woodcock III,  P. M. Zimmerman,  
 S. Faraji,  P. M. W. Gill,  M. Head-Gordon,  J. M. Herbert,  A. I. Krylov

 Additional authors for Version 5.4.1: 
 S. Kotaru,  Shaozhi Li,  Xiangyuan Li,  F. Matz,  A. Molle,  Haisheng Ren,  
 Yingli Su,  Hung-Yi Tsai,  C. Utku,  Fang Wang

 Contributors to earlier versions of Q-Chem not listed above: 
 R. D. Adamson,  B. Austin,  R. Baer,  J. Baker,  G. J. O. Beran,  
 K. Brandhorst,  S. T. Brown,  E. F. C. Byrd,  A. K. Chakraborty,  
 G. K. L. Chan,  Chun-Min Chang,  Yunqing Chen,  C.-L. Cheng,  
 Siu Hung Chien,  D. M. Chipman,  D. L. Crittenden,  H. Dachsel,  
 R. J. Doerksen,  A. D. Dutoi,  R. G. Edgar,  J. Fosso-Tande,  
 L. Fusti-Molnar,  D. Ghosh,  A. Ghysels,  A. Golubeva-Zadorozhnaya,  
 J. Gonthier,  M. S. Gordon,  S. R. Gwaltney,  G. Hawkins,  J. E. Herr,  
 A. Heyden,  S. Hirata,  E. G. Hohenstein,  G. Kedziora,  F. J. Keil,  
 C. Kelley,  Jihan Kim,  R. A. King,  R. Z. Khaliullin,  P. P. Korambath,  
 W. Kurlancheek,  A. Laurent,  A. M. Lee,  M. S. Lee,  S. V. Levchenko,  
 Ching Yeh Lin,  D. Liotard,  E. Livshits,  R. C. Lochan,  I. Lotan,  
 L. A. Martinez-Martinez,  P. E. Maslen,  N. Nair,  D. P. O'Neill,  
 D. Neuhauser,  E. Neuscamman,  C. M. Oana,  R. Olivares-Amaya,  R. Olson,  
 T. M. Perrine,  B. Peters,  P. A. Pieniazek,  A. Prociuk,  Y. M. Rhee,  
 J. Ritchie,  M. A. Rohrdanz,  E. Rosta,  N. J. Russ,  H. F. Schaefer III,  
 M. W. Schmidt,  N. E. Schultz,  S. Sharma,  N. Shenvi,  C. D. Sherrill,  
 A. C. Simmonett,  A. Sodt,  T. Stein,  D. Stuck,  K. S. Thanthiriwatte,  
 V. Vanovschi,  L. Vogt,  Tao Wang,  A. Warshel,  M. A. Watson,  
 C. F. Williams,  Q. Wu,  X. Xu,  Jun Yang,  W. Zhang,  Yan Zhao

 Please cite Q-Chem as follows:
 Y. Shao et al., Mol. Phys. 113, 184-215 (2015)
 DOI: 10.1080/00268976.2014.952696

 Q-Chem 5.4.1 for Intel X86 EM64T Linux

 Parts of Q-Chem use Armadillo 9.800.1 (Horizon Scraper).
 http://arma.sourceforge.net/

 Q-Chem begins on Mon Jul  1 18:52:01 2024  

 Host: 
0

     Scratch files written to /scratch/ari.fischer/qChem2201972.hpc-mn1/qchem144850//
 Aug1521 |scratch|qcdevops|jenkins|workspace|build_RNUM 8249   
 Processing $rem in /usr/local/qchem-5.4.1/config/preferences:
 Processing $rem in /home/ari.fischer/.qchemrc:
 Symmetry turned off for PCM/SM12/SMD calculation

 Checking the input file for inconsistencies... 	...done.

--------------------------------------------------------------
User input:
--------------------------------------------------------------
$molecule
0 1
C         2.4241859743   -0.7974995707   -0.9454672262
O         3.4566646569   -1.6545989536   -1.3761718595
C         3.0310385498    0.0620336772    0.1626030740
O         2.6310033380   -0.0433610492    1.3088631587
C         4.1242845282    1.0141104488   -0.2513282448
C         4.7333600992    1.7315695613    0.9370991035
O         5.4322121129    0.7276149683    1.6841183398
O         5.3838092228    1.0722096105    3.0750889628
C         5.6991778187    2.8405329196    0.5299419522
O         4.9248373552    3.8106950346   -0.1386088669
O         6.3785778216    3.3803530043    1.6392806305
H         1.5836037816   -1.3698690931   -0.5399840153
H         3.0428321707   -2.3977471874   -1.8465296287
H         3.7012016192    1.7369955759   -0.9573598385
H         4.8881304300    0.4542168417   -0.8058310035
H         3.9459299593    2.1543953276    1.5708392830
H         4.5582851954    0.6242320641    3.3440945048
H         6.4854937176    2.4419418342   -0.1210782431
H         5.5440144430    4.4505787726   -0.5271075076
H         5.7020425830    3.6546641161    2.2829153946
O         1.9979184277    0.0890468977   -1.9526978115
H         1.3845404947   -0.3948181003   -2.5306928581
$end

$rem
BASIS = 6-311++G(2df,2p)
GUI = 2
JOB_TYPE = Optimization
METHOD = wB97M-V
SCF_ALGORITHM = DIIS_GDM
MAX_SCF_CYCLES = 400
GEOM_OPT_MAX_CYCLES = 150
SCF_CONVERGENCE = 7
THRESH = 12
Solvent_method = SMD
$end
--------------------------------------------------------------
 ----------------------------------------------------------------
             Standard Nuclear Orientation (Angstroms)
    I     Atom           X                Y                Z
 ----------------------------------------------------------------
    1      C       2.4241859743    -0.7974995707    -0.9454672262
    2      O       3.4566646569    -1.6545989536    -1.3761718595
    3      C       3.0310385498     0.0620336772     0.1626030740
    4      O       2.6310033380    -0.0433610492     1.3088631587
    5      C       4.1242845282     1.0141104488    -0.2513282448
    6      C       4.7333600992     1.7315695613     0.9370991035
    7      O       5.4322121129     0.7276149683     1.6841183398
    8      O       5.3838092228     1.0722096105     3.0750889628
    9      C       5.6991778187     2.8405329196     0.5299419522
   10      O       4.9248373552     3.8106950346    -0.1386088669
   11      O       6.3785778216     3.3803530043     1.6392806305
   12      H       1.5836037816    -1.3698690931    -0.5399840153
   13      H       3.0428321707    -2.3977471874    -1.8465296287
   14      H       3.7012016192     1.7369955759    -0.9573598385
   15      H       4.8881304300     0.4542168417    -0.8058310035
   16      H       3.9459299593     2.1543953276     1.5708392830
   17      H       4.5582851954     0.6242320641     3.3440945048
   18      H       6.4854937176     2.4419418342    -0.1210782431
   19      H       5.5440144430     4.4505787726    -0.5271075076
   20      H       5.7020425830     3.6546641161     2.2829153946
   21      O       1.9979184277     0.0890468977    -1.9526978115
   22      H       1.3845404947    -0.3948181003    -2.5306928581
 ----------------------------------------------------------------
 Nuclear Repulsion Energy =         787.77016860 hartrees
 There are       48 alpha and       48 beta electrons
 Requested basis set is 6-311++G(2df,2p)
 There are 156 shells and 508 basis functions

 Total QAlloc Memory Limit 288000 MB
 Mega-Array Size       188 MB
 MEM_STATIC part       192 MB
 
 Citation of the SMD model:
 Marenich, A.V.; Cramer, C.J.; Truhlar, D.G.
 J. Phys. Chem. B 2009, 113, 6378-6396.
 iSolventCode=           1
 Solvent: water                                                           
 
 vradii
            1           2           3           4           5           6
    1   1.8500000   1.5200000   1.8500000   1.5200000   1.8500000   1.8500000
            7           8           9          10          11          12
    1   1.5200000   1.5200000   1.8500000   1.5200000   1.5200000   1.2000000
           13          14          15          16          17          18
    1   1.2000000   1.2000000   1.2000000   1.2000000   1.2000000   1.2000000
           19          20          21          22
    1   1.2000000   1.2000000   1.5200000   1.2000000
 Changing PCM_VDW_RADII to SMD_RADIUS
 Discretize the solute cavity surface with Lebedev spheres
	Using 110 Lebedev grid points for each H atom
	Using 194 Lebedev grid points for other atoms
	Atomic van der Waals radii will be scaled by 1.20
 Remove points where switching function is < 1.0e-08
 Keep 1751 surface tesserae and discard 1677 interior tesserae
 Molecular Surface Area = 193.757 Angst**2
 A cutoff of  1.0D-12 yielded  10020 shell pairs
 There are    104417 function pairs (    129083 Cartesian)
 Smallest overlap matrix eigenvalue = 3.62E-06

 Scale SEOQF with 1.000000e-02/1.000000e-01/1.000000e-01

 Standard Electronic Orientation quadrupole field applied
 Nucleus-field energy     =     0.0000000096 hartrees
 Guess from superposition of atomic densities
 Warning:  Energy on first SCF cycle will be non-variational
 SAD guess density has 96.000000 electrons

 -----------------------------------------------------------------------
  General SCF calculation program by
  Eric Jon Sundstrom, Paul Horn, Yuezhi Mao, Dmitri Zuev, Alec White,
  David Stuck, Shaama M.S., Shane Yost, Joonho Lee, David Small,
  Daniel Levine, Susi Lehtola, Hugh Burton, Evgeny Epifanovsky,
  Bang C. Huynh
 -----------------------------------------------------------------------
 Exchange:     0.1500 Hartree-Fock + 1.0000 wB97M-V + LR-HF
 Correlation:  1.0000 wB97M-V
 Using SG-2 standard quadrature grid
 Nonlocal Correlation:  VV10 with C = 0.0100 and b = 6.00 and scale = 1.00000
 Grid used for NLC:  SG-1 standard quadrature
 
 Citation of the SMD model:
 Marenich, A.V.; Cramer, C.J.; Truhlar, D.G.
 J. Phys. Chem. B 2009, 113, 6378-6396.
 iSolventCode=           1
 Solvent: water                                                           
 
 vradii
            1           2           3           4           5           6
    1   1.8500000   1.5200000   1.8500000   1.5200000   1.8500000   1.8500000
            7           8           9          10          11          12
    1   1.5200000   1.5200000   1.8500000   1.5200000   1.5200000   1.2000000
           13          14          15          16          17          18
    1   1.2000000   1.2000000   1.2000000   1.2000000   1.2000000   1.2000000
           19          20          21          22
    1   1.2000000   1.2000000   1.5200000   1.2000000
 using 16 threads for integral computing
 -------------------------------------------------------
 OpenMP Integral computing Module                
 Release: version 1.0, May 2013, Q-Chem Inc. Pittsburgh 
 -------------------------------------------------------
 -------------------------------------------------------
 OpenMP BLAS3 based DFT computing Module                
 Release: version 1.0, May 2013, Q-Chem Inc. Pittsburgh 
 -------------------------------------------------------
 A restricted SCF calculation will be
 performed using DIIS, GDM
 SCF converges when RMS gradient is below 1.0e-07
 ---------------------------------------
  Cycle       Energy         DIIS error
 ---------------------------------------
    1    -725.4487965306      2.21e-02  
    2    -722.8618561809      3.00e-03  Done DIIS. Switching to GDM
 ---------------------------------------
  Cycle       Energy        RMS Gradient
 ---------------------------------------
    1    -722.8618561809      1.37e-01   Descent step
    2    -723.0689274355      1.65e-02   Normal BFGS step
    3    -723.0874207857      1.29e-02   Normal BFGS step
    4    -723.0895382685      5.73e-03   Normal BFGS step
    5    -723.0904174027      6.12e-04   Normal BFGS step
    6    -723.0904565979      3.33e-04   Normal BFGS step
    7    -723.0904632052      8.92e-05   Normal BFGS step
    8    -723.0904637502      3.17e-05   Normal BFGS step
    9    -723.0904638048      1.81e-05   Normal BFGS step
   10    -723.0904638224      7.56e-06   Normal BFGS step
   11    -723.0904638254      1.85e-06   Normal BFGS step
   12    -723.0904638255      1.03e-06   Normal BFGS step
   13    -723.0904638255      5.56e-07   Normal BFGS step
   14    -723.0904638255      2.77e-07   Normal BFGS step
   15    -723.0904638256      1.12e-07   Normal BFGS step
  GDM::WARNING energy changes are now smaller than effective accuracy.
  GDM::        calculation will continue, but THRESH should be increased
  GDM::        or SCF_CONVERGENCE decreased. 
  GDM::        effective_thresh = 3.96e-09
   16    -723.0904638253      4.31e-08  Convergence criterion met
 ---------------------------------------
 SCF time:   CPU 2642.91s  wall 187.00s 
(3)  G-ENP(liq) elect-nuc-pol free energy of system     -723.090463825 a.u.
(4)  G-CDS(liq) cavity-dispersion-solvent structure 
     free energy                                                4.9001 kcal/mol
(6)  G-S(liq) free energy of system                     -723.082654955 a.u.
 SCF   energy in the final basis set =     -723.0826549546
 Total energy in the final basis set =     -723.0826549546
 
 --------------------------------------------------------------
 
                    Orbital Energies (a.u.)
 --------------------------------------------------------------
 
 Alpha MOs
 -- Occupied --
-19.4019 -19.3952 -19.3542 -19.3537 -19.3491 -19.3478 -19.3459 -10.4550
-10.4532 -10.4456 -10.4039 -10.3550  -1.2666  -1.2134  -1.2012  -1.1901
 -1.1424  -1.1341  -1.0513  -0.9118  -0.8525  -0.8080  -0.7368  -0.6815
 -0.6665  -0.6558  -0.6534  -0.6390  -0.6301  -0.5948  -0.5810  -0.5657
 -0.5508  -0.5444  -0.5413  -0.5361  -0.5132  -0.5007  -0.4764  -0.4626
 -0.4541  -0.4340  -0.4232  -0.4192  -0.4178  -0.4067  -0.3909  -0.3711
 -- Virtual --
  0.0250   0.0326   0.0367   0.0435   0.0456   0.0573   0.0586   0.0649
  0.0684   0.0830   0.0951   0.0958   0.1077   0.1182   0.1264   0.1313
  0.1360   0.1406   0.1446   0.1481   0.1550   0.1584   0.1621   0.1681
  0.1760   0.1848   0.1906   0.1964   0.2026   0.2101   0.2172   0.2261
  0.2281   0.2395   0.2465   0.2549   0.2556   0.2704   0.2738   0.2744
  0.2812   0.2878   0.2882   0.2915   0.2998   0.3021   0.3143   0.3223
  0.3278   0.3318   0.3369   0.3395   0.3459   0.3505   0.3516   0.3602
  0.3635   0.3711   0.3724   0.3813   0.3848   0.3872   0.3921   0.3979
  0.4067   0.4129   0.4162   0.4300   0.4339   0.4372   0.4444   0.4503
  0.4592   0.4618   0.4693   0.4844   0.4957   0.4999   0.5214   0.5566
  0.5657   0.5816   0.5869   0.5949   0.6007   0.6174   0.6262   0.6397
  0.6488   0.6565   0.6657   0.6693   0.6756   0.6847   0.6982   0.7033
  0.7116   0.7250   0.7297   0.7399   0.7467   0.7543   0.7721   0.7789
  0.7848   0.7865   0.7993   0.8297   0.8458   0.8653   0.8865   0.9051
  0.9090   0.9158   0.9395   0.9507   0.9595   0.9818   0.9929   0.9952
  1.0290   1.0377   1.0467   1.0613   1.0771   1.0781   1.1008   1.1070
  1.1197   1.1252   1.1496   1.1584   1.1613   1.1745   1.1795   1.1868
  1.1910   1.1930   1.2050   1.2115   1.2220   1.2259   1.2365   1.2465
  1.2538   1.2601   1.2671   1.2829   1.2954   1.3009   1.3071   1.3192
  1.3262   1.3470   1.3604   1.3637   1.3714   1.3828   1.3928   1.4072
  1.4178   1.4405   1.4536   1.4632   1.4711   1.4929   1.4940   1.5064
  1.5180   1.5355   1.5416   1.5460   1.5474   1.5658   1.5809   1.5872
  1.5978   1.6121   1.6229   1.6413   1.6737   1.6824   1.6961   1.7047
  1.7213   1.7334   1.7441   1.7565   1.7804   1.8119   1.8366   1.8488
  1.8564   1.8934   1.8974   1.9020   1.9299   1.9409   1.9554   1.9591
  1.9939   1.9976   2.0594   2.0699   2.0795   2.1231   2.1699   2.2036
  2.2165   2.2330   2.2421   2.2771   2.3064   2.3262   2.3443   2.3556
  2.3939   2.4037   2.4157   2.4216   2.4369   2.4505   2.4692   2.5134
  2.5343   2.5561   2.5944   2.6460   2.6713   2.7192   2.7357   2.7794
  2.8121   2.8265   2.8332   2.8576   2.8686   2.8936   2.9141   2.9217
  2.9407   2.9425   2.9483   3.0321   3.0513   3.0587   3.0835   3.1004
  3.1214   3.1585   3.1742   3.2024   3.2152   3.2437   3.2562   3.2794
  3.3126   3.3367   3.3600   3.3809   3.3847   3.4008   3.4116   3.4408
  3.4651   3.4695   3.4863   3.5115   3.5404   3.5543   3.5730   3.5885
  3.6087   3.6273   3.6539   3.6659   3.6689   3.6881   3.6944   3.7103
  3.7262   3.7440   3.7748   3.7756   3.7904   3.7979   3.8187   3.8306
  3.8430   3.8554   3.8595   3.8714   3.9034   3.9109   3.9157   3.9234
  3.9337   3.9638   3.9821   3.9917   4.0028   4.0553   4.0847   4.1061
  4.1164   4.1247   4.1517   4.1734   4.1890   4.2039   4.2200   4.2384
  4.2519   4.2677   4.2797   4.2999   4.3069   4.3166   4.3346   4.3558
  4.3921   4.4009   4.4510   4.4563   4.4621   4.5157   4.5408   4.5515
  4.5616   4.5884   4.6356   4.6592   4.6696   4.7098   4.7311   4.7896
  4.8262   4.8739   4.9389   4.9937   5.0398   5.0709   5.1773   5.1901
  5.1976   5.2095   5.2145   5.2293   5.2381   5.2580   5.2720   5.2747
  5.2872   5.2959   5.3139   5.3161   5.3254   5.3457   5.3471   5.3588
  5.3685   5.3964   5.4104   5.4250   5.4355   5.4567   5.4649   5.4838
  5.4993   5.5067   5.5347   5.5458   5.5565   5.5578   5.5945   5.6052
  5.6132   5.6168   5.6264   5.6442   5.6586   5.6637   5.6757   5.6993
  5.7100   5.7626   5.7866   5.8310   5.8339   5.8436   5.8974   5.9848
  6.0036   6.0460   6.0646   6.1019   6.1493   6.1582   6.2343   6.4063
  6.5125   6.5387   6.6293   6.6990   6.7480   6.7639   6.8359   6.9917
  7.0122   7.0337   7.0520   7.0550   7.0822   7.1104   7.1354   7.1640
  7.2014   7.2138   7.2344   7.2434   7.2520   7.2685   7.2768   7.2839
  7.2944   7.3278   7.3667   7.3841   7.3944   7.4020   7.4319   7.4724
  7.5259   7.5410   7.5937   7.6059   7.6510   7.6841   7.6949   7.7125
  7.7897   7.7965   7.8159   7.8539   7.8763   7.8992   7.9649   8.1790
 24.6276  24.7627  24.7760  24.8352  25.0202  50.5056  50.5706  50.5792
 50.6235  50.6303  50.6394  50.7592
 --------------------------------------------------------------
 
          Ground-State Mulliken Net Atomic Charges

     Atom                 Charge (a.u.)
  ----------------------------------------
      1 C                    -0.214338
      2 O                    -0.376068
      3 C                     0.493914
      4 O                    -0.422269
      5 C                    -0.577999
      6 C                     0.027469
      7 O                    -0.097699
      8 O                    -0.325065
      9 C                    -0.322288
     10 O                    -0.419379
     11 O                    -0.457237
     12 H                     0.250993
     13 H                     0.343356
     14 H                     0.221502
     15 H                     0.274549
     16 H                     0.306519
     17 H                     0.355996
     18 H                     0.291034
     19 H                     0.339547
     20 H                     0.345932
     21 O                    -0.383357
     22 H                     0.344887
  ----------------------------------------
  Sum of atomic charges =     0.000000

 -----------------------------------------------------------------
                    Cartesian Multipole Moments
 -----------------------------------------------------------------
    Charge (ESU x 10^10)
                -0.0000
    Dipole Moment (Debye)
         X      -4.4945      Y      -1.5987      Z      -5.0494
       Tot       6.9464
    Quadrupole Moments (Debye-Ang)
        XX    -109.5003     XY       1.2215     YY     -59.9757
        XZ     -21.9636     YZ       4.3330     ZZ     -66.6216
    Octopole Moments (Debye-Ang^2)
       XXX   -1185.7272    XXY     -69.1092    XYY    -255.6706
       YYY    -205.5463    XXZ    -183.8850    XYZ     -24.1873
       YYZ     -49.5567    XZZ    -317.5989    YZZ     -83.0557
       ZZZ     -80.1973
    Hexadecapole Moments (Debye-Ang^3)
      XXXX  -10567.8872   XXXY   -1427.3144   XXYY   -1529.3614
      XYYY   -1127.9103   YYYY   -1435.7121   XXXZ   -1784.0830
      XXYZ    -399.7065   XYYZ    -342.7506   YYYZ    -278.4328
      XXZZ   -1813.9701   XYZZ    -461.8180   YYZZ    -370.2485
      XZZZ    -603.5383   YZZZ    -216.9172   ZZZZ    -869.8914
 -----------------------------------------------------------------
 Calculating analytic gradient of the SCF energy
 Gradient of CDS energy
            1           2           3           4           5           6
    1   0.0002699  -0.0012631  -0.0005199   0.0002522   0.0000848   0.0000899
    2  -0.0000407   0.0014075  -0.0001112   0.0000581   0.0001228  -0.0000367
    3  -0.0019155   0.0004799   0.0017050  -0.0013442  -0.0001196  -0.0000334
            7           8           9          10          11          12
    1  -0.0000071   0.0001694   0.0004124   0.0007839  -0.0010945  -0.0000582
    2   0.0000893   0.0000242   0.0019332  -0.0012378  -0.0009834  -0.0000507
    3   0.0000404  -0.0002894   0.0006569   0.0009705  -0.0016326   0.0000611
           13          14          15          16          17          18
    1   0.0001750  -0.0000752   0.0001415  -0.0000252  -0.0000528   0.0001137
    2  -0.0004639   0.0001024  -0.0001414   0.0000398  -0.0001218  -0.0002059
    3  -0.0001836  -0.0000825  -0.0000222   0.0000543   0.0004736  -0.0000013
           19          20          21          22
    1  -0.0000226   0.0000071   0.0009424  -0.0003238
    2   0.0004191   0.0003660  -0.0013107   0.0001419
    3  -0.0003018   0.0003430   0.0015339  -0.0003926
 Gradient of SCF Energy
            1           2           3           4           5           6
    1   0.0162023   0.0184424  -0.0051848  -0.0031329  -0.0066471   0.0054982
    2   0.0134741   0.0196453  -0.0059587  -0.0018950  -0.0025893  -0.0056325
    3   0.0009364   0.0144308  -0.0145849   0.0104646   0.0038218  -0.0052575
            7           8           9          10          11          12
    1   0.0017199   0.0151358  -0.0050630  -0.0185102   0.0183327  -0.0123691
    2  -0.0067575   0.0092873   0.0086993  -0.0095863  -0.0069253  -0.0090004
    3  -0.0036682   0.0023078   0.0066134   0.0048188  -0.0022613   0.0032163
           13          14          15          16          17          18
    1  -0.0158534  -0.0012597   0.0044173  -0.0041971  -0.0130231   0.0040559
    2  -0.0191600   0.0034511  -0.0010235   0.0033253  -0.0046033  -0.0020906
    3  -0.0134300  -0.0033112  -0.0031820   0.0036840   0.0040581  -0.0061964
           19          20          21          22
    1   0.0139348  -0.0134315   0.0180477  -0.0171148
    2   0.0103381   0.0047760   0.0193397  -0.0171138
    3  -0.0075058   0.0050470   0.0147579  -0.0147595
 Max gradient component =       1.965E-02
 RMS gradient           =       1.031E-02
 Computing fast CPCM-SWIG gradient
 Updating gradient with PCM contributions...
 -- total gradient after adding PCM contribution --
---------------------------------------------------
  Atom         X              Y              Z     
---------------------------------------------------
   1      -0.000138      -0.001172      -0.004109
   2       0.006164       0.005036       0.004575
   3       0.001093      -0.001442      -0.007507
   4      -0.002606      -0.000567       0.010118
   5      -0.000508      -0.000273      -0.000114
   6       0.000984       0.000863      -0.000586
   7       0.000131      -0.003843      -0.002884
   8       0.006696       0.006234       0.002416
   9      -0.001076       0.004706       0.002364
  10      -0.008140      -0.004795       0.001509
  11       0.008230      -0.002909      -0.002883
  12      -0.002507      -0.001483       0.002162
  13      -0.004106      -0.004553      -0.003443
  14      -0.000979       0.002528      -0.002219
  15       0.002313      -0.001585      -0.001520
  16      -0.002133       0.000938       0.001489
  17      -0.006070      -0.003501      -0.000063
  18       0.002674      -0.001530      -0.000936
  19       0.005593       0.003711      -0.001853
  20      -0.006075       0.001358       0.002862
  21       0.004367       0.006867       0.004223
  22      -0.003908      -0.004587      -0.003598
---------------------------------------------------
 Number of fixed atoms: 0
 Gradient time:  CPU 527.41 s  wall 45.03 s
 Geometry Optimization Parameters
   NAtoms,    NIC,     NZ,  NCons,   NDum,   NFix, NCnnct, MaxDiis
       22     144       0       0       0       0       0       0


** GEOMETRY OPTIMIZATION IN DELOCALIZED INTERNAL COORDINATES **
   Searching for a Minimum

   Optimization Cycle:   1

                       Coordinates (Angstroms)
     ATOM                X               Y               Z
      1  C         2.4241859743   -0.7974995707   -0.9454672262
      2  O         3.4566646569   -1.6545989536   -1.3761718595
      3  C         3.0310385498    0.0620336772    0.1626030740
      4  O         2.6310033380   -0.0433610492    1.3088631587
      5  C         4.1242845282    1.0141104488   -0.2513282448
      6  C         4.7333600992    1.7315695613    0.9370991035
      7  O         5.4322121129    0.7276149683    1.6841183398
      8  O         5.3838092228    1.0722096105    3.0750889628
      9  C         5.6991778187    2.8405329196    0.5299419522
     10  O         4.9248373552    3.8106950346   -0.1386088669
     11  O         6.3785778216    3.3803530043    1.6392806305
     12  H         1.5836037816   -1.3698690931   -0.5399840153
     13  H         3.0428321707   -2.3977471874   -1.8465296287
     14  H         3.7012016192    1.7369955759   -0.9573598385
     15  H         4.8881304300    0.4542168417   -0.8058310035
     16  H         3.9459299593    2.1543953276    1.5708392830
     17  H         4.5582851954    0.6242320641    3.3440945048
     18  H         6.4854937176    2.4419418342   -0.1210782431
     19  H         5.5440144430    4.4505787726   -0.5271075076
     20  H         5.7020425830    3.6546641161    2.2829153946
     21  O         1.9979184277    0.0890468977   -1.9526978115
     22  H         1.3845404947   -0.3948181003   -2.5306928581
   Point Group: c1    Number of degrees of freedom:    60


   Energy is   -723.082654955


 Attempting to generate delocalized internal coordinates
 Initial Hessian constructed with Jon Baker's OPTIMIZE code

 60 Hessian modes will be used to form the next step
  Hessian Eigenvalues:
     0.004631    0.005470    0.005752    0.006867    0.007070    0.008168
     0.011240    0.014338    0.014415    0.014533    0.014600    0.043366
     0.044044    0.051486    0.055350    0.058069    0.062202    0.074118
     0.075686    0.080838    0.087231    0.092955    0.094884    0.128521
     0.160000    0.160000    0.160000    0.160000    0.160000    0.166683
     0.182279    0.184892    0.194586    0.206180    0.207414    0.219075
     0.249999    0.250000    0.250000    0.296057    0.298050    0.307608
     0.315889    0.339648    0.341397    0.341675    0.341887    0.342630
     0.404430    0.405184    0.440207    0.441127    0.442545    0.443360
     0.519710    0.527187    0.529726    0.530066    0.530768    0.959948

 Minimum search - taking simple RFO step
 Searching for Lamda that Minimizes Along All modes
 Value Taken    Lamda =  -0.00157606
 Step Taken.  Stepsize is  0.157788

                             Maximum     Tolerance    Cnvgd?
         Gradient           0.011095      0.000300      NO
         Displacement       0.070537      0.001200      NO
         Energy change     *********      0.000001      NO


 New Cartesian Coordinates Obtained by Inverse Iteration

 Displacement from previous Coordinates is:  0.408465
 ----------------------------------------------------------------
             Standard Nuclear Orientation (Angstroms)
    I     Atom           X                Y                Z
 ----------------------------------------------------------------
    1      C       2.4247512361    -0.7841252568    -0.9508906913
    2      O       3.4423109559    -1.6752329429    -1.3429640176
    3      C       3.0166309666     0.0842461374     0.1580571563
    4      O       2.5805095575     0.0015564228     1.2868021207
    5      C       4.1258177683     1.0180285578    -0.2362435934
    6      C       4.7334103763     1.7343434874     0.9491708162
    7      O       5.4432663140     0.7343407000     1.6889448812
    8      O       5.3868362268     1.0395374209     3.0848775577
    9      C       5.6866417204     2.8447517065     0.5225332983
   10      O       4.9044327879     3.8128805284    -0.1377370274
   11      O       6.3770818063     3.4025493980     1.6153875895
   12      H       1.5657308372    -1.3305721790    -0.5631638461
   13      H       3.0338720702    -2.4232854350    -1.7957932645
   14      H       3.7176313611     1.7377614343    -0.9459685350
   15      H       4.8852234913     0.4515357850    -0.7802793936
   16      H       3.9520156385     2.1545433705     1.5847901415
   17      H       4.6239899907     0.5150093943     3.3750079971
   18      H       6.4586359579     2.4517534815    -0.1410431604
   19      H       5.5000696718     4.4515040152    -0.5477817352
   20      H       5.7298640327     3.6771397544     2.2789406822
   21      O       2.0391208995     0.0799993767    -1.9919863432
   22      H       1.4253006328    -0.3909684572    -2.5686733331
 ----------------------------------------------------------------
 Nuclear Repulsion Energy =         787.41963147 hartrees
 There are       48 alpha and       48 beta electrons
 Discretize the solute cavity surface with Lebedev spheres
	Using 110 Lebedev grid points for each H atom
	Using 194 Lebedev grid points for other atoms
	Atomic van der Waals radii will be scaled by 1.20
 Remove points where switching function is < 1.0e-08
 Keep 1746 surface tesserae and discard 1682 interior tesserae
 Molecular Surface Area = 194.026 Angst**2
 Applying Cartesian multipole field
    Component          Value
    ---------          -----
     (2,0,0)        1.00000E-12
     (0,2,0)        2.00000E-11
     (0,0,2)       -3.00000E-11
 Nucleus-field energy     =     0.0000000097 hartrees
 Requested basis set is 6-311++G(2df,2p)
 There are 156 shells and 508 basis functions
 A cutoff of  1.0D-12 yielded  10007 shell pairs
 There are    104171 function pairs (    128710 Cartesian)
 Smallest overlap matrix eigenvalue = 3.62E-06
 Guess MOs from SCF MO coefficient file

 -----------------------------------------------------------------------
  General SCF calculation program by
  Eric Jon Sundstrom, Paul Horn, Yuezhi Mao, Dmitri Zuev, Alec White,
  David Stuck, Shaama M.S., Shane Yost, Joonho Lee, David Small,
  Daniel Levine, Susi Lehtola, Hugh Burton, Evgeny Epifanovsky,
  Bang C. Huynh
 -----------------------------------------------------------------------
 Exchange:     0.1500 Hartree-Fock + 1.0000 wB97M-V + LR-HF
 Correlation:  1.0000 wB97M-V
 Using SG-2 standard quadrature grid
 Nonlocal Correlation:  VV10 with C = 0.0100 and b = 6.00 and scale = 1.00000
 Grid used for NLC:  SG-1 standard quadrature
 
 Citation of the SMD model:
 Marenich, A.V.; Cramer, C.J.; Truhlar, D.G.
 J. Phys. Chem. B 2009, 113, 6378-6396.
 iSolventCode=           1
 Solvent: water                                                           
 
 vradii
            1           2           3           4           5           6
    1   1.8500000   1.5200000   1.8500000   1.5200000   1.8500000   1.8500000
            7           8           9          10          11          12
    1   1.5200000   1.5200000   1.8500000   1.5200000   1.5200000   1.2000000
           13          14          15          16          17          18
    1   1.2000000   1.2000000   1.2000000   1.2000000   1.2000000   1.2000000
           19          20          21          22
    1   1.2000000   1.2000000   1.5200000   1.2000000
 -------------------------------------------------------
 OpenMP BLAS3 based DFT computing Module                
 Release: version 1.0, May 2013, Q-Chem Inc. Pittsburgh 
 -------------------------------------------------------
 A restricted SCF calculation will be
 performed using Roothaan-Hall, DIIS, GDM
 SCF converges when RMS gradient is below 1.0e-07
 ---------------------------------------
  Cycle       Energy         DIIS error
 ---------------------------------------
    1    -723.0236701893      5.41e-04  Roothaan Step
 ---------------------------------------
  Cycle       Energy         DIIS error
 ---------------------------------------
    1    -723.0807643715      4.65e-04  
    2    -723.0884320903      3.54e-04  Done DIIS. Switching to GDM
 ---------------------------------------
  Cycle       Energy        RMS Gradient
 ---------------------------------------
    1    -723.0884320903      9.20e-03   Normal BFGS step
    2    -723.0883279038      1.45e-02  Line search: overstep
    3    -723.0910118649      2.46e-03   Normal BFGS step
    4    -723.0912397248      6.09e-04   Normal BFGS step
    5    -723.0912724222      6.53e-04   Normal BFGS step
    6    -723.0912832135      7.66e-05   Normal BFGS step
    7    -723.0912838125      2.93e-05   Normal BFGS step
    8    -723.0912839337      1.34e-05   Normal BFGS step
    9    -723.0912839441      6.87e-06   Normal BFGS step
   10    -723.0912839473      4.05e-06   Normal BFGS step
   11    -723.0912839476      2.16e-06   Normal BFGS step
   12    -723.0912839477      8.95e-07   Normal BFGS step
   13    -723.0912839477      3.20e-07   Normal BFGS step
   14    -723.0912839477      1.31e-07   Normal BFGS step
   15    -723.0912839477      2.66e-08  Convergence criterion met
 ---------------------------------------
 SCF time:   CPU 2735.09s  wall 193.00s 
(3)  G-ENP(liq) elect-nuc-pol free energy of system     -723.091283948 a.u.
(4)  G-CDS(liq) cavity-dispersion-solvent structure 
     free energy                                                4.9586 kcal/mol
(6)  G-S(liq) free energy of system                     -723.083381889 a.u.
 SCF   energy in the final basis set =     -723.0833818891
 Total energy in the final basis set =     -723.0833818891
 
 --------------------------------------------------------------
 
                    Orbital Energies (a.u.)
 --------------------------------------------------------------
 
 Alpha MOs
 -- Occupied --
-19.4023 -19.3949 -19.3528 -19.3524 -19.3488 -19.3464 -19.3449 -10.4541
-10.4522 -10.4455 -10.4037 -10.3531  -1.2679  -1.2146  -1.2020  -1.1926
 -1.1429  -1.1345  -1.0534  -0.9137  -0.8539  -0.8098  -0.7385  -0.6838
 -0.6675  -0.6576  -0.6550  -0.6416  -0.6321  -0.5956  -0.5824  -0.5688
 -0.5511  -0.5457  -0.5418  -0.5350  -0.5124  -0.5004  -0.4771  -0.4637
 -0.4539  -0.4341  -0.4230  -0.4186  -0.4170  -0.4055  -0.3915  -0.3717
 -- Virtual --
  0.0251   0.0328   0.0367   0.0439   0.0461   0.0573   0.0590   0.0647
  0.0682   0.0833   0.0954   0.0960   0.1080   0.1180   0.1272   0.1311
  0.1363   0.1410   0.1444   0.1491   0.1554   0.1586   0.1629   0.1679
  0.1754   0.1845   0.1915   0.1967   0.2035   0.2104   0.2178   0.2264
  0.2300   0.2405   0.2460   0.2543   0.2559   0.2703   0.2745   0.2756
  0.2814   0.2875   0.2892   0.2912   0.3017   0.3039   0.3146   0.3234
  0.3286   0.3322   0.3376   0.3414   0.3468   0.3504   0.3532   0.3608
  0.3638   0.3712   0.3725   0.3818   0.3857   0.3880   0.3927   0.3983
  0.4048   0.4129   0.4175   0.4314   0.4355   0.4362   0.4465   0.4502
  0.4578   0.4625   0.4694   0.4831   0.4961   0.4988   0.5223   0.5600
  0.5677   0.5825   0.5889   0.5957   0.6046   0.6196   0.6276   0.6394
  0.6492   0.6563   0.6669   0.6705   0.6775   0.6876   0.7009   0.7045
  0.7121   0.7254   0.7344   0.7409   0.7489   0.7552   0.7724   0.7820
  0.7866   0.7884   0.7990   0.8309   0.8466   0.8734   0.8830   0.8992
  0.9076   0.9151   0.9399   0.9461   0.9625   0.9823   0.9914   0.9961
  1.0233   1.0404   1.0490   1.0647   1.0783   1.0802   1.1009   1.1087
  1.1192   1.1241   1.1502   1.1554   1.1609   1.1736   1.1773   1.1865
  1.1905   1.1937   1.2048   1.2086   1.2217   1.2263   1.2353   1.2468
  1.2549   1.2632   1.2672   1.2827   1.2947   1.2996   1.3074   1.3230
  1.3282   1.3476   1.3619   1.3633   1.3682   1.3800   1.3935   1.4074
  1.4182   1.4389   1.4518   1.4656   1.4745   1.4945   1.4991   1.5095
  1.5204   1.5307   1.5445   1.5475   1.5526   1.5688   1.5867   1.5902
  1.6036   1.6156   1.6250   1.6434   1.6708   1.6855   1.7013   1.7099
  1.7247   1.7302   1.7478   1.7571   1.7797   1.8109   1.8332   1.8500
  1.8613   1.8924   1.8965   1.9059   1.9294   1.9416   1.9593   1.9614
  1.9869   1.9986   2.0567   2.0709   2.0824   2.1263   2.1732   2.2054
  2.2123   2.2359   2.2405   2.2755   2.3045   2.3289   2.3429   2.3568
  2.3929   2.4015   2.4135   2.4230   2.4365   2.4464   2.4697   2.5166
  2.5360   2.5550   2.5957   2.6509   2.6676   2.7179   2.7358   2.7736
  2.8091   2.8326   2.8366   2.8467   2.8639   2.8929   2.9183   2.9244
  2.9425   2.9459   2.9514   3.0358   3.0516   3.0586   3.0867   3.0974
  3.1250   3.1535   3.1745   3.2033   3.2190   3.2472   3.2581   3.2824
  3.3135   3.3417   3.3580   3.3823   3.3870   3.4030   3.4140   3.4441
  3.4649   3.4705   3.4896   3.5124   3.5415   3.5527   3.5763   3.5927
  3.6091   3.6308   3.6560   3.6651   3.6733   3.6878   3.6982   3.7155
  3.7290   3.7436   3.7733   3.7797   3.7924   3.7992   3.8201   3.8326
  3.8436   3.8586   3.8636   3.8759   3.9053   3.9108   3.9182   3.9311
  3.9358   3.9602   3.9779   3.9937   4.0123   4.0603   4.0914   4.1091
  4.1195   4.1343   4.1557   4.1849   4.1967   4.2116   4.2294   4.2448
  4.2559   4.2768   4.2834   4.3120   4.3162   4.3287   4.3471   4.3677
  4.4044   4.4086   4.4613   4.4644   4.4753   4.5206   4.5461   4.5529
  4.5671   4.5976   4.6449   4.6675   4.6760   4.7191   4.7336   4.8011
  4.8273   4.8792   4.9448   4.9928   5.0371   5.0726   5.1786   5.1899
  5.1976   5.2128   5.2168   5.2316   5.2434   5.2580   5.2742   5.2781
  5.2875   5.2992   5.3142   5.3154   5.3225   5.3467   5.3474   5.3607
  5.3686   5.3991   5.4101   5.4195   5.4354   5.4592   5.4666   5.4910
  5.5005   5.5148   5.5380   5.5528   5.5631   5.5653   5.6034   5.6167
  5.6216   5.6294   5.6334   5.6520   5.6684   5.6722   5.6818   5.7018
  5.7099   5.7726   5.7945   5.8422   5.8476   5.8572   5.9098   6.0031
  6.0256   6.0642   6.0855   6.1129   6.1424   6.1561   6.2529   6.4247
  6.5202   6.5437   6.6350   6.7062   6.7566   6.7831   6.8495   6.9932
  7.0108   7.0359   7.0539   7.0561   7.0817   7.1150   7.1393   7.1633
  7.2077   7.2243   7.2540   7.2651   7.2674   7.2793   7.2948   7.3121
  7.3171   7.3315   7.3693   7.3796   7.3944   7.3993   7.4315   7.4792
  7.5288   7.5451   7.6014   7.6192   7.6599   7.6924   7.7024   7.7189
  7.7947   7.7994   7.8153   7.8591   7.8757   7.9008   7.9692   8.1707
 24.6417  24.7781  24.7860  24.8475  25.0402  50.5048  50.5748  50.5802
 50.6270  50.6328  50.6395  50.7651
 --------------------------------------------------------------
 
          Ground-State Mulliken Net Atomic Charges

     Atom                 Charge (a.u.)
  ----------------------------------------
      1 C                    -0.213696
      2 O                    -0.377451
      3 C                     0.498449
      4 O                    -0.420441
      5 C                    -0.555425
      6 C                     0.010433
      7 O                    -0.101133
      8 O                    -0.320098
      9 C                    -0.334136
     10 O                    -0.416736
     11 O                    -0.463061
     12 H                     0.251904
     13 H                     0.341876
     14 H                     0.223049
     15 H                     0.276042
     16 H                     0.308861
     17 H                     0.354992
     18 H                     0.293269
     19 H                     0.337980
     20 H                     0.346590
     21 O                    -0.385264
     22 H                     0.343996
  ----------------------------------------
  Sum of atomic charges =     0.000000

 -----------------------------------------------------------------
                    Cartesian Multipole Moments
 -----------------------------------------------------------------
    Charge (ESU x 10^10)
                -0.0000
    Dipole Moment (Debye)
         X      -4.3281      Y      -1.7855      Z      -4.8684
       Tot       6.7544
    Quadrupole Moments (Debye-Ang)
        XX    -108.5009     XY       0.3429     YY     -60.1109
        XZ     -20.6216     YZ       3.4133     ZZ     -65.9757
    Octopole Moments (Debye-Ang^2)
       XXX   -1181.2899    XXY     -74.0403    XYY    -256.5427
       YYY    -206.7932    XXZ    -175.5116    XYZ     -26.9229
       YYZ     -49.8344    XZZ    -312.2708    YZZ     -84.2736
       ZZZ     -76.6502
    Hexadecapole Moments (Debye-Ang^3)
      XXXX  -10554.2168   XXXY   -1458.3129   XXYY   -1539.0649
      XYYY   -1133.5412   YYYY   -1439.5216   XXXZ   -1735.2751
      XXYZ    -405.0917   XYYZ    -341.6542   YYYZ    -277.7143
      XXZZ   -1779.1947   XYZZ    -462.8776   YYZZ    -369.6486
      XZZZ    -581.3222   YZZZ    -222.5317   ZZZZ    -859.8825
 -----------------------------------------------------------------
 Calculating analytic gradient of the SCF energy
 Gradient of CDS energy
            1           2           3           4           5           6
    1   0.0004377  -0.0014212  -0.0005537   0.0002632   0.0000880   0.0000884
    2  -0.0001067   0.0016011  -0.0000759   0.0000435   0.0001192  -0.0000377
    3  -0.0021631   0.0004969   0.0016444  -0.0012875  -0.0001153  -0.0000348
            7           8           9          10          11          12
    1  -0.0000059   0.0001604   0.0003699   0.0009331  -0.0011808  -0.0000583
    2   0.0000935   0.0000402   0.0021320  -0.0013850  -0.0010553  -0.0000479
    3   0.0000393  -0.0002936   0.0007038   0.0010360  -0.0017108   0.0000494
           13          14          15          16          17          18
    1   0.0001671  -0.0000704   0.0001403  -0.0000268  -0.0000348   0.0000932
    2  -0.0004726   0.0000987  -0.0001381   0.0000394  -0.0001566  -0.0001820
    3  -0.0001696  -0.0000794  -0.0000173   0.0000615   0.0004759  -0.0000404
           19          20          21          22
    1  -0.0000308   0.0000191   0.0009356  -0.0003132
    2   0.0004161   0.0003668  -0.0014296   0.0001369
    3  -0.0003069   0.0003478   0.0017672  -0.0004032
 Gradient of SCF Energy
            1           2           3           4           5           6
    1   0.0166031   0.0118990  -0.0054119  -0.0011184  -0.0063029   0.0048832
    2   0.0147658   0.0146099  -0.0053061  -0.0004675  -0.0016387  -0.0056815
    3   0.0053565   0.0099133  -0.0075942   0.0019049   0.0035763  -0.0045923
            7           8           9          10          11          12
    1   0.0021467   0.0079617  -0.0045331  -0.0100638   0.0103211  -0.0098698
    2  -0.0033735   0.0041564   0.0036460  -0.0052477  -0.0035529  -0.0073843
    3  -0.0030951   0.0018058   0.0041928   0.0039088  -0.0003259   0.0005337
           13          14          15          16          17          18
    1  -0.0116709  -0.0000707   0.0020618  -0.0019955  -0.0070243   0.0012246
    2  -0.0150315   0.0007188   0.0004463   0.0022274  -0.0029837  -0.0006708
    3  -0.0102984  -0.0008111  -0.0015219   0.0014184   0.0052717  -0.0057066
           19          20          21          22
    1   0.0083995  -0.0074689   0.0134524  -0.0134230
    2   0.0073598   0.0037591   0.0121380  -0.0124896
    3  -0.0060695   0.0029893   0.0108748  -0.0117313
 Max gradient component =       1.660E-02
 RMS gradient           =       7.358E-03
 Computing fast CPCM-SWIG gradient
 Updating gradient with PCM contributions...
 -- total gradient after adding PCM contribution --
---------------------------------------------------
  Atom         X              Y              Z     
---------------------------------------------------
   1       0.000373       0.000872       0.000291
   2      -0.000070      -0.000045       0.000529
   3       0.000358      -0.001203      -0.000719
   4      -0.000396       0.000391       0.001076
   5       0.000046       0.000725      -0.000405
   6       0.000645       0.000497      -0.000580
   7       0.000488      -0.000669      -0.001967
   8      -0.000154      -0.000038       0.001833
   9      -0.000366      -0.000543      -0.000054
  10       0.000027      -0.000449       0.000131
  11       0.000338       0.000513      -0.000643
  12       0.000030      -0.000115      -0.000182
  13      -0.000189      -0.000376      -0.000639
  14       0.000117      -0.000100       0.000237
  15      -0.000039      -0.000068       0.000152
  16      -0.000495       0.000060      -0.000174
  17      -0.000267      -0.000415       0.001104
  18      -0.000089      -0.000063      -0.000373
  19       0.000381       0.000742      -0.000066
  20      -0.000297       0.000470       0.000621
  21      -0.000284       0.000193       0.000492
  22      -0.000158      -0.000377      -0.000663
---------------------------------------------------
 Number of fixed atoms: 0
 Gradient time:  CPU 522.05 s  wall 44.55 s
 Geometry Optimization Parameters
   NAtoms,    NIC,     NZ,  NCons,   NDum,   NFix, NCnnct, MaxDiis
       22     144       0       0       0       0       0       0

 Cartesian Hessian Update
 Hessian updated using BFGS update


** GEOMETRY OPTIMIZATION IN DELOCALIZED INTERNAL COORDINATES **
   Searching for a Minimum

   Optimization Cycle:   2

                       Coordinates (Angstroms)
     ATOM                X               Y               Z
      1  C         2.4247512361   -0.7841252568   -0.9508906913
      2  O         3.4423109559   -1.6752329429   -1.3429640176
      3  C         3.0166309666    0.0842461374    0.1580571563
      4  O         2.5805095575    0.0015564228    1.2868021207
      5  C         4.1258177683    1.0180285578   -0.2362435934
      6  C         4.7334103763    1.7343434874    0.9491708162
      7  O         5.4432663140    0.7343407000    1.6889448812
      8  O         5.3868362268    1.0395374209    3.0848775577
      9  C         5.6866417204    2.8447517065    0.5225332983
     10  O         4.9044327879    3.8128805284   -0.1377370274
     11  O         6.3770818063    3.4025493980    1.6153875895
     12  H         1.5657308372   -1.3305721790   -0.5631638461
     13  H         3.0338720702   -2.4232854350   -1.7957932645
     14  H         3.7176313611    1.7377614343   -0.9459685350
     15  H         4.8852234913    0.4515357850   -0.7802793936
     16  H         3.9520156385    2.1545433705    1.5847901415
     17  H         4.6239899907    0.5150093943    3.3750079971
     18  H         6.4586359579    2.4517534815   -0.1410431604
     19  H         5.5000696718    4.4515040152   -0.5477817352
     20  H         5.7298640327    3.6771397544    2.2789406822
     21  O         2.0391208995    0.0799993767   -1.9919863432
     22  H         1.4253006328   -0.3909684572   -2.5686733331
   Point Group: c1    Number of degrees of freedom:    60


   Energy is   -723.083381889

 Hessian updated using BFGS update

 57 Hessian modes will be used to form the next step
  Hessian Eigenvalues:
     0.004952    0.005469    0.005743    0.006857    0.007225    0.008137
     0.011681    0.014011    0.014372    0.014506    0.014561    0.043356
     0.044127    0.051676    0.055307    0.058456    0.062181    0.074119
     0.075421    0.081377    0.087999    0.093244    0.094801    0.128324
     0.157091    0.164576    0.170127    0.181696    0.190641    0.196898
     0.206179    0.206912    0.218627    0.248211    0.250000    0.262624
     0.295847    0.296717    0.306694    0.311848    0.335510    0.340111
     0.341524    0.342333    0.342749    0.396578    0.405246    0.440321
     0.440983    0.442314    0.443301    0.498255    0.522271    0.528090
     0.529887    0.530522    0.943759

 Minimum search - taking simple RFO step
 Searching for Lamda that Minimizes Along All modes
 Value Taken    Lamda =  -0.00024226
 Step Taken.  Stepsize is  0.141558

                             Maximum     Tolerance    Cnvgd?
         Gradient           0.002341      0.000300      NO
         Displacement       0.044529      0.001200      NO
         Energy change     -0.000727      0.000001      NO


 New Cartesian Coordinates Obtained by Inverse Iteration

 Displacement from previous Coordinates is:  0.275132
 ----------------------------------------------------------------
             Standard Nuclear Orientation (Angstroms)
    I     Atom           X                Y                Z
 ----------------------------------------------------------------
    1      C       2.4257330752    -0.7863940277    -0.9557194587
    2      O       3.4545162233    -1.6686460597    -1.3373244959
    3      C       3.0029613019     0.0943521912     0.1507428673
    4      O       2.5742419018    -0.0025290110     1.2795917340
    5      C       4.1136152630     1.0255029676    -0.2385509863
    6      C       4.7299785064     1.7294587650     0.9489670620
    7      O       5.4427531998     0.7248789088     1.6761954415
    8      O       5.4179171640     1.0412318383     3.0664202346
    9      C       5.6858636205     2.8375490155     0.5265775200
   10      O       4.9030376854     3.8195192412    -0.1120087218
   11      O       6.3898046032     3.3713914671     1.6220993908
   12      H       1.5710674280    -1.3376880383    -0.5675048232
   13      H       3.0573561396    -2.4298696162    -1.7742800926
   14      H       3.7050432055     1.7514656372    -0.9409442233
   15      H       4.8678507704     0.4613502087    -0.7907510974
   16      H       3.9584790812     2.1482603370     1.5956382144
   17      H       4.5978916478     0.6115008867     3.3502684103
   18      H       6.4483863206     2.4489382011    -0.1487570015
   19      H       5.4957002184     4.4530080079    -0.5300599192
   20      H       5.7526146378     3.6332472566     2.2978289868
   21      O       2.0375066033     0.0672567565    -2.0040197208
   22      H       1.4208257026    -0.4064882331    -2.5724220207
 ----------------------------------------------------------------
 Nuclear Repulsion Energy =         788.33440855 hartrees
 There are       48 alpha and       48 beta electrons
 Discretize the solute cavity surface with Lebedev spheres
	Using 110 Lebedev grid points for each H atom
	Using 194 Lebedev grid points for other atoms
	Atomic van der Waals radii will be scaled by 1.20
 Remove points where switching function is < 1.0e-08
 Keep 1743 surface tesserae and discard 1685 interior tesserae
 Molecular Surface Area = 193.361 Angst**2
 Applying Cartesian multipole field
    Component          Value
    ---------          -----
     (2,0,0)        1.00000E-12
     (0,2,0)        2.00000E-11
     (0,0,2)       -3.00000E-11
 Nucleus-field energy     =     0.0000000096 hartrees
 Requested basis set is 6-311++G(2df,2p)
 There are 156 shells and 508 basis functions
 A cutoff of  1.0D-12 yielded  10018 shell pairs
 There are    104238 function pairs (    128780 Cartesian)
 Smallest overlap matrix eigenvalue = 3.58E-06
 Guess MOs from SCF MO coefficient file

 -----------------------------------------------------------------------
  General SCF calculation program by
  Eric Jon Sundstrom, Paul Horn, Yuezhi Mao, Dmitri Zuev, Alec White,
  David Stuck, Shaama M.S., Shane Yost, Joonho Lee, David Small,
  Daniel Levine, Susi Lehtola, Hugh Burton, Evgeny Epifanovsky,
  Bang C. Huynh
 -----------------------------------------------------------------------
 Exchange:     0.1500 Hartree-Fock + 1.0000 wB97M-V + LR-HF
 Correlation:  1.0000 wB97M-V
 Using SG-2 standard quadrature grid
 Nonlocal Correlation:  VV10 with C = 0.0100 and b = 6.00 and scale = 1.00000
 Grid used for NLC:  SG-1 standard quadrature
 
 Citation of the SMD model:
 Marenich, A.V.; Cramer, C.J.; Truhlar, D.G.
 J. Phys. Chem. B 2009, 113, 6378-6396.
 iSolventCode=           1
 Solvent: water                                                           
 
 vradii
            1           2           3           4           5           6
    1   1.8500000   1.5200000   1.8500000   1.5200000   1.8500000   1.8500000
            7           8           9          10          11          12
    1   1.5200000   1.5200000   1.8500000   1.5200000   1.5200000   1.2000000
           13          14          15          16          17          18
    1   1.2000000   1.2000000   1.2000000   1.2000000   1.2000000   1.2000000
           19          20          21          22
    1   1.2000000   1.2000000   1.5200000   1.2000000
 -------------------------------------------------------
 OpenMP BLAS3 based DFT computing Module                
 Release: version 1.0, May 2013, Q-Chem Inc. Pittsburgh 
 -------------------------------------------------------
 A restricted SCF calculation will be
 performed using Roothaan-Hall, DIIS, GDM
 SCF converges when RMS gradient is below 1.0e-07
 ---------------------------------------
  Cycle       Energy         DIIS error
 ---------------------------------------
    1    -723.0252532776      5.07e-04  Roothaan Step
 ---------------------------------------
  Cycle       Energy         DIIS error
 ---------------------------------------
    1    -723.0808727545      4.66e-04  
    2    -723.0884780515      3.54e-04  Done DIIS. Switching to GDM
 ---------------------------------------
  Cycle       Energy        RMS Gradient
 ---------------------------------------
    1    -723.0884780515      8.82e-03   Normal BFGS step
    2    -723.0884235097      1.35e-02  Line search: overstep
    3    -723.0910406862      2.39e-03   Normal BFGS step
    4    -723.0912517576      6.24e-04   Normal BFGS step
    5    -723.0912829337      6.68e-04   Normal BFGS step
    6    -723.0912928370      7.49e-05   Normal BFGS step
    7    -723.0912934364      3.05e-05   Normal BFGS step
    8    -723.0912935558      1.27e-05   Normal BFGS step
    9    -723.0912935669      5.93e-06   Normal BFGS step
   10    -723.0912935703      3.74e-06   Normal BFGS step
   11    -723.0912935706      1.94e-06   Normal BFGS step
   12    -723.0912935707      9.09e-07   Normal BFGS step
   13    -723.0912935708      4.48e-07   Normal BFGS step
   14    -723.0912935708      2.04e-07   Normal BFGS step
   15    -723.0912935708      7.03e-08  Convergence criterion met
 ---------------------------------------
 SCF time:   CPU 2755.38s  wall 194.00s 
(3)  G-ENP(liq) elect-nuc-pol free energy of system     -723.091293571 a.u.
(4)  G-CDS(liq) cavity-dispersion-solvent structure 
     free energy                                                4.9426 kcal/mol
(6)  G-S(liq) free energy of system                     -723.083417052 a.u.
 SCF   energy in the final basis set =     -723.0834170524
 Total energy in the final basis set =     -723.0834170524
 
 --------------------------------------------------------------
 
                    Orbital Energies (a.u.)
 --------------------------------------------------------------
 
 Alpha MOs
 -- Occupied --
-19.4022 -19.3947 -19.3528 -19.3521 -19.3486 -19.3462 -19.3444 -10.4538
-10.4516 -10.4451 -10.4033 -10.3530  -1.2707  -1.2151  -1.2021  -1.1932
 -1.1434  -1.1349  -1.0532  -0.9141  -0.8542  -0.8102  -0.7397  -0.6848
 -0.6680  -0.6578  -0.6559  -0.6415  -0.6326  -0.5966  -0.5825  -0.5674
 -0.5524  -0.5459  -0.5432  -0.5347  -0.5129  -0.4996  -0.4774  -0.4635
 -0.4539  -0.4341  -0.4236  -0.4187  -0.4177  -0.4066  -0.3904  -0.3713
 -- Virtual --
  0.0251   0.0328   0.0368   0.0443   0.0463   0.0575   0.0590   0.0651
  0.0686   0.0834   0.0953   0.0964   0.1082   0.1184   0.1274   0.1314
  0.1366   0.1412   0.1448   0.1490   0.1551   0.1589   0.1628   0.1676
  0.1759   0.1850   0.1911   0.1966   0.2041   0.2105   0.2167   0.2275
  0.2301   0.2404   0.2469   0.2558   0.2562   0.2697   0.2740   0.2756
  0.2812   0.2885   0.2903   0.2918   0.3011   0.3042   0.3148   0.3232
  0.3295   0.3329   0.3377   0.3407   0.3471   0.3509   0.3520   0.3609
  0.3639   0.3713   0.3725   0.3817   0.3851   0.3883   0.3927   0.3982
  0.4068   0.4152   0.4180   0.4296   0.4360   0.4376   0.4458   0.4509
  0.4589   0.4624   0.4700   0.4842   0.4957   0.5006   0.5231   0.5612
  0.5683   0.5839   0.5896   0.5987   0.6040   0.6214   0.6297   0.6421
  0.6491   0.6558   0.6667   0.6713   0.6779   0.6864   0.7005   0.7047
  0.7116   0.7264   0.7317   0.7405   0.7486   0.7561   0.7723   0.7813
  0.7881   0.7904   0.8023   0.8315   0.8466   0.8674   0.8812   0.9043
  0.9110   0.9172   0.9413   0.9524   0.9605   0.9825   0.9930   0.9947
  1.0266   1.0390   1.0470   1.0636   1.0785   1.0795   1.1009   1.1093
  1.1191   1.1250   1.1506   1.1574   1.1607   1.1720   1.1779   1.1873
  1.1908   1.1920   1.2042   1.2094   1.2227   1.2261   1.2349   1.2479
  1.2551   1.2643   1.2679   1.2837   1.2947   1.3021   1.3084   1.3221
  1.3284   1.3496   1.3607   1.3646   1.3703   1.3806   1.3950   1.4087
  1.4192   1.4393   1.4531   1.4663   1.4730   1.4952   1.4976   1.5104
  1.5195   1.5362   1.5469   1.5508   1.5517   1.5705   1.5878   1.5902
  1.6043   1.6165   1.6224   1.6427   1.6751   1.6887   1.7012   1.7058
  1.7258   1.7350   1.7478   1.7577   1.7837   1.8109   1.8388   1.8508
  1.8595   1.8925   1.8960   1.9038   1.9319   1.9469   1.9578   1.9638
  1.9926   1.9985   2.0572   2.0706   2.0846   2.1291   2.1738   2.2056
  2.2180   2.2368   2.2450   2.2774   2.3068   2.3329   2.3459   2.3556
  2.3944   2.4041   2.4169   2.4220   2.4378   2.4468   2.4693   2.5155
  2.5349   2.5536   2.5971   2.6520   2.6711   2.7195   2.7363   2.7757
  2.8129   2.8335   2.8364   2.8518   2.8648   2.8956   2.9177   2.9248
  2.9446   2.9467   2.9531   3.0373   3.0503   3.0644   3.0889   3.1024
  3.1267   3.1565   3.1776   3.2025   3.2217   3.2458   3.2618   3.2812
  3.3158   3.3413   3.3559   3.3867   3.3872   3.4058   3.4139   3.4439
  3.4659   3.4718   3.4904   3.5132   3.5422   3.5498   3.5762   3.5938
  3.6090   3.6310   3.6556   3.6683   3.6740   3.6851   3.6967   3.7160
  3.7292   3.7428   3.7726   3.7812   3.7942   3.8002   3.8220   3.8343
  3.8432   3.8607   3.8622   3.8779   3.9049   3.9136   3.9202   3.9340
  3.9368   3.9690   3.9849   3.9985   4.0145   4.0610   4.0943   4.1105
  4.1195   4.1398   4.1594   4.1836   4.1970   4.2114   4.2306   4.2476
  4.2657   4.2783   4.2860   4.3129   4.3192   4.3310   4.3483   4.3709
  4.4069   4.4124   4.4630   4.4679   4.4778   4.5220   4.5480   4.5565
  4.5698   4.5975   4.6462   4.6706   4.6789   4.7228   4.7364   4.7921
  4.8334   4.8815   4.9507   4.9921   5.0394   5.0699   5.1793   5.1897
  5.1990   5.2132   5.2163   5.2318   5.2454   5.2608   5.2752   5.2788
  5.2885   5.3002   5.3146   5.3149   5.3249   5.3471   5.3479   5.3613
  5.3694   5.4015   5.4129   5.4304   5.4412   5.4636   5.4675   5.4892
  5.5009   5.5076   5.5388   5.5529   5.5653   5.5689   5.6046   5.6189
  5.6252   5.6338   5.6348   5.6561   5.6704   5.6761   5.6837   5.7089
  5.7154   5.7790   5.7975   5.8471   5.8532   5.8606   5.9133   6.0082
  6.0298   6.0658   6.0950   6.1200   6.1469   6.1590   6.2613   6.4303
  6.5228   6.5463   6.6390   6.7065   6.7584   6.7894   6.8627   6.9951
  7.0134   7.0390   7.0531   7.0539   7.0818   7.1160   7.1416   7.1753
  7.2080   7.2297   7.2612   7.2644   7.2727   7.2864   7.2970   7.3201
  7.3240   7.3394   7.3737   7.3858   7.3957   7.4082   7.4362   7.4770
  7.5316   7.5463   7.6034   7.6171   7.6614   7.6925   7.7043   7.7209
  7.7986   7.8004   7.8143   7.8604   7.8778   7.9018   7.9759   8.1738
 24.6470  24.7821  24.7886  24.8538  25.0459  50.5086  50.5764  50.5827
 50.6290  50.6350  50.6412  50.7679
 --------------------------------------------------------------
 
          Ground-State Mulliken Net Atomic Charges

     Atom                 Charge (a.u.)
  ----------------------------------------
      1 C                    -0.219772
      2 O                    -0.376836
      3 C                     0.504407
      4 O                    -0.420752
      5 C                    -0.573079
      6 C                    -0.006721
      7 O                    -0.098855
      8 O                    -0.320217
      9 C                    -0.304209
     10 O                    -0.417647
     11 O                    -0.461631
     12 H                     0.251227
     13 H                     0.342160
     14 H                     0.224107
     15 H                     0.277643
     16 H                     0.309654
     17 H                     0.355046
     18 H                     0.294303
     19 H                     0.337101
     20 H                     0.345896
     21 O                    -0.385629
     22 H                     0.343805
  ----------------------------------------
  Sum of atomic charges =     0.000000

 -----------------------------------------------------------------
                    Cartesian Multipole Moments
 -----------------------------------------------------------------
    Charge (ESU x 10^10)
                -0.0000
    Dipole Moment (Debye)
         X      -4.4412      Y      -1.6110      Z      -4.8298
       Tot       6.7563
    Quadrupole Moments (Debye-Ang)
        XX    -109.6621     XY       1.0612     YY     -59.9649
        XZ     -20.8322     YZ       4.0895     ZZ     -66.0473
    Octopole Moments (Debye-Ang^2)
       XXX   -1190.7288    XXY     -70.8452    XYY    -256.0393
       YYY    -208.3142    XXZ    -177.8815    XYZ     -23.7153
       YYZ     -49.8549    XZZ    -312.9462    YZZ     -80.9640
       ZZZ     -75.3841
    Hexadecapole Moments (Debye-Ang^3)
      XXXX  -10629.6349   XXXY   -1443.1976   XXYY   -1536.3384
      XYYY   -1138.7983   YYYY   -1438.1457   XXXZ   -1754.0723
      XXYZ    -390.0161   XYYZ    -341.7413   YYYZ    -282.0356
      XXZZ   -1784.8402   XYZZ    -447.8864   YYZZ    -365.6906
      XZZZ    -581.6503   YZZZ    -213.1107   ZZZZ    -858.2196
 -----------------------------------------------------------------
 Calculating analytic gradient of the SCF energy
 Gradient of CDS energy
            1           2           3           4           5           6
    1   0.0004661  -0.0014823  -0.0005446   0.0002535   0.0000895   0.0000847
    2  -0.0001060   0.0016311  -0.0000870   0.0000542   0.0001161  -0.0000369
    3  -0.0022390   0.0004944   0.0016313  -0.0012709  -0.0001131  -0.0000350
            7           8           9          10          11          12
    1  -0.0000032   0.0001653   0.0004410   0.0009440  -0.0012626  -0.0000538
    2   0.0000879   0.0000244   0.0021751  -0.0014160  -0.0010650  -0.0000457
    3   0.0000413  -0.0002959   0.0008131   0.0010200  -0.0018078   0.0000519
           13          14          15          16          17          18
    1   0.0001704  -0.0000702   0.0001386  -0.0000201  -0.0000498   0.0000913
    2  -0.0004724   0.0001004  -0.0001375   0.0000390  -0.0001308  -0.0001839
    3  -0.0001653  -0.0000795  -0.0000174   0.0000512   0.0004797  -0.0000391
           19          20          21          22
    1  -0.0000322   0.0000228   0.0009658  -0.0003141
    2   0.0004185   0.0003628  -0.0014577   0.0001292
    3  -0.0003044   0.0003498   0.0018391  -0.0004043
 Gradient of SCF Energy
            1           2           3           4           5           6
    1   0.0166386   0.0108447  -0.0077592   0.0003481  -0.0055079   0.0041282
    2   0.0132408   0.0137419  -0.0010904  -0.0018116  -0.0032852  -0.0065276
    3   0.0050646   0.0086728  -0.0060527  -0.0005189   0.0036960  -0.0035562
            7           8           9          10          11          12
    1   0.0017743   0.0084710  -0.0037827  -0.0091058   0.0088038  -0.0094964
    2  -0.0024717   0.0029768   0.0033868  -0.0043403  -0.0040839  -0.0070463
    3  -0.0012661   0.0001843   0.0040394   0.0034931   0.0008062   0.0006317
           13          14          15          16          17          18
    1  -0.0106051  -0.0003074   0.0018081  -0.0014704  -0.0067333   0.0008876
    2  -0.0140175   0.0003803   0.0008940   0.0021781  -0.0006590  -0.0004681
    3  -0.0091752  -0.0007897  -0.0014519   0.0022359   0.0032083  -0.0052843
           19          20          21          22
    1   0.0072675  -0.0065608   0.0128850  -0.0125278
    2   0.0061852   0.0033033   0.0111671  -0.0116529
    3  -0.0055584   0.0019844   0.0100623  -0.0104258
 Max gradient component =       1.664E-02
 RMS gradient           =       6.788E-03
 Computing fast CPCM-SWIG gradient
 Updating gradient with PCM contributions...
 -- total gradient after adding PCM contribution --
---------------------------------------------------
  Atom         X              Y              Z     
---------------------------------------------------
   1       0.000594      -0.000428       0.000598
   2      -0.000872      -0.001126      -0.000397
   3      -0.002317       0.002337       0.000262
   4       0.001150      -0.000641      -0.001317
   5       0.000741      -0.000443      -0.000226
   6      -0.000542       0.000005       0.000821
   7       0.000210       0.000467      -0.000188
   8      -0.000623      -0.000289       0.000504
   9       0.000371      -0.000869      -0.000257
  10       0.000898       0.000402      -0.000553
  11      -0.001260      -0.000163       0.000718
  12       0.000407       0.000279      -0.000141
  13       0.000627       0.000864       0.000148
  14      -0.000005      -0.000651       0.000442
  15      -0.000246       0.000268       0.000263
  16       0.000549      -0.000180      -0.000189
  17       0.000874       0.000721      -0.001029
  18      -0.000400       0.000120       0.000154
  19      -0.000725      -0.000395       0.000601
  20       0.000728       0.000036      -0.000545
  21      -0.000939      -0.000764      -0.000058
  22       0.000781       0.000450       0.000391
---------------------------------------------------
 Number of fixed atoms: 0
 Gradient time:  CPU 517.75 s  wall 43.92 s
 Geometry Optimization Parameters
   NAtoms,    NIC,     NZ,  NCons,   NDum,   NFix, NCnnct, MaxDiis
       22     144       0       0       0       0       0       0

 Cartesian Hessian Update
 Hessian updated using BFGS update


** GEOMETRY OPTIMIZATION IN DELOCALIZED INTERNAL COORDINATES **
   Searching for a Minimum

   Optimization Cycle:   3

                       Coordinates (Angstroms)
     ATOM                X               Y               Z
      1  C         2.4257330752   -0.7863940277   -0.9557194587
      2  O         3.4545162233   -1.6686460597   -1.3373244959
      3  C         3.0029613019    0.0943521912    0.1507428673
      4  O         2.5742419018   -0.0025290110    1.2795917340
      5  C         4.1136152630    1.0255029676   -0.2385509863
      6  C         4.7299785064    1.7294587650    0.9489670620
      7  O         5.4427531998    0.7248789088    1.6761954415
      8  O         5.4179171640    1.0412318383    3.0664202346
      9  C         5.6858636205    2.8375490155    0.5265775200
     10  O         4.9030376854    3.8195192412   -0.1120087218
     11  O         6.3898046032    3.3713914671    1.6220993908
     12  H         1.5710674280   -1.3376880383   -0.5675048232
     13  H         3.0573561396   -2.4298696162   -1.7742800926
     14  H         3.7050432055    1.7514656372   -0.9409442233
     15  H         4.8678507704    0.4613502087   -0.7907510974
     16  H         3.9584790812    2.1482603370    1.5956382144
     17  H         4.5978916478    0.6115008867    3.3502684103
     18  H         6.4483863206    2.4489382011   -0.1487570015
     19  H         5.4957002184    4.4530080079   -0.5300599192
     20  H         5.7526146378    3.6332472566    2.2978289868
     21  O         2.0375066033    0.0672567565   -2.0040197208
     22  H         1.4208257026   -0.4064882331   -2.5724220207
   Point Group: c1    Number of degrees of freedom:    60


   Energy is   -723.083417052

 Hessian updated using BFGS update

 58 Hessian modes will be used to form the next step
  Hessian Eigenvalues:
     0.004906    0.005515    0.005698    0.007136    0.007998    0.009823
     0.012060    0.014240    0.014386    0.014502    0.014829    0.043395
     0.044407    0.051551    0.055270    0.058183    0.062491    0.074110
     0.077029    0.080966    0.087252    0.093212    0.094959    0.128814
     0.159738    0.160887    0.164070    0.174305    0.182080    0.189627
     0.196136    0.206089    0.209658    0.219134    0.248795    0.250069
     0.269043    0.296134    0.303519    0.306651    0.314421    0.339504
     0.340782    0.341743    0.342453    0.343485    0.391388    0.409482
     0.440231    0.440983    0.442590    0.444055    0.515951    0.522295
     0.528300    0.529891    0.530518    0.953735

 Minimum search - taking simple RFO step
 Searching for Lamda that Minimizes Along All modes
 Value Taken    Lamda =  -0.00016132
 Step Taken.  Stepsize is  0.097305

                             Maximum     Tolerance    Cnvgd?
         Gradient           0.001650      0.000300      NO
         Displacement       0.046664      0.001200      NO
         Energy change     -0.000035      0.000001      NO


 New Cartesian Coordinates Obtained by Inverse Iteration

 Displacement from previous Coordinates is:  0.140869
 ----------------------------------------------------------------
             Standard Nuclear Orientation (Angstroms)
    I     Atom           X                Y                Z
 ----------------------------------------------------------------
    1      C       2.4278151401    -0.7868847788    -0.9581098816
    2      O       3.4429284661    -1.6871474563    -1.3339869671
    3      C       3.0166443181     0.0805446720     0.1528860677
    4      O       2.5711740969     0.0001993737     1.2769817260
    5      C       4.1197600387     1.0198361595    -0.2385454671
    6      C       4.7301653028     1.7300447425     0.9483783973
    7      O       5.4451578724     0.7299524065     1.6796871611
    8      O       5.4181816770     1.0514052712     3.0678638915
    9      C       5.6812869025     2.8430416171     0.5258574252
   10      O       4.8922753679     3.8216933250    -0.1105085376
   11      O       6.3866673860     3.3766861926     1.6205148185
   12      H       1.5605048176    -1.3220687889    -0.5737845550
   13      H       3.0321494131    -2.4453335250    -1.7646773604
   14      H       3.7069991312     1.7425579764    -0.9431904121
   15      H       4.8786862709     0.4598388396    -0.7895843370
   16      H       3.9550982640     2.1462157039     1.5932329669
   17      H       4.6157731133     0.5931816999     3.3596468398
   18      H       6.4447830440     2.4579899266    -0.1510121115
   19      H       5.4824580988     4.4522874865    -0.5373576079
   20      H       5.7484859924     3.6285800213     2.2996077535
   21      O       2.0629535381     0.0764482182    -2.0071715465
   22      H       1.4331960478    -0.3817723831    -2.5747409635
 ----------------------------------------------------------------
 Nuclear Repulsion Energy =         788.24142963 hartrees
 There are       48 alpha and       48 beta electrons
 Discretize the solute cavity surface with Lebedev spheres
	Using 110 Lebedev grid points for each H atom
	Using 194 Lebedev grid points for other atoms
	Atomic van der Waals radii will be scaled by 1.20
 Remove points where switching function is < 1.0e-08
 Keep 1742 surface tesserae and discard 1686 interior tesserae
 Molecular Surface Area = 193.373 Angst**2
 Applying Cartesian multipole field
    Component          Value
    ---------          -----
     (2,0,0)        1.00000E-12
     (0,2,0)        2.00000E-11
     (0,0,2)       -3.00000E-11
 Nucleus-field energy     =     0.0000000097 hartrees
 Requested basis set is 6-311++G(2df,2p)
 There are 156 shells and 508 basis functions
 A cutoff of  1.0D-12 yielded  10020 shell pairs
 There are    104323 function pairs (    128918 Cartesian)
 Smallest overlap matrix eigenvalue = 3.54E-06
 Guess MOs from SCF MO coefficient file

 -----------------------------------------------------------------------
  General SCF calculation program by
  Eric Jon Sundstrom, Paul Horn, Yuezhi Mao, Dmitri Zuev, Alec White,
  David Stuck, Shaama M.S., Shane Yost, Joonho Lee, David Small,
  Daniel Levine, Susi Lehtola, Hugh Burton, Evgeny Epifanovsky,
  Bang C. Huynh
 -----------------------------------------------------------------------
 Exchange:     0.1500 Hartree-Fock + 1.0000 wB97M-V + LR-HF
 Correlation:  1.0000 wB97M-V
 Using SG-2 standard quadrature grid
 Nonlocal Correlation:  VV10 with C = 0.0100 and b = 6.00 and scale = 1.00000
 Grid used for NLC:  SG-1 standard quadrature
 
 Citation of the SMD model:
 Marenich, A.V.; Cramer, C.J.; Truhlar, D.G.
 J. Phys. Chem. B 2009, 113, 6378-6396.
 iSolventCode=           1
 Solvent: water                                                           
 
 vradii
            1           2           3           4           5           6
    1   1.8500000   1.5200000   1.8500000   1.5200000   1.8500000   1.8500000
            7           8           9          10          11          12
    1   1.5200000   1.5200000   1.8500000   1.5200000   1.5200000   1.2000000
           13          14          15          16          17          18
    1   1.2000000   1.2000000   1.2000000   1.2000000   1.2000000   1.2000000
           19          20          21          22
    1   1.2000000   1.2000000   1.5200000   1.2000000
 -------------------------------------------------------
 OpenMP BLAS3 based DFT computing Module                
 Release: version 1.0, May 2013, Q-Chem Inc. Pittsburgh 
 -------------------------------------------------------
 A restricted SCF calculation will be
 performed using Roothaan-Hall, DIIS, GDM
 SCF converges when RMS gradient is below 1.0e-07
 ---------------------------------------
  Cycle       Energy         DIIS error
 ---------------------------------------
    1    -723.0274220100      4.46e-04  Roothaan Step
 ---------------------------------------
  Cycle       Energy         DIIS error
 ---------------------------------------
    1    -723.0811728867      4.62e-04  
    2    -723.0885720520      3.52e-04  Done DIIS. Switching to GDM
 ---------------------------------------
  Cycle       Energy        RMS Gradient
 ---------------------------------------
    1    -723.0885720520      8.51e-03   Normal BFGS step
    2    -723.0885018061      1.33e-02  Line search: overstep
    3    -723.0911054505      2.43e-03   Normal BFGS step
    4    -723.0913088511      6.29e-04   Normal BFGS step
    5    -723.0913388790      6.76e-04   Normal BFGS step
    6    -723.0913483500      7.61e-05   Normal BFGS step
    7    -723.0913489232      3.05e-05   Normal BFGS step
    8    -723.0913490330      1.25e-05   Normal BFGS step
    9    -723.0913490415      6.13e-06   Normal BFGS step
   10    -723.0913490440      1.29e-06   Normal BFGS step
   11    -723.0913490442      7.87e-07   Normal BFGS step
   12    -723.0913490443      2.36e-07   Normal BFGS step
   13    -723.0913490443      1.46e-07   Normal BFGS step
   14    -723.0913490442      8.20e-08  Convergence criterion met
 ---------------------------------------
 SCF time:   CPU 2623.38s  wall 184.00s 
(3)  G-ENP(liq) elect-nuc-pol free energy of system     -723.091349044 a.u.
(4)  G-CDS(liq) cavity-dispersion-solvent structure 
     free energy                                                4.9496 kcal/mol
(6)  G-S(liq) free energy of system                     -723.083461396 a.u.
 SCF   energy in the final basis set =     -723.0834613960
 Total energy in the final basis set =     -723.0834613960
 
 --------------------------------------------------------------
 
                    Orbital Energies (a.u.)
 --------------------------------------------------------------
 
 Alpha MOs
 -- Occupied --
-19.4021 -19.3947 -19.3528 -19.3523 -19.3485 -19.3464 -19.3445 -10.4538
-10.4515 -10.4451 -10.4033 -10.3531  -1.2709  -1.2149  -1.2020  -1.1929
 -1.1434  -1.1351  -1.0530  -0.9138  -0.8539  -0.8099  -0.7394  -0.6847
 -0.6678  -0.6574  -0.6561  -0.6417  -0.6323  -0.5964  -0.5829  -0.5677
 -0.5518  -0.5457  -0.5430  -0.5346  -0.5133  -0.4988  -0.4773  -0.4635
 -0.4540  -0.4340  -0.4241  -0.4187  -0.4172  -0.4064  -0.3905  -0.3713
 -- Virtual --
  0.0251   0.0328   0.0367   0.0442   0.0464   0.0574   0.0591   0.0654
  0.0684   0.0836   0.0953   0.0964   0.1083   0.1186   0.1271   0.1313
  0.1369   0.1414   0.1448   0.1491   0.1550   0.1588   0.1630   0.1674
  0.1759   0.1846   0.1911   0.1964   0.2040   0.2109   0.2167   0.2273
  0.2304   0.2406   0.2469   0.2560   0.2564   0.2701   0.2742   0.2752
  0.2809   0.2881   0.2901   0.2917   0.3017   0.3036   0.3147   0.3234
  0.3299   0.3330   0.3380   0.3419   0.3469   0.3508   0.3522   0.3606
  0.3636   0.3707   0.3728   0.3818   0.3850   0.3877   0.3930   0.3984
  0.4055   0.4147   0.4171   0.4299   0.4366   0.4385   0.4461   0.4509
  0.4578   0.4621   0.4697   0.4839   0.4961   0.5002   0.5243   0.5606
  0.5680   0.5839   0.5895   0.5978   0.6044   0.6211   0.6295   0.6423
  0.6488   0.6555   0.6673   0.6711   0.6779   0.6867   0.7006   0.7047
  0.7119   0.7258   0.7316   0.7393   0.7485   0.7557   0.7716   0.7819
  0.7880   0.7909   0.8016   0.8307   0.8475   0.8671   0.8828   0.9019
  0.9105   0.9171   0.9418   0.9533   0.9618   0.9819   0.9920   0.9939
  1.0247   1.0393   1.0477   1.0661   1.0783   1.0797   1.1005   1.1093
  1.1193   1.1258   1.1513   1.1570   1.1606   1.1718   1.1771   1.1873
  1.1903   1.1923   1.2038   1.2097   1.2235   1.2259   1.2360   1.2486
  1.2547   1.2644   1.2692   1.2843   1.2937   1.3015   1.3080   1.3234
  1.3309   1.3473   1.3598   1.3635   1.3697   1.3800   1.3949   1.4076
  1.4182   1.4409   1.4524   1.4670   1.4751   1.4956   1.4993   1.5088
[...]
  7.2007   7.2342   7.2603   7.2632   7.2686   7.2810   7.2902   7.3208
  7.3223   7.3449   7.3713   7.3814   7.3912   7.4045   7.4332   7.4758
  7.5328   7.5440   7.6088   7.6138   7.6599   7.6867   7.6960   7.7131
  7.7963   7.8008   7.8089   7.8572   7.8839   7.9014   7.9753   8.1762
 24.6379  24.7772  24.7876  24.8490  25.0417  50.5080  50.5762  50.5857
 50.6223  50.6308  50.6367  50.7564
 --------------------------------------------------------------
 
          Ground-State Mulliken Net Atomic Charges

     Atom                 Charge (a.u.)
  ----------------------------------------
      1 C                    -0.244562
      2 O                    -0.369309
      3 C                     0.502759
      4 O                    -0.419238
      5 C                    -0.575999
      6 C                    -0.061279
      7 O                    -0.099975
      8 O                    -0.314988
      9 C                    -0.273467
     10 O                    -0.411897
     11 O                    -0.463637
     12 H                     0.249987
     13 H                     0.345058
     14 H                     0.230463
     15 H                     0.294664
     16 H                     0.319713
     17 H                     0.356415
     18 H                     0.292211
     19 H                     0.336569
     20 H                     0.347461
     21 O                    -0.389493
     22 H                     0.348543
  ----------------------------------------
  Sum of atomic charges =     0.000000

 -----------------------------------------------------------------
                    Cartesian Multipole Moments
 -----------------------------------------------------------------
    Charge (ESU x 10^10)
                 0.0000
    Dipole Moment (Debye)
         X      -4.3993      Y      -1.8045      Z      -4.5696
       Tot       6.5948
    Quadrupole Moments (Debye-Ang)
        XX    -110.7712     XY       0.7109     YY     -60.0181
        XZ     -18.3529     YZ       2.7257     ZZ     -64.3200
    Octopole Moments (Debye-Ang^2)
       XXX   -1206.5422    XXY     -71.6273    XYY    -257.0130
       YYY    -218.3853    XXZ    -158.9897    XYZ     -25.3282
       YYZ     -53.5345    XZZ    -298.4995    YZZ     -78.3631
       ZZZ     -64.8325
    Hexadecapole Moments (Debye-Ang^3)
      XXXX  -10797.7225   XXXY   -1454.2221   XXYY   -1545.9430
      XYYY   -1169.5464   YYYY   -1472.9220   XXXZ   -1631.4674
      XXYZ    -374.2978   XYYZ    -347.4617   YYYZ    -306.7236
      XXZZ   -1687.2909   XYZZ    -424.5312   YYZZ    -370.1418
      XZZZ    -513.8922   YZZZ    -206.0085   ZZZZ    -793.8451
 -----------------------------------------------------------------
 Calculating analytic gradient of the SCF energy
 Gradient of CDS energy
            1           2           3           4           5           6
    1   0.0004238  -0.0012041  -0.0006150   0.0003022   0.0000855   0.0000839
    2   0.0000443   0.0015175  -0.0000370   0.0000375   0.0001150  -0.0000446
    3  -0.0022924   0.0000961   0.0016534  -0.0012938  -0.0000728  -0.0000458
            7           8           9          10          11          12
    1  -0.0000003   0.0001383   0.0006526   0.0009346  -0.0014525  -0.0000504
    2   0.0000934   0.0000212   0.0020064  -0.0014433  -0.0008748  -0.0000582
    3   0.0000511  -0.0003155   0.0009923   0.0008005  -0.0017759   0.0000535
           13          14          15          16          17          18
    1   0.0001476  -0.0000720   0.0001267  -0.0000205  -0.0000276   0.0000726
    2  -0.0004960   0.0001087  -0.0001430   0.0000478  -0.0001616  -0.0001576
    3  -0.0000858  -0.0000834  -0.0000465   0.0000532   0.0004853  -0.0000701
           19          20          21          22
    1  -0.0000465   0.0000638   0.0007066  -0.0002496
    2   0.0004302   0.0003309  -0.0014231   0.0000862
    3  -0.0002844   0.0003711   0.0022618  -0.0004519
 Gradient of SCF Energy
            1           2           3           4           5           6
    1   0.0153906   0.0122834  -0.0042932  -0.0008278  -0.0062099   0.0039041
    2   0.0114084   0.0156303  -0.0012833  -0.0007922  -0.0051714  -0.0047481
    3   0.0028624   0.0076118  -0.0049164   0.0010525   0.0042886  -0.0038214
            7           8           9          10          11          12
    1   0.0014052   0.0094107  -0.0040145  -0.0095657   0.0089328  -0.0106758
    2  -0.0028872   0.0030895   0.0040556  -0.0043511  -0.0032986  -0.0068394
    3  -0.0015727  -0.0011695   0.0046294   0.0057768  -0.0005746   0.0003559
           13          14          15          16          17          18
    1  -0.0111225  -0.0007433   0.0019905  -0.0011351  -0.0077015   0.0008876
    2  -0.0154720   0.0016523   0.0008334   0.0017841  -0.0019120  -0.0003110
    3  -0.0072978  -0.0016448  -0.0019575   0.0022295   0.0049984  -0.0058191
           19          20          21          22
    1   0.0075738  -0.0060811   0.0136229  -0.0130312
    2   0.0062515   0.0027328   0.0118638  -0.0122356
    3  -0.0070643   0.0027521   0.0102091  -0.0109283
 Max gradient component =       1.563E-02
 RMS gradient           =       6.967E-03
 Computing fast CPCM-SWIG gradient
 Updating gradient with PCM contributions...
 -- total gradient after adding PCM contribution --
---------------------------------------------------
  Atom         X              Y              Z     
---------------------------------------------------
   1       0.000015      -0.000008      -0.000012
   2      -0.000017      -0.000010       0.000052
   3      -0.000006       0.000013       0.000012
   4       0.000010       0.000004      -0.000002
   5      -0.000003       0.000001       0.000001
   6       0.000020      -0.000003       0.000019
   7      -0.000025       0.000000      -0.000011
   8       0.000009       0.000009      -0.000009
   9       0.000023       0.000004      -0.000002
  10      -0.000004      -0.000006       0.000009
  11      -0.000004       0.000011      -0.000018
  12      -0.000003       0.000006       0.000020
  13      -0.000002       0.000007      -0.000028
  14       0.000005       0.000001      -0.000006
  15      -0.000002      -0.000005       0.000004
  16      -0.000003      -0.000004      -0.000007
  17       0.000008       0.000003       0.000006
  18      -0.000004       0.000001      -0.000014
  19      -0.000001      -0.000008      -0.000006
  20       0.000013      -0.000017       0.000001
  21      -0.000029       0.000008      -0.000013
  22      -0.000001      -0.000005       0.000002
---------------------------------------------------
 Number of fixed atoms: 0
 Gradient time:  CPU 531.72 s  wall 45.26 s
 Geometry Optimization Parameters
   NAtoms,    NIC,     NZ,  NCons,   NDum,   NFix, NCnnct, MaxDiis
       22     144       0       0       0       0       0       0

 Cartesian Hessian Update
 Hessian updated using BFGS update


** GEOMETRY OPTIMIZATION IN DELOCALIZED INTERNAL COORDINATES **
   Searching for a Minimum

   Optimization Cycle:  16

                       Coordinates (Angstroms)
     ATOM                X               Y               Z
      1  C         2.4301211961   -0.7823617346   -0.9646096491
      2  O         3.4470897200   -1.7444693278   -1.1283516768
      3  C         2.9370413024    0.1640318941    0.1210277831
      4  O         2.4601117369    0.1121244988    1.2343075541
      5  C         4.0401718010    1.1072572724   -0.2655890853
      6  C         4.7035914159    1.7488622003    0.9324724941
      7  O         5.4066166217    0.6931271476    1.5931411505
      8  O         5.4804395250    0.9774291959    2.9892893765
      9  C         5.6647576675    2.8591677573    0.5213136613
     10  O         4.8614149499    3.9075439135    0.0297152537
     11  O         6.4781150860    3.2852253438    1.5880230493
     12  H         1.5059617638   -1.2534377728   -0.6324137663
     13  H         3.0486791513   -2.5606975674   -1.4514422517
     14  H         3.6073850676    1.8731390072   -0.9112978248
     15  H         4.7715359905    0.5726672172   -0.8755795175
     16  H         3.9580375362    2.1552801008    1.6176943370
     17  H         4.6900862653    0.5281185805    3.3260354899
     18  H         6.3546937435    2.5079940771   -0.2469929405
     19  H         5.4285753976    4.5274198718   -0.4423700398
     20  H         5.9166838069    3.4558097409    2.3550505409
     21  O         2.2215580077   -0.0250216584   -2.1300182767
     22  H         1.6404765470   -0.5219130580   -2.7174183616
   Point Group: c1    Number of degrees of freedom:    60


   Energy is   -723.083625333

 Hessian updated using BFGS update

 60 Hessian modes will be used to form the next step
  Hessian Eigenvalues:
     0.001451    0.002391    0.003169    0.006342    0.007404    0.008073
     0.011003    0.013068    0.014382    0.014717    0.030112    0.043802
     0.045434    0.051842    0.055263    0.060097    0.067438    0.074550
     0.079984    0.084139    0.089318    0.093537    0.095334    0.129922
     0.160656    0.160761    0.161584    0.166529    0.172467    0.175541
     0.184135    0.191150    0.199569    0.203522    0.213415    0.221731
     0.249664    0.251298    0.276138    0.298311    0.306807    0.307597
     0.323320    0.340295    0.341398    0.342197    0.342543    0.343887
     0.393235    0.420258    0.442524    0.443306    0.448949    0.457535
     0.513944    0.523563    0.529083    0.529932    0.530708    0.953421

 Minimum search - taking simple RFO step
 Searching for Lamda that Minimizes Along All modes
 Value Taken    Lamda =  -0.00000124
 Step Taken.  Stepsize is  0.023870

                             Maximum     Tolerance    Cnvgd?
         Gradient           0.000050      0.000300     YES
         Displacement       0.007509      0.001200      NO
         Energy change     -0.000001      0.000001     YES

 Final energy is   -723.083625332948     


 ******************************
 **  OPTIMIZATION CONVERGED  **
 ******************************

                       Coordinates (Angstroms)
     ATOM                X               Y               Z
      1  C         2.4301211961   -0.7823617346   -0.9646096491
      2  O         3.4470897200   -1.7444693278   -1.1283516768
      3  C         2.9370413024    0.1640318941    0.1210277831
      4  O         2.4601117369    0.1121244988    1.2343075541
      5  C         4.0401718010    1.1072572724   -0.2655890853
      6  C         4.7035914159    1.7488622003    0.9324724941
      7  O         5.4066166217    0.6931271476    1.5931411505
      8  O         5.4804395250    0.9774291959    2.9892893765
      9  C         5.6647576675    2.8591677573    0.5213136613
     10  O         4.8614149499    3.9075439135    0.0297152537
     11  O         6.4781150860    3.2852253438    1.5880230493
     12  H         1.5059617638   -1.2534377728   -0.6324137663
     13  H         3.0486791513   -2.5606975674   -1.4514422517
     14  H         3.6073850676    1.8731390072   -0.9112978248
     15  H         4.7715359905    0.5726672172   -0.8755795175
     16  H         3.9580375362    2.1552801008    1.6176943370
     17  H         4.6900862653    0.5281185805    3.3260354899
     18  H         6.3546937435    2.5079940771   -0.2469929405
     19  H         5.4285753976    4.5274198718   -0.4423700398
     20  H         5.9166838069    3.4558097409    2.3550505409
     21  O         2.2215580077   -0.0250216584   -2.1300182767
     22  H         1.6404765470   -0.5219130580   -2.7174183616

Z-matrix Print:
$molecule
0 1
O 
O  1 1.426712
H  2 0.969503 1 101.850873
C  1 1.430141 2 109.292907 3 92.108123 0
H  4 1.091126 1 108.707879 2 -31.848632 0
C  4 1.512327 1 105.570480 2 -150.814851 0
H  6 1.091247 4 110.180445 1 -171.320368 0
H  6 1.092139 4 110.877206 1 -54.068252 0
C  6 1.502013 4 112.624185 1 68.581368 0
O  9 1.212249 6 123.519396 4 13.203831 0
C  4 1.525015 1 110.620830 2 88.039556 0
H  11 1.090702 4 110.743523 1 66.574969 0
O  11 1.407460 4 112.351219 1 -51.007555 0
H  13 0.965730 11 108.630769 4 -49.133539 0
O  11 1.409298 4 106.044296 1 -173.211979 0
H  15 0.963733 11 108.293546 4 -165.780875 0
C  9 1.526839 6 116.747494 4 -165.705078 0
H  17 1.089191 9 109.446162 6 -167.924486 0
O  17 1.405432 9 107.749873 6 -46.998208 0
H  19 0.964155 17 108.476472 9 -161.397862 0
O  17 1.409499 9 105.435286 6 73.050844 0
H  21 0.964026 17 108.583618 9 153.196083 0
$end

 
 --------------------------------------------------------------
 
                    Orbital Energies (a.u.)
 --------------------------------------------------------------
 
 Alpha MOs
 -- Occupied --
-19.4029 -19.3951 -19.3530 -19.3520 -19.3482 -19.3463 -19.3443 -10.4539
-10.4517 -10.4453 -10.4038 -10.3537  -1.2706  -1.2148  -1.2013  -1.1925
 -1.1434  -1.1351  -1.0537  -0.9138  -0.8539  -0.8094  -0.7395  -0.6848
 -0.6680  -0.6586  -0.6552  -0.6417  -0.6328  -0.5962  -0.5841  -0.5676
 -0.5525  -0.5444  -0.5438  -0.5320  -0.5138  -0.4962  -0.4775  -0.4637
 -0.4551  -0.4332  -0.4256  -0.4185  -0.4167  -0.4071  -0.3901  -0.3722
 -- Virtual --
  0.0250   0.0328   0.0366   0.0438   0.0459   0.0573   0.0594   0.0654
  0.0678   0.0835   0.0924   0.0979   0.1092   0.1169   0.1280   0.1319
  0.1370   0.1430   0.1461   0.1502   0.1538   0.1599   0.1642   0.1654
  0.1741   0.1853   0.1885   0.1955   0.2069   0.2101   0.2151   0.2233
  0.2339   0.2382   0.2484   0.2559   0.2603   0.2649   0.2703   0.2737
  0.2797   0.2864   0.2909   0.2955   0.3011   0.3056   0.3144   0.3245
  0.3298   0.3323   0.3384   0.3418   0.3482   0.3513   0.3525   0.3618
  0.3650   0.3684   0.3724   0.3803   0.3831   0.3866   0.3941   0.3960
  0.4083   0.4119   0.4243   0.4329   0.4350   0.4423   0.4457   0.4544
  0.4566   0.4605   0.4705   0.4792   0.4918   0.4986   0.5311   0.5558
  0.5677   0.5855   0.5888   0.6009   0.6079   0.6213   0.6314   0.6413
  0.6458   0.6521   0.6633   0.6673   0.6801   0.6859   0.7026   0.7056
  0.7138   0.7276   0.7315   0.7370   0.7423   0.7530   0.7682   0.7818
  0.7871   0.7927   0.8173   0.8245   0.8453   0.8631   0.8733   0.8948
  0.9121   0.9216   0.9450   0.9599   0.9676   0.9755   0.9911   1.0032
  1.0210   1.0420   1.0485   1.0684   1.0732   1.0791   1.1015   1.1074
  1.1173   1.1331   1.1474   1.1580   1.1610   1.1663   1.1777   1.1843
  1.1895   1.1983   1.2064   1.2137   1.2196   1.2275   1.2364   1.2480
  1.2559   1.2664   1.2749   1.2860   1.2886   1.3054   1.3141   1.3279
  1.3329   1.3463   1.3549   1.3652   1.3711   1.3784   1.3979   1.4022
  1.4154   1.4385   1.4504   1.4655   1.4763   1.4944   1.5039   1.5061
  1.5195   1.5282   1.5469   1.5508   1.5525   1.5629   1.5856   1.5909
  1.6051   1.6173   1.6252   1.6347   1.6729   1.6866   1.7062   1.7108
  1.7307   1.7411   1.7471   1.7648   1.7809   1.7994   1.8297   1.8468
  1.8638   1.8843   1.8862   1.9024   1.9320   1.9529   1.9553   1.9645
  1.9885   2.0067   2.0498   2.0687   2.0874   2.1291   2.1753   2.1880
  2.2225   2.2402   2.2534   2.2865   2.3078   2.3239   2.3481   2.3606
  2.3929   2.4005   2.4115   2.4179   2.4258   2.4489   2.4642   2.5097
  2.5366   2.5411   2.6014   2.6629   2.6778   2.7086   2.7333   2.7716
  2.8035   2.8270   2.8328   2.8404   2.8562   2.8822   2.9120   2.9257
  2.9465   2.9557   2.9674   3.0467   3.0492   3.0752   3.0912   3.0975
  3.1178   3.1473   3.1805   3.1849   3.2211   3.2501   3.2690   3.2868
  3.3144   3.3364   3.3531   3.3869   3.3954   3.4122   3.4169   3.4401
  3.4505   3.4694   3.4902   3.5151   3.5324   3.5468   3.5830   3.5943
  3.6055   3.6315   3.6554   3.6687   3.6760   3.6839   3.6963   3.7198
  3.7356   3.7577   3.7676   3.7776   3.7938   3.8014   3.8109   3.8289
  3.8419   3.8625   3.8630   3.8869   3.8969   3.9102   3.9250   3.9329
  3.9429   3.9698   3.9763   3.9960   4.0289   4.0580   4.0901   4.1074
  4.1127   4.1348   4.1695   4.1809   4.1910   4.2053   4.2315   4.2467
  4.2671   4.2741   4.2770   4.3071   4.3192   4.3357   4.3366   4.3693
  4.3973   4.4094   4.4625   4.4667   4.4837   4.5230   4.5304   4.5585
  4.5723   4.5867   4.6497   4.6790   4.6897   4.7260   4.7329   4.7908
  4.8297   4.8782   4.9433   4.9984   5.0397   5.0773   5.1806   5.1870
  5.2006   5.2129   5.2184   5.2395   5.2425   5.2666   5.2721   5.2802
  5.2876   5.3003   5.3147   5.3208   5.3318   5.3484   5.3497   5.3562
  5.3708   5.3983   5.4121   5.4249   5.4330   5.4601   5.4682   5.4900
  5.4982   5.5141   5.5421   5.5542   5.5652   5.5789   5.5967   5.6173
  5.6230   5.6306   5.6351   5.6492   5.6674   5.6773   5.6840   5.7044
  5.7222   5.7772   5.7962   5.8390   5.8503   5.8618   5.9100   6.0165
  6.0289   6.0574   6.0930   6.1251   6.1471   6.1667   6.2581   6.4265
  6.5265   6.5449   6.6385   6.7022   6.7550   6.7888   6.8581   6.9991
  7.0114   7.0358   7.0484   7.0497   7.0765   7.1207   7.1454   7.1690
  7.2007   7.2342   7.2603   7.2632   7.2686   7.2810   7.2902   7.3208
  7.3223   7.3449   7.3713   7.3814   7.3912   7.4045   7.4332   7.4758
  7.5328   7.5440   7.6088   7.6138   7.6599   7.6867   7.6960   7.7131
  7.7963   7.8008   7.8089   7.8572   7.8839   7.9014   7.9753   8.1762
 24.6379  24.7772  24.7876  24.8490  25.0417  50.5080  50.5762  50.5857
 50.6223  50.6308  50.6367  50.7564
 --------------------------------------------------------------
 
          Ground-State Mulliken Net Atomic Charges

     Atom                 Charge (a.u.)
  ----------------------------------------
      1 C                    -0.244562
      2 O                    -0.369309
      3 C                     0.502759
      4 O                    -0.419238
      5 C                    -0.575999
      6 C                    -0.061279
      7 O                    -0.099975
      8 O                    -0.314988
      9 C                    -0.273467
     10 O                    -0.411897
     11 O                    -0.463637
     12 H                     0.249987
     13 H                     0.345058
     14 H                     0.230463
     15 H                     0.294664
     16 H                     0.319713
     17 H                     0.356415
     18 H                     0.292211
     19 H                     0.336569
     20 H                     0.347461
     21 O                    -0.389493
     22 H                     0.348543
  ----------------------------------------
  Sum of atomic charges =     0.000000

 -----------------------------------------------------------------
                    Cartesian Multipole Moments
 -----------------------------------------------------------------
    Charge (ESU x 10^10)
                 0.0000
    Dipole Moment (Debye)
         X      -4.3993      Y      -1.8045      Z      -4.5696
       Tot       6.5948
    Quadrupole Moments (Debye-Ang)
        XX    -110.7712     XY       0.7109     YY     -60.0181
        XZ     -18.3529     YZ       2.7257     ZZ     -64.3200
    Octopole Moments (Debye-Ang^2)
       XXX   -1206.5422    XXY     -71.6273    XYY    -257.0130
       YYY    -218.3853    XXZ    -158.9897    XYZ     -25.3282
       YYZ     -53.5345    XZZ    -298.4995    YZZ     -78.3631
       ZZZ     -64.8325
    Hexadecapole Moments (Debye-Ang^3)
      XXXX  -10797.7225   XXXY   -1454.2221   XXYY   -1545.9430
      XYYY   -1169.5464   YYYY   -1472.9220   XXXZ   -1631.4674
      XXYZ    -374.2978   XYYZ    -347.4617   YYYZ    -306.7236
      XXZZ   -1687.2909   XYZZ    -424.5312   YYZZ    -370.1418
      XZZZ    -513.8922   YZZZ    -206.0085   ZZZZ    -793.8451
 -----------------------------------------------------------------
 Total job time:  3791.00s(wall), 52036.01s(cpu) 
 Mon Jul  1 19:55:12 2024

        *************************************************************
        *                                                           *
        *  Thank you very much for using Q-Chem.  Have a nice day.  *
        *                                                           *
        *************************************************************


