
Running Job 1 of 1 Q_in.in
qchem Q_in.in_119739.0 /scratch/ari.fischer/qChem1409922.hpc-mn1/qchem119739/ 0
/usr/local/qchem-5.4.1/exe/qcprog.exe_s Q_in.in_119739.0 /scratch/ari.fischer/qChem1409922.hpc-mn1/qchem119739/
                  Welcome to Q-Chem
     A Quantum Leap Into The Future Of Chemistry


 Q-Chem 5.4, Q-Chem, Inc., Pleasanton, CA (2021)

 License issued to: Nanyang Technological University (site)

 E. Epifanovsky,  A. T. B. Gilbert,  Xintian Feng,  Joonho Lee,  Yuezhi Mao,  
 N. Mardirossian,  P. Pokhilko,  A. White,  M. Wormit,  M. P. Coons,  
 A. L. Dempwolff,  Zhengting Gan,  D. Hait,  P. R. Horn,  L. D. Jacobson,  
 I. Kaliman,  J. Kussmann,  A. W. Lange,  Ka Un Lao,  D. S. Levine,  Jie Liu,  
 S. C. McKenzie,  A. F. Morrison,  K. Nanda,  F. Plasser,  D. R. Rehn,  
 M. L. Vidal,  Zhi-Qiang You,  Ying Zhu,  B. Alam,  B. Albrecht,  
 A. Aldossary,  E. Alguire,  J. H. Andersen,  D. Barton,  K. Begam,  A. Behn,  
 Y. A. Bernard,  E. J. Berquist,  H. Burton,  A. Carreras,  K. Carter-Fenk,  
 R. Chakraborty,  A. D. Chien,  K. D. Closser,  V. Cofer-Shabica,  
 S. Dasgupta,  Jia Deng,  M. de Wergifosse,  M. Diedenhofen,  Hainam Do,  
 S. Ehlert,  Po-Tung Fang,  S. Fatehi,  Qingguo Feng,  T. Friedhoff,  
 J. Gayvert,  Qinghui Ge,  G. Gidofalvi,  M. Goldey,  J. Gomes,  
 C. Gonzalez-Espinoza,  S. Gulania,  A. Gunina,  M. W. D. Hanson-Heine,  
 P. H. P. Harbach,  A. W. Hauser,  M. F. Herbst,  M. Hernandez Vera,  
 M. Hodecker,  Z. C. Holden,  S. Houck,  Xunkun Huang,  Kerwin Hui,  
 B. C. Huynh,  M. Ivanov,  Hyunjun Ji,  Hanjie Jiang,  B. Kaduk,  S. Kaehler,  
 K. Khistyaev,  Jaehoon Kim,  P. Klunzinger,  Z. Koczor-Benda,  
 Joong Hoon Koh,  D. Kosenkov,  L. Koulias,  T. Kowalczyk,  C. M. Krauter,  
 K. Kue,  A. Kunitsa,  T. Kus,  A. Landau,  K. V. Lawler,  D. Lefrancois,  
 S. Lehtola,  Rain Li,  Yi-Pei Li,  Jiashu Liang,  M. Liebenthal,  
 Hung-Hsuan Lin,  You-Sheng Lin,  Fenglai Liu,  Kuan-Yu Liu,  
 M. Loipersberger,  A. Luenser,  A. Manjanath,  P. Manohar,  E. Mansoor,  
 S. F. Manzer,  Shan-Ping Mao,  A. V. Marenich,  T. Markovich,  S. Mason,  
 S. A. Maurer,  P. F. McLaughlin,  M. F. S. J. Menger,  J.-M. Mewes,  
 S. A. Mewes,  P. Morgante,  J. W. Mullinax,  K. J. Oosterbaan,  G. Paran,  
 Alexander C. Paul,  Suranjan K. Paul,  F. Pavosevic,  Zheng Pei,  S. Prager,  
 E. I. Proynov,  E. Ramos,  B. Rana,  A. E. Rask,  A. Rettig,  R. M. Richard,  
 F. Rob,  E. Rossomme,  T. Scheele,  M. Scheurer,  M. Schneider,  
 N. Sergueev,  S. M. Sharada,  W. Skomorowski,  D. W. Small,  C. J. Stein,  
 Yu-Chuan Su,  E. J. Sundstrom,  Zhen Tao,  J. Thirman,  T. Tsuchimochi,  
 N. M. Tubman,  S. P. Veccham,  O. Vydrov,  J. Wenzel,  J. Witte,  A. Yamada,  
 Kun Yao,  S. Yeganeh,  S. R. Yost,  A. Zech,  Igor Ying Zhang,  Xing Zhang,  
 Yu Zhang,  D. Zuev,  A. Aspuru-Guzik,  A. T. Bell,  N. A. Besley,  
 K. B. Bravaya,  B. R. Brooks,  D. Casanova,  Jeng-Da Chai,  S. Coriani,  
 C. J. Cramer,  A. E. DePrince, III,  R. A. DiStasio Jr.,  A. Dreuw,  
 B. D. Dunietz,  T. R. Furlani,  W. A. Goddard III,  S. Grimme,  
 S. Hammes-Schiffer,  T. Head-Gordon,  W. J. Hehre,  Chao-Ping Hsu,  
 T.-C. Jagau,  Yousung Jung,  A. Klamt,  Jing Kong,  D. S. Lambrecht,  
 WanZhen Liang,  N. J. Mayhall,  C. W. McCurdy,  J. B. Neaton,  
 C. Ochsenfeld,  J. A. Parkhill,  R. Peverati,  V. A. Rassolov,  Yihan Shao,  
 L. V. Slipchenko,  T. Stauch,  R. P. Steele,  J. E. Subotnik,  
 A. J. W. Thom,  A. Tkatchenko,  D. G. Truhlar,  T. Van Voorhis,  
 T. A. Wesolowski,  K. B. Whaley,  H. L. Woodcock III,  P. M. Zimmerman,  
 S. Faraji,  P. M. W. Gill,  M. Head-Gordon,  J. M. Herbert,  A. I. Krylov

 Additional authors for Version 5.4.1: 
 S. Kotaru,  Shaozhi Li,  Xiangyuan Li,  F. Matz,  A. Molle,  Haisheng Ren,  
 Yingli Su,  Hung-Yi Tsai,  C. Utku,  Fang Wang

 Contributors to earlier versions of Q-Chem not listed above: 
 R. D. Adamson,  B. Austin,  R. Baer,  J. Baker,  G. J. O. Beran,  
 K. Brandhorst,  S. T. Brown,  E. F. C. Byrd,  A. K. Chakraborty,  
 G. K. L. Chan,  Chun-Min Chang,  Yunqing Chen,  C.-L. Cheng,  
 Siu Hung Chien,  D. M. Chipman,  D. L. Crittenden,  H. Dachsel,  
 R. J. Doerksen,  A. D. Dutoi,  R. G. Edgar,  J. Fosso-Tande,  
 L. Fusti-Molnar,  D. Ghosh,  A. Ghysels,  A. Golubeva-Zadorozhnaya,  
 J. Gonthier,  M. S. Gordon,  S. R. Gwaltney,  G. Hawkins,  J. E. Herr,  
 A. Heyden,  S. Hirata,  E. G. Hohenstein,  G. Kedziora,  F. J. Keil,  
 C. Kelley,  Jihan Kim,  R. A. King,  R. Z. Khaliullin,  P. P. Korambath,  
 W. Kurlancheek,  A. Laurent,  A. M. Lee,  M. S. Lee,  S. V. Levchenko,  
 Ching Yeh Lin,  D. Liotard,  E. Livshits,  R. C. Lochan,  I. Lotan,  
 L. A. Martinez-Martinez,  P. E. Maslen,  N. Nair,  D. P. O'Neill,  
 D. Neuhauser,  E. Neuscamman,  C. M. Oana,  R. Olivares-Amaya,  R. Olson,  
 T. M. Perrine,  B. Peters,  P. A. Pieniazek,  A. Prociuk,  Y. M. Rhee,  
 J. Ritchie,  M. A. Rohrdanz,  E. Rosta,  N. J. Russ,  H. F. Schaefer III,  
 M. W. Schmidt,  N. E. Schultz,  S. Sharma,  N. Shenvi,  C. D. Sherrill,  
 A. C. Simmonett,  A. Sodt,  T. Stein,  D. Stuck,  K. S. Thanthiriwatte,  
 V. Vanovschi,  L. Vogt,  Tao Wang,  A. Warshel,  M. A. Watson,  
 C. F. Williams,  Q. Wu,  X. Xu,  Jun Yang,  W. Zhang,  Yan Zhao

 Please cite Q-Chem as follows:
 Y. Shao et al., Mol. Phys. 113, 184-215 (2015)
 DOI: 10.1080/00268976.2014.952696

 Q-Chem 5.4.1 for Intel X86 EM64T Linux

 Parts of Q-Chem use Armadillo 9.800.1 (Horizon Scraper).
 http://arma.sourceforge.net/

 Q-Chem begins on Fri Jan 20 17:12:10 2023  

 Host: 
0

     Scratch files written to /scratch/ari.fischer/qChem1409922.hpc-mn1/qchem119739//
 Aug1521 |scratch|qcdevops|jenkins|workspace|build_RNUM 8249   
 Processing $rem in /usr/local/qchem-5.4.1/config/preferences:
 Processing $rem in /home/ari.fischer/.qchemrc:
 Symmetry turned off for PCM/SM12/SMD calculation


!!********************************************.
!!******************Warning*******************.
!!Desired Analytical derivatives not available.
!!Finite difference job might take a long time.
!!********************************************.
!!********************************************.


 2-order derivative to be evaluated numerically with 1-order analytical derivatives

 Checking the input file for inconsistencies... 	...done.

--------------------------------------------------------------
User input:
--------------------------------------------------------------
$molecule
0 2
C        -0.0467818942   -0.2844205045   -0.2067772538
O        -0.6322274007   -1.3670698018    0.4157195353
H        -0.0518469837   -0.3592163502   -1.2954774014
C         1.3751125558   -0.1262202853    0.3010103968
H         1.8949622034   -1.0730899041    0.5015315836
O         1.8977899043    0.9480379569    0.4463101043
H        -1.3651885828   -1.6875295918   -0.1236875786
O        -0.7421776703    0.9514407369    0.1313505952
O        -1.8868869025    1.0151928884   -0.4902222097
$end

$rem
BASIS = 6-311++G(2df,2p)
GUI = 2
JOB_TYPE = Frequency
METHOD = wB97M-V
SOLVENT_METHOD = SMD
SCF_ALGORITHM = DIIS_GDM
MAX_SCF_CYCLES = 400
SCF_CONVERGENCE = 7
THRESH = 12
UNRESTRICTED = 1
SYMMETRY_IGNORE = 1
$end
--------------------------------------------------------------
 ----------------------------------------------------------------
             Standard Nuclear Orientation (Angstroms)
    I     Atom           X                Y                Z
 ----------------------------------------------------------------
    1      C      -0.0467818942    -0.2844205045    -0.2067772538
    2      O      -0.6322274007    -1.3670698018     0.4157195353
    3      H      -0.0518469837    -0.3592163502    -1.2954774014
    4      C       1.3751125558    -0.1262202853     0.3010103968
    5      H       1.8949622034    -1.0730899041     0.5015315836
    6      O       1.8977899043     0.9480379569     0.4463101043
    7      H      -1.3651885828    -1.6875295918    -0.1236875786
    8      O      -0.7421776703     0.9514407369     0.1313505952
    9      O      -1.8868869025     1.0151928884    -0.4902222097
 ----------------------------------------------------------------
 Nuclear Repulsion Energy =         237.23017710 hartrees
 There are       24 alpha and       23 beta electrons
 Requested basis set is 6-311++G(2df,2p)
 There are 66 shells and 234 basis functions

 Total QAlloc Memory Limit 288000 MB
 Mega-Array Size       188 MB
 MEM_STATIC part       192 MB
 
 Citation of the SMD model:
 Marenich, A.V.; Cramer, C.J.; Truhlar, D.G.
 J. Phys. Chem. B 2009, 113, 6378-6396.
 iSolventCode=           1
 Solvent: water                                                           
 
 vradii
            1           2           3           4           5           6
    1   1.8500000   1.5200000   1.2000000   1.8500000   1.2000000   1.5200000
            7           8           9
    1   1.2000000   1.5200000   1.5200000
 Changing PCM_VDW_RADII to SMD_RADIUS
 Discretize the solute cavity surface with Lebedev spheres
	Using 110 Lebedev grid points for each H atom
	Using 194 Lebedev grid points for other atoms
	Atomic van der Waals radii will be scaled by 1.20
 Remove points where switching function is < 1.0e-08
 Keep 837 surface tesserae and discard 657 interior tesserae
 Molecular Surface Area = 101.881 Angst**2

                       Distance Matrix (Angstroms)
             C (  1)   O (  2)   H (  3)   C (  4)   H (  5)   O (  6)
   O (  2)  1.379267
   H (  3)  1.091278  2.069011
   C (  4)  1.518110  2.362685  2.153897
   H (  5)  2.212255  2.545678  2.743888  1.098642
   O (  6)  2.393081  3.429526  2.922982  1.203468  2.021884
   H (  7)  1.927126  0.964825  2.205079  3.182343  3.375947  4.232983
   O (  8)  1.457827  2.338471  2.056749  2.381818  3.345185  2.658691
   O (  9)  2.270534  2.840788  2.429981  3.545351  4.432480  3.899408
             H (  7)   O (  8)
   O (  8)  2.723481
   O (  9)  2.776909  1.304138
 
 A cutoff of  1.0D-12 yielded   2093 shell pairs
 There are     26529 function pairs (     33774 Cartesian)
 Smallest overlap matrix eigenvalue = 8.45E-05
 Guess from superposition of atomic densities
 Warning:  Energy on first SCF cycle will be non-variational
 SAD guess density has 47.000000 electrons

 -----------------------------------------------------------------------
  General SCF calculation program by
  Eric Jon Sundstrom, Paul Horn, Yuezhi Mao, Dmitri Zuev, Alec White,
  David Stuck, Shaama M.S., Shane Yost, Joonho Lee, David Small,
  Daniel Levine, Susi Lehtola, Hugh Burton, Evgeny Epifanovsky,
  Bang C. Huynh
 -----------------------------------------------------------------------
 Exchange:     0.1500 Hartree-Fock + 1.0000 wB97M-V + LR-HF
 Correlation:  1.0000 wB97M-V
 Using SG-2 standard quadrature grid
 Nonlocal Correlation:  VV10 with C = 0.0100 and b = 6.00 and scale = 1.00000
 Grid used for NLC:  SG-1 standard quadrature
 using 8 threads for integral computing
 -------------------------------------------------------
 OpenMP Integral computing Module                
 Release: version 1.0, May 2013, Q-Chem Inc. Pittsburgh 
 -------------------------------------------------------
 
 Citation of the SMD model:
 Marenich, A.V.; Cramer, C.J.; Truhlar, D.G.
 J. Phys. Chem. B 2009, 113, 6378-6396.
 iSolventCode=           1
 Solvent: water                                                           
 
 vradii
            1           2           3           4           5           6
    1   1.8500000   1.5200000   1.2000000   1.8500000   1.2000000   1.5200000
            7           8           9
    1   1.2000000   1.5200000   1.5200000
 -------------------------------------------------------
 OpenMP BLAS3 based DFT computing Module                
 Release: version 1.0, May 2013, Q-Chem Inc. Pittsburgh 
 -------------------------------------------------------
 A unrestricted SCF calculation will be
 performed using DIIS, GDM
 SCF converges when RMS gradient is below 1.0e-07
 ---------------------------------------
  Cycle       Energy         DIIS error
 ---------------------------------------
    1    -379.7274354115      1.61e-02  
    2    -378.6551147005      2.50e-03  Done DIIS. Switching to GDM
 ---------------------------------------
  Cycle       Energy        RMS Gradient
 ---------------------------------------
    1    -378.6551147005      1.50e-01   Descent step
    2    -378.7796161658      1.62e-02   Normal BFGS step
    3    -378.7917511162      2.53e-02   Normal BFGS step
    4    -378.7934425881      5.30e-03   Normal BFGS step
    5    -378.7941076656      6.70e-03   Normal BFGS step
    6    -378.7942503082      3.04e-03   Normal BFGS step
    7    -378.7943084588      1.85e-03   Normal BFGS step
    8    -378.7943244624      7.89e-04   Normal BFGS step
    9    -378.7943268451      5.44e-04   Normal BFGS step
   10    -378.7943276216      3.45e-04   Normal BFGS step
   11    -378.7943281862      3.60e-04   Normal BFGS step
   12    -378.7943286700      2.86e-04   Normal BFGS step
   13    -378.7943289958      1.26e-04   Normal BFGS step
   14    -378.7943290859      3.79e-05   Normal BFGS step
   15    -378.7943290984      5.86e-06   Normal BFGS step
   16    -378.7943290999      3.45e-06   Normal BFGS step
   17    -378.7943291001      1.64e-06   Normal BFGS step
   18    -378.7943291001      4.43e-07   Normal BFGS step
   19    -378.7943291001      1.95e-07   Normal BFGS step
   20    -378.7943291001      1.16e-07   Normal BFGS step
   21    -378.7943291001      1.00e-07   Normal BFGS step
   22    -378.7943291001      3.04e-08  Convergence criterion met
 ---------------------------------------
 SCF time:   CPU 518.29s  wall 78.00s 
<S^2> =          0.753808423
(3)  G-ENP(liq) elect-nuc-pol free energy of system     -378.794329100 a.u.
(4)  G-CDS(liq) cavity-dispersion-solvent structure 
     free energy                                                3.2705 kcal/mol
(6)  G-S(liq) free energy of system                     -378.789117295 a.u.
 SCF   energy in the final basis set =     -378.7891172954
 Total energy in the final basis set =     -378.7891172954
 
 --------------------------------------------------------------
 
                    Orbital Energies (a.u.)
 --------------------------------------------------------------
 
 Alpha MOs
 -- Occupied --
-19.4692 -19.4274 -19.3712 -19.3645 -10.4717 -10.4572  -1.3553  -1.2160
 -1.1986  -1.0202  -0.8505  -0.7293  -0.6883  -0.6630  -0.6468  -0.6043
 -0.5882  -0.5666  -0.5248  -0.4943  -0.4613  -0.4172  -0.4098  -0.3858
 -- Virtual --
  0.0219   0.0360   0.0482   0.0563   0.0771   0.0998   0.1102   0.1153
  0.1306   0.1413   0.1587   0.1675   0.1753   0.2060   0.2203   0.2314
  0.2382   0.2570   0.2661   0.2732   0.2783   0.2913   0.2993   0.3077
  0.3141   0.3306   0.3434   0.3471   0.3519   0.3692   0.3850   0.4015
  0.4254   0.4471   0.4560   0.4884   0.5754   0.5845   0.6024   0.6215
  0.6560   0.6582   0.6718   0.7002   0.7148   0.7689   0.8071   0.8291
  0.8476   0.9142   0.9604   0.9780   0.9964   1.0461   1.0696   1.0802
  1.0962   1.1095   1.1180   1.1331   1.1554   1.1588   1.1761   1.1771
  1.1974   1.2016   1.2332   1.2646   1.3162   1.3349   1.3532   1.3880
  1.4084   1.4650   1.4770   1.4895   1.5323   1.5503   1.5856   1.5892
  1.6139   1.6665   1.6946   1.7306   1.7811   1.8056   1.8581   1.8832
  1.9253   2.0448   2.0950   2.1265   2.1650   2.2047   2.2754   2.3155
  2.3403   2.3805   2.4000   2.4638   2.5604   2.6201   2.6753   2.7005
  2.7767   2.8176   2.8680   2.9758   2.9909   3.0613   3.1102   3.1419
  3.1981   3.2547   3.2791   3.3322   3.3609   3.4113   3.4146   3.4699
  3.5189   3.5645   3.5953   3.6103   3.7200   3.7552   3.7923   3.8017
  3.8494   3.8650   3.9556   3.9828   4.0867   4.1324   4.1792   4.2171
  4.2387   4.3411   4.4003   4.4974   4.5629   4.6167   4.6839   4.7069
  4.8316   4.8835   4.9958   5.0367   5.0740   5.0769   5.1041   5.1449
  5.1584   5.1606   5.1800   5.1970   5.2104   5.2401   5.2757   5.2934
  5.3222   5.3250   5.3830   5.4325   5.5001   5.5217   5.5439   5.5772
  5.6022   5.6728   5.7170   5.7897   5.8834   6.0372   6.1166   6.3691
  6.3990   6.4615   6.5815   6.6390   6.7532   6.8223   6.8744   6.9276
  6.9391   6.9809   7.0508   7.0927   7.1100   7.1780   7.2146   7.2771
  7.3076   7.3227   7.3568   7.4122   7.4783   7.5264   7.6423   7.7319
  7.7673   7.8312   8.0060   8.0805  24.7086  24.9431  50.4045  50.4939
 50.5829  50.6951
 
 Beta MOs
 -- Occupied --
-19.4594 -19.4080 -19.3709 -19.3645 -10.4721 -10.4572  -1.3300  -1.2150
 -1.1971  -0.9877  -0.8419  -0.7237  -0.6806  -0.6502  -0.6356  -0.5858
 -0.5607  -0.5425  -0.5239  -0.4810  -0.4557  -0.4053  -0.3796
 -- Virtual --
 -0.0389   0.0228   0.0360   0.0485   0.0569   0.0776   0.1004   0.1111
  0.1157   0.1319   0.1425   0.1613   0.1678   0.1797   0.2077   0.2215
  0.2336   0.2407   0.2654   0.2732   0.2740   0.2794   0.2933   0.2999
  0.3096   0.3173   0.3317   0.3449   0.3493   0.3535   0.3707   0.3866
  0.4036   0.4264   0.4479   0.4569   0.4893   0.5758   0.5847   0.6028
  0.6223   0.6562   0.6585   0.6723   0.7003   0.7151   0.7715   0.8075
  0.8295   0.8488   0.9145   0.9623   0.9797   0.9984   1.0570   1.0715
  1.0858   1.1037   1.1119   1.1219   1.1427   1.1609   1.1638   1.1820
  1.1898   1.2032   1.2104   1.2378   1.2674   1.3191   1.3363   1.3554
  1.3956   1.4109   1.4757   1.4829   1.4927   1.5364   1.5611   1.5961
  1.6048   1.6255   1.6741   1.7030   1.7403   1.7958   1.8065   1.8652
  1.8892   1.9281   2.0480   2.0999   2.1315   2.1706   2.2178   2.2831
  2.3298   2.3449   2.3875   2.4016   2.4651   2.5608   2.6228   2.6842
  2.7028   2.7771   2.8180   2.8684   2.9759   2.9910   3.0621   3.1100
  3.1419   3.1984   3.2553   3.2803   3.3339   3.3618   3.4115   3.4148
  3.4703   3.5193   3.5646   3.5954   3.6102   3.7207   3.7555   3.7937
  3.8019   3.8500   3.8657   3.9559   3.9835   4.0874   4.1330   4.1795
  4.2173   4.2396   4.3415   4.4041   4.4990   4.5917   4.6256   4.6850
  4.7249   4.8555   4.8947   5.0143   5.1033   5.1171   5.1239   5.1383
  5.1593   5.1721   5.1757   5.1936   5.2277   5.2366   5.2488   5.2902
  5.2967   5.3311   5.3421   5.3944   5.4450   5.5023   5.5295   5.5475
  5.5792   5.6135   5.6832   5.7285   5.8006   5.8849   6.0410   6.1226
  6.3754   6.4062   6.5078   6.5929   6.6458   6.7676   6.8982   6.9325
  6.9568   6.9734   6.9986   7.0589   7.1139   7.1300   7.2034   7.2328
  7.2789   7.3167   7.3257   7.3975   7.4343   7.4870   7.5409   7.6451
  7.7330   7.7732   7.8401   8.0173   8.1013  24.7084  24.9430  50.4175
 50.5026  50.5838  50.6951
 --------------------------------------------------------------
 
          Ground-State Mulliken Net Atomic Charges

     Atom                 Charge (a.u.)    Spin (a.u.)
  --------------------------------------------------------
      1 C                    -0.045428      -0.005049
      2 O                    -0.392731       0.003836
      3 H                     0.261995       0.005579
      4 C                     0.157502       0.001029
      5 H                     0.191478      -0.000491
      6 O                    -0.351852       0.001993
      7 H                     0.361358       0.001024
      8 O                     0.035649       0.293975
      9 O                    -0.217970       0.698103
  --------------------------------------------------------
  Sum of atomic charges =    -0.000000
  Sum of spin   charges =     1.000000

 -----------------------------------------------------------------
                    Cartesian Multipole Moments
 -----------------------------------------------------------------
    Charge (ESU x 10^10)
                -0.0000
    Dipole Moment (Debye)
         X      -0.0238      Y      -4.8638      Z      -2.4163
       Tot       5.4310
    Quadrupole Moments (Debye-Ang)
        XX     -38.2109     XY      -0.2661     YY     -36.9648
        XZ      -0.5289     YZ       1.4105     ZZ     -33.3451
    Octopole Moments (Debye-Ang^2)
       XXX      -5.2132    XXY     -26.1467    XYY      -4.9517
       YYY     -22.2638    XXZ      -4.3629    XYZ      -5.2813
       YYZ      -7.2776    XZZ       1.2892    YZZ      -4.7263
       ZZZ     -11.0606
    Hexadecapole Moments (Debye-Ang^3)
      XXXX    -408.8776   XXXY      -2.1631   XXYY     -98.4623
      XYYY      10.9618   YYYY    -207.3611   XXXZ     -41.2959
      XXYZ       0.5835   XYYZ      -9.6558   YYYZ      12.3783
      XXZZ     -76.1679   XYZZ      -1.3734   YYZZ     -46.2997
      XZZZ     -32.0461   YZZZ      10.0445   ZZZZ     -61.0057
 -----------------------------------------------------------------
 Calculating analytic gradient of the SCF energy
 Gradient of CDS energy
            1           2           3           4           5           6
    1  -0.0025710   0.0022583  -0.0001994   0.0017996  -0.0001451  -0.0006529
    2  -0.0043531   0.0043858   0.0000922   0.0014491  -0.0001936  -0.0010706
    3   0.0021525  -0.0023429  -0.0001253   0.0005202   0.0000253  -0.0001571
            7           8           9
    1  -0.0002981  -0.0002098   0.0000185
    2  -0.0003760  -0.0000537   0.0001198
    3  -0.0000454  -0.0000518   0.0000244
 Gradient of SCF Energy
            1           2           3           4           5           6
    1  -0.0023197   0.0129564   0.0000604  -0.0050036   0.0053446   0.0017456
    2   0.0006504   0.0060086  -0.0039771   0.0061419  -0.0102789   0.0065142
    3   0.0176580   0.0141890  -0.0168372  -0.0055673   0.0015718   0.0020577
            7           8           9
    1  -0.0130415   0.0018954  -0.0016376
    2  -0.0076566  -0.0002731   0.0028705
    3  -0.0127686  -0.0002727  -0.0000306
 Max gradient component =       1.766E-02
 RMS gradient           =       7.955E-03
 Computing fast CPCM-SWIG gradient
 Updating gradient with PCM contributions...
 -- total gradient after adding PCM contribution --
---------------------------------------------------
  Atom         X              Y              Z     
---------------------------------------------------
   1       0.000050       0.000046      -0.000054
   2      -0.000038      -0.000046       0.000029
   3      -0.000006       0.000002       0.000009
   4      -0.000042      -0.000017       0.000012
   5      -0.000024      -0.000028       0.000021
   6       0.000033      -0.000007       0.000040
   7       0.000011       0.000011      -0.000029
   8       0.000013       0.000023      -0.000016
   9       0.000003       0.000016      -0.000012
---------------------------------------------------
 Number of fixed atoms: 0
 Gradient time:  CPU 58.83 s  wall 11.84 s
 ######################################################
 ######################################################
 # Starting finite difference calculation for IDERIV  #
 Finite diff step size:  1.88973e-03 a.u.
 ----------------------------------------------------------------
             Standard Nuclear Orientation (Angstroms)
    I     Atom           X                Y                Z
 ----------------------------------------------------------------
    1      C      -0.0457818942    -0.2844205045    -0.2067772538
    2      O      -0.6322274007    -1.3670698018     0.4157195353
    3      H      -0.0518469837    -0.3592163502    -1.2954774014
    4      C       1.3751125558    -0.1262202853     0.3010103968
    5      H       1.8949622034    -1.0730899041     0.5015315836
    6      O       1.8977899043     0.9480379569     0.4463101043
    7      H      -1.3651885828    -1.6875295918    -0.1236875786
    8      O      -0.7421776703     0.9514407369     0.1313505952
    9      O      -1.8868869025     1.0151928884    -0.4902222097
 ----------------------------------------------------------------
 Nuclear Repulsion Energy =         237.22613594 hartrees
 There are       24 alpha and       23 beta electrons
 Discretize the solute cavity surface with Lebedev spheres
	Using 110 Lebedev grid points for each H atom
	Using 194 Lebedev grid points for other atoms
	Atomic van der Waals radii will be scaled by 1.20
 Remove points where switching function is < 1.0e-08
 Keep 837 surface tesserae and discard 657 interior tesserae
 Molecular Surface Area = 101.884 Angst**2

                       Distance Matrix (Angstroms)
             C (  1)   O (  2)   H (  3)   C (  4)   H (  5)   O (  6)
   O (  2)  1.379692
   H (  3)  1.091283  2.069011
   C (  4)  1.517174  2.362685  2.153897
   H (  5)  2.211377  2.545678  2.743888  1.098642
   O (  6)  2.392268  3.429526  2.922982  1.203468  2.021884
   H (  7)  1.927810  0.964825  2.205079  3.182343  3.375947  4.232983
   O (  8)  1.458304  2.338471  2.056749  2.381818  3.345185  2.658691
   O (  9)  2.271344  2.840788  2.429981  3.545351  4.432480  3.899408
             H (  7)   O (  8)
   O (  8)  2.723481
   O (  9)  2.776909  1.304138
 
 Requested basis set is 6-311++G(2df,2p)
 There are 66 shells and 234 basis functions
 A cutoff of  1.0D-12 yielded   2093 shell pairs
 There are     26529 function pairs (     33774 Cartesian)
 Smallest overlap matrix eigenvalue = 8.42E-05
 Guess MOs from SCF MO coefficient file

 -----------------------------------------------------------------------
  General SCF calculation program by
  Eric Jon Sundstrom, Paul Horn, Yuezhi Mao, Dmitri Zuev, Alec White,
  David Stuck, Shaama M.S., Shane Yost, Joonho Lee, David Small,
  Daniel Levine, Susi Lehtola, Hugh Burton, Evgeny Epifanovsky,
  Bang C. Huynh
 -----------------------------------------------------------------------
 Exchange:     0.1500 Hartree-Fock + 1.0000 wB97M-V + LR-HF
 Correlation:  1.0000 wB97M-V
 Using SG-2 standard quadrature grid
 Nonlocal Correlation:  VV10 with C = 0.0100 and b = 6.00 and scale = 1.00000
 Grid used for NLC:  SG-1 standard quadrature
 
 Citation of the SMD model:
 Marenich, A.V.; Cramer, C.J.; Truhlar, D.G.
 J. Phys. Chem. B 2009, 113, 6378-6396.
 iSolventCode=           1
 Solvent: water                                                           
 
 vradii
            1           2           3           4           5           6
    1   1.8500000   1.5200000   1.2000000   1.8500000   1.2000000   1.5200000
            7           8           9
    1   1.2000000   1.5200000   1.5200000
 -------------------------------------------------------
 OpenMP BLAS3 based DFT computing Module                
 Release: version 1.0, May 2013, Q-Chem Inc. Pittsburgh 
 -------------------------------------------------------
 A unrestricted SCF calculation will be
 performed using Roothaan-Hall, DIIS, GDM
 SCF converges when RMS gradient is below 1.0e-07
 ---------------------------------------
  Cycle       Energy         DIIS error
 ---------------------------------------
    1    -378.7647374587      3.42e-04  Roothaan Step
 ---------------------------------------
  Cycle       Energy         DIIS error
 ---------------------------------------
    1    -378.7871489664      4.36e-04  
    2    -378.7897731327      4.97e-04  Done DIIS. Switching to GDM
 ---------------------------------------
  Cycle       Energy        RMS Gradient
 ---------------------------------------
    1    -378.7897731327      2.69e-02   Normal BFGS step
    2    -378.7872420937      4.12e-02  Line search: overstep
    3    -378.7941481388      3.83e-03   Normal BFGS step
    4    -378.7942964605      9.74e-04   Normal BFGS step
    5    -378.7943180033      5.42e-04   Normal BFGS step
    6    -378.7943226285      1.33e-04   Normal BFGS step
    7    -378.7943229750      3.28e-04   Normal BFGS step
    8    -378.7943231635      5.68e-05   Normal BFGS step
    9    -378.7943231982      4.63e-05   Normal BFGS step
   10    -378.7943232116      2.17e-05   Normal BFGS step
   11    -378.7943232160      7.80e-06   Normal BFGS step
   12    -378.7943232163      4.13e-06   Normal BFGS step
   13    -378.7943232164      3.10e-06   Normal BFGS step
   14    -378.7943232164      2.32e-06   Normal BFGS step
   15    -378.7943232165      1.83e-06   Normal BFGS step
   16    -378.7943232165      1.03e-06   Normal BFGS step
   17    -378.7943232165      3.96e-07   Normal BFGS step
   18    -378.7943232165      1.28e-07   Normal BFGS step
   19    -378.7943232165      4.72e-08  Convergence criterion met
 ---------------------------------------
 SCF time:   CPU 500.49s  wall 90.00s 
<S^2> =          0.753809714
(3)  G-ENP(liq) elect-nuc-pol free energy of system     -378.794323217 a.u.
(4)  G-CDS(liq) cavity-dispersion-solvent structure 
     free energy                                                3.2674 kcal/mol
(6)  G-S(liq) free energy of system                     -378.789116272 a.u.
 SCF   energy in the final basis set =     -378.7891162721
 Total energy in the final basis set =     -378.7891162721
 
 --------------------------------------------------------------
 
                    Orbital Energies (a.u.)
 --------------------------------------------------------------
 
 Alpha MOs
 -- Occupied --
-19.4691 -19.4274 -19.3711 -19.3646 -10.4718 -10.4572  -1.3552  -1.2160
 -1.1984  -1.0201  -0.8507  -0.7293  -0.6882  -0.6630  -0.6468  -0.6043
 -0.5882  -0.5667  -0.5248  -0.4943  -0.4613  -0.4172  -0.4098  -0.3859
 -- Virtual --
  0.0218   0.0360   0.0482   0.0563   0.0771   0.0998   0.1102   0.1153
  0.1306   0.1412   0.1587   0.1675   0.1753   0.2060   0.2202   0.2314
  0.2381   0.2570   0.2661   0.2732   0.2783   0.2913   0.2993   0.3077
  0.3141   0.3306   0.3434   0.3471   0.3519   0.3693   0.3850   0.4016
  0.4254   0.4471   0.4560   0.4884   0.5753   0.5845   0.6023   0.6215
  0.6559   0.6582   0.6718   0.7002   0.7148   0.7690   0.8072   0.8290
  0.8476   0.9142   0.9604   0.9780   0.9964   1.0461   1.0695   1.0803
  1.0962   1.1095   1.1180   1.1331   1.1554   1.1589   1.1761   1.1772
  1.1974   1.2017   1.2332   1.2647   1.3162   1.3350   1.3534   1.3880
  1.4083   1.4649   1.4768   1.4895   1.5323   1.5503   1.5857   1.5892
  1.6140   1.6665   1.6945   1.7305   1.7812   1.8058   1.8579   1.8833
  1.9253   2.0447   2.0947   2.1263   2.1650   2.2046   2.2751   2.3153
  2.3401   2.3805   2.4000   2.4637   2.5604   2.6205   2.6754   2.7006
  2.7767   2.8174   2.8681   2.9758   2.9913   3.0612   3.1103   3.1420
  3.1978   3.2546   3.2789   3.3321   3.3609   3.4111   3.4143   3.4701
  3.5189   3.5646   3.5952   3.6102   3.7202   3.7549   3.7919   3.8019
  3.8492   3.8650   3.9563   3.9834   4.0873   4.1324   4.1794   4.2174
  4.2389   4.3419   4.4004   4.4981   4.5630   4.6171   4.6843   4.7069
  4.8316   4.8835   4.9958   5.0367   5.0739   5.0768   5.1041   5.1449
  5.1584   5.1606   5.1800   5.1970   5.2104   5.2399   5.2757   5.2933
  5.3220   5.3249   5.3830   5.4323   5.5002   5.5215   5.5441   5.5773
  5.6017   5.6727   5.7167   5.7893   5.8833   6.0363   6.1154   6.3686
  6.3988   6.4615   6.5814   6.6385   6.7533   6.8222   6.8743   6.9276
  6.9391   6.9810   7.0508   7.0926   7.1099   7.1780   7.2145   7.2771
  7.3075   7.3227   7.3567   7.4121   7.4782   7.5262   7.6422   7.7320
  7.7671   7.8309   8.0060   8.0803  24.7076  24.9442  50.4044  50.4938
 50.5827  50.6951
 
 Beta MOs
 -- Occupied --
-19.4594 -19.4080 -19.3709 -19.3645 -10.4721 -10.4572  -1.3299  -1.2150
 -1.1970  -0.9877  -0.8421  -0.7237  -0.6806  -0.6502  -0.6355  -0.5858
 -0.5606  -0.5425  -0.5239  -0.4809  -0.4557  -0.4054  -0.3797
 -- Virtual --
 -0.0389   0.0227   0.0360   0.0485   0.0569   0.0776   0.1004   0.1111
  0.1157   0.1319   0.1425   0.1613   0.1678   0.1797   0.2077   0.2215
  0.2335   0.2406   0.2654   0.2732   0.2741   0.2794   0.2933   0.3000
  0.3096   0.3173   0.3317   0.3449   0.3493   0.3535   0.3708   0.3866
  0.4037   0.4264   0.4479   0.4568   0.4893   0.5757   0.5848   0.6027
  0.6222   0.6561   0.6585   0.6723   0.7003   0.7151   0.7716   0.8076
  0.8295   0.8487   0.9144   0.9623   0.9797   0.9984   1.0571   1.0714
  1.0859   1.1037   1.1118   1.1219   1.1427   1.1609   1.1639   1.1820
  1.1900   1.2032   1.2105   1.2378   1.2675   1.3191   1.3363   1.3555
  1.3956   1.4109   1.4755   1.4828   1.4927   1.5365   1.5611   1.5961
  1.6049   1.6256   1.6741   1.7029   1.7401   1.7959   1.8066   1.8650
  1.8893   1.9281   2.0479   2.0996   2.1313   2.1706   2.2176   2.2829
  2.3296   2.3446   2.3875   2.4016   2.4650   2.5607   2.6232   2.6843
  2.7029   2.7771   2.8178   2.8685   2.9760   2.9914   3.0620   3.1101
  3.1420   3.1981   3.2552   3.2801   3.3338   3.3619   3.4114   3.4145
  3.4705   3.5193   3.5646   3.5953   3.6101   3.7209   3.7553   3.7934
  3.8022   3.8498   3.8657   3.9566   3.9841   4.0880   4.1330   4.1797
  4.2176   4.2399   4.3423   4.4041   4.4998   4.5919   4.6260   4.6853
  4.7249   4.8555   4.8946   5.0143   5.1033   5.1171   5.1239   5.1382
  5.1593   5.1722   5.1757   5.1936   5.2277   5.2365   5.2487   5.2903
  5.2966   5.3310   5.3421   5.3944   5.4448   5.5025   5.5294   5.5476
  5.5793   5.6130   5.6831   5.7283   5.8002   5.8849   6.0401   6.1213
  6.3751   6.4058   6.5078   6.5928   6.6453   6.7676   6.8981   6.9325
  6.9567   6.9734   6.9987   7.0588   7.1139   7.1299   7.2033   7.2327
  7.2789   7.3165   7.3257   7.3973   7.4342   7.4870   7.5407   7.6450
  7.7331   7.7731   7.8399   8.0173   8.1011  24.7074  24.9441  50.4174
 50.5025  50.5836  50.6952
 --------------------------------------------------------------
 
          Ground-State Mulliken Net Atomic Charges

     Atom                 Charge (a.u.)    Spin (a.u.)
  --------------------------------------------------------
      1 C                    -0.045071      -0.005087
      2 O                    -0.392961       0.003840
      3 H                     0.262039       0.005580
      4 C                     0.157490       0.001038
      5 H                     0.191496      -0.000492
      6 O                    -0.351858       0.001992
      7 H                     0.361374       0.001025
      8 O                     0.035532       0.294137
      9 O                    -0.218042       0.697967
  --------------------------------------------------------
  Sum of atomic charges =    -0.000000
  Sum of spin   charges =     1.000000

 -----------------------------------------------------------------
                    Cartesian Multipole Moments
 -----------------------------------------------------------------
    Charge (ESU x 10^10)
                -0.0000
    Dipole Moment (Debye)
         X      -0.0203      Y      -4.8636      Z      -2.4175
       Tot       5.4313
    Quadrupole Moments (Debye-Ang)
        XX     -38.2107     XY      -0.2658     YY     -36.9668
        XZ      -0.5281     YZ       1.4113     ZZ     -33.3447
    Octopole Moments (Debye-Ang^2)
       XXX      -5.2185    XXY     -26.1466    XYY      -4.9536
       YYY     -22.2595    XXZ      -4.3631    XYZ      -5.2811
       YYZ      -7.2793    XZZ       1.2862    YZZ      -4.7261
       ZZZ     -11.0629
    Hexadecapole Moments (Debye-Ang^3)
      XXXX    -408.8636   XXXY      -2.1555   XXYY     -98.4567
      XYYY      10.9653   YYYY    -207.3766   XXXZ     -41.2918
      XXYZ       0.5826   XYYZ      -9.6532   YYYZ      12.3804
      XXZZ     -76.1675   XYZZ      -1.3711   YYZZ     -46.3019
      XZZZ     -32.0411   YZZZ      10.0473   ZZZZ     -61.0036
 -----------------------------------------------------------------
 Calculating analytic gradient of the SCF energy
 Gradient of CDS energy
            1           2           3           4           5           6
    1  -0.0025729   0.0022623  -0.0002000   0.0017982  -0.0001452  -0.0006528
    2  -0.0043527   0.0043867   0.0000921   0.0014493  -0.0001938  -0.0010707
    3   0.0021523  -0.0023433  -0.0001252   0.0005205   0.0000253  -0.0001571
            7           8           9
    1  -0.0002982  -0.0002098   0.0000185
    2  -0.0003766  -0.0000539   0.0001196
    3  -0.0000452  -0.0000516   0.0000244
 Gradient of SCF Energy
            1           2           3           4           5           6
    1  -0.0012935   0.0126981  -0.0000729  -0.0053536   0.0053344   0.0017294
    2   0.0007684   0.0058766  -0.0039786   0.0061898  -0.0102936   0.0064757
    3   0.0177253   0.0142099  -0.0168500  -0.0056560   0.0015581   0.0020438
            7           8           9
    1  -0.0130681   0.0017691  -0.0017428
    2  -0.0077173  -0.0002716   0.0029507
    3  -0.0127204  -0.0002759  -0.0000348
 Max gradient component =       1.773E-02
 RMS gradient           =       7.949E-03
 Computing fast CPCM-SWIG gradient
 Updating gradient with PCM contributions...
 -- total gradient after adding PCM contribution --
---------------------------------------------------
  Atom         X              Y              Z     
---------------------------------------------------
   1       0.001033       0.000171       0.000014
   2      -0.000278      -0.000178       0.000052
   3      -0.000114       0.000002       0.000002
   4      -0.000393       0.000023      -0.000079
   5      -0.000038      -0.000037       0.000007
   6       0.000014      -0.000053       0.000025
   7      -0.000019      -0.000049       0.000016
   8      -0.000107       0.000026      -0.000018
   9      -0.000099       0.000094      -0.000019
---------------------------------------------------
 Number of fixed atoms: 0
 Gradient time:  CPU 58.24 s  wall 11.17 s
 ----------------------------------------------------------------
             Standard Nuclear Orientation (Angstroms)
    I     Atom           X                Y                Z
 ----------------------------------------------------------------
    1      C      -0.0477818942    -0.2844205045    -0.2067772538
    2      O      -0.6322274007    -1.3670698018     0.4157195353
    3      H      -0.0518469837    -0.3592163502    -1.2954774014
    4      C       1.3751125558    -0.1262202853     0.3010103968
    5      H       1.8949622034    -1.0730899041     0.5015315836
    6      O       1.8977899043     0.9480379569     0.4463101043
    7      H      -1.3651885828    -1.6875295918    -0.1236875786
    8      O      -0.7421776703     0.9514407369     0.1313505952
    9      O      -1.8868869025     1.0151928884    -0.4902222097
 ----------------------------------------------------------------
 Nuclear Repulsion Energy =         237.23422214 hartrees
 There are       24 alpha and       23 beta electrons
 Discretize the solute cavity surface with Lebedev spheres
	Using 110 Lebedev grid points for each H atom
	Using 194 Lebedev grid points for other atoms
	Atomic van der Waals radii will be scaled by 1.20
 Remove points where switching function is < 1.0e-08
 Keep 837 surface tesserae and discard 657 interior tesserae
 Molecular Surface Area = 101.879 Angst**2

                       Distance Matrix (Angstroms)
             C (  1)   O (  2)   H (  3)   C (  4)   H (  5)   O (  6)
   O (  2)  1.378843
   H (  3)  1.091274  2.069011
   C (  4)  1.519047  2.362685  2.153897
   H (  5)  2.213132  2.545678  2.743888  1.098642
   O (  6)  2.393894  3.429526  2.922982  1.203468  2.021884
   H (  7)  1.926442  0.964825  2.205079  3.182343  3.375947  4.232983
   O (  8)  1.457350  2.338471  2.056749  2.381818  3.345185  2.658691
   O (  9)  2.269723  2.840788  2.429981  3.545351  4.432480  3.899408
             H (  7)   O (  8)
   O (  8)  2.723481
   O (  9)  2.776909  1.304138
 
 Requested basis set is 6-311++G(2df,2p)
 There are 66 shells and 234 basis functions
 A cutoff of  1.0D-12 yielded   2093 shell pairs
 There are     26529 function pairs (     33774 Cartesian)
 Smallest overlap matrix eigenvalue = 8.47E-05
 Guess MOs from SCF MO coefficient file

 -----------------------------------------------------------------------
  General SCF calculation program by
  Eric Jon Sundstrom, Paul Horn, Yuezhi Mao, Dmitri Zuev, Alec White,
  David Stuck, Shaama M.S., Shane Yost, Joonho Lee, David Small,
  Daniel Levine, Susi Lehtola, Hugh Burton, Evgeny Epifanovsky,
  Bang C. Huynh
 -----------------------------------------------------------------------
 Exchange:     0.1500 Hartree-Fock + 1.0000 wB97M-V + LR-HF
 Correlation:  1.0000 wB97M-V
 Using SG-2 standard quadrature grid
 Nonlocal Correlation:  VV10 with C = 0.0100 and b = 6.00 and scale = 1.00000
 Grid used for NLC:  SG-1 standard quadrature
 
 Citation of the SMD model:
 Marenich, A.V.; Cramer, C.J.; Truhlar, D.G.
 J. Phys. Chem. B 2009, 113, 6378-6396.
 iSolventCode=           1
 Solvent: water                                                           
 
 vradii
            1           2           3           4           5           6
    1   1.8500000   1.5200000   1.2000000   1.8500000   1.2000000   1.5200000
            7           8           9
    1   1.2000000   1.5200000   1.5200000
 -------------------------------------------------------
 OpenMP BLAS3 based DFT computing Module                
 Release: version 1.0, May 2013, Q-Chem Inc. Pittsburgh 
 -------------------------------------------------------
 A unrestricted SCF calculation will be
 performed using Roothaan-Hall, DIIS, GDM
 SCF converges when RMS gradient is below 1.0e-07
 ---------------------------------------
  Cycle       Energy         DIIS error
 ---------------------------------------
    1    -378.7647486519      3.42e-04  Roothaan Step
 ---------------------------------------
  Cycle       Energy         DIIS error
 ---------------------------------------
    1    -378.7871912150      4.35e-04  
    2    -378.7898286143      4.94e-04  Done DIIS. Switching to GDM
 ---------------------------------------
  Cycle       Energy        RMS Gradient
 ---------------------------------------
    1    -378.7898286143      2.66e-02   Normal BFGS step
    2    -378.7873267353      4.09e-02  Line search: overstep
    3    -378.7941583687      3.83e-03   Normal BFGS step
    4    -378.7943064489      9.78e-04   Normal BFGS step
    5    -378.7943279047      5.61e-04   Normal BFGS step
    6    -378.7943325090      1.57e-04   Normal BFGS step
    7    -378.7943328592      3.30e-04   Normal BFGS step
    8    -378.7943330596      5.64e-05   Normal BFGS step
    9    -378.7943330955      4.23e-05   Normal BFGS step
   10    -378.7943331111      2.57e-05   Normal BFGS step
   11    -378.7943331180      2.43e-05   Normal BFGS step
   12    -378.7943331197      2.10e-05   Normal BFGS step
   13    -378.7943331218      1.25e-05   Normal BFGS step
   14    -378.7943331230      9.58e-06   Normal BFGS step
   15    -378.7943331236      3.61e-06   Normal BFGS step
   16    -378.7943331237      8.67e-07   Normal BFGS step
   17    -378.7943331237      2.94e-07   Normal BFGS step
   18    -378.7943331237      1.45e-07   Normal BFGS step
   19    -378.7943331237      4.64e-08  Convergence criterion met
 ---------------------------------------
 SCF time:   CPU 516.00s  wall 94.00s 
<S^2> =          0.753807139
(3)  G-ENP(liq) elect-nuc-pol free energy of system     -378.794333124 a.u.
(4)  G-CDS(liq) cavity-dispersion-solvent structure 
     free energy                                                3.2735 kcal/mol
(6)  G-S(liq) free energy of system                     -378.789116463 a.u.
 SCF   energy in the final basis set =     -378.7891164626
 Total energy in the final basis set =     -378.7891164626
 
 --------------------------------------------------------------
 
                    Orbital Energies (a.u.)
 --------------------------------------------------------------
 
 Alpha MOs
 -- Occupied --
-19.4692 -19.4274 -19.3712 -19.3645 -10.4717 -10.4571  -1.3554  -1.2159
 -1.1987  -1.0202  -0.8502  -0.7293  -0.6884  -0.6630  -0.6469  -0.6043
 -0.5882  -0.5666  -0.5248  -0.4943  -0.4613  -0.4172  -0.4099  -0.3857
 -- Virtual --
  0.0220   0.0360   0.0482   0.0564   0.0771   0.0998   0.1102   0.1153
  0.1306   0.1413   0.1587   0.1676   0.1754   0.2060   0.2203   0.2315
  0.2382   0.2571   0.2660   0.2733   0.2783   0.2913   0.2993   0.3076
  0.3141   0.3306   0.3435   0.3471   0.3519   0.3691   0.3851   0.4014
  0.4254   0.4470   0.4560   0.4883   0.5754   0.5844   0.6024   0.6216
  0.6560   0.6582   0.6717   0.7002   0.7148   0.7687   0.8071   0.8291
  0.8477   0.9142   0.9605   0.9780   0.9964   1.0460   1.0697   1.0802
  1.0962   1.1096   1.1179   1.1331   1.1554   1.1587   1.1761   1.1770
  1.1974   1.2015   1.2332   1.2645   1.3161   1.3348   1.3531   1.3880
  1.4084   1.4650   1.4771   1.4894   1.5322   1.5503   1.5856   1.5892
  1.6138   1.6665   1.6946   1.7307   1.7810   1.8055   1.8583   1.8831
  1.9254   2.0449   2.0952   2.1266   2.1651   2.2049   2.2757   2.3157
  2.3406   2.3805   2.4000   2.4639   2.5604   2.6198   2.6752   2.7004
  2.7767   2.8178   2.8679   2.9758   2.9905   3.0614   3.1101   3.1419
  3.1984   3.2549   3.2792   3.3322   3.3609   3.4114   3.4149   3.4697
  3.5189   3.5645   3.5953   3.6105   3.7198   3.7554   3.7927   3.8014
  3.8495   3.8650   3.9549   3.9822   4.0860   4.1324   4.1790   4.2167
  4.2385   4.3404   4.4003   4.4967   4.5629   4.6162   4.6835   4.7068
  4.8317   4.8835   4.9958   5.0367   5.0740   5.0769   5.1041   5.1450
  5.1584   5.1605   5.1800   5.1970   5.2105   5.2402   5.2756   5.2934
  5.3223   5.3251   5.3830   5.4327   5.4999   5.5219   5.5437   5.5770
  5.6028   5.6729   5.7173   5.7901   5.8834   6.0382   6.1179   6.3695
  6.3992   6.4615   6.5815   6.6395   6.7531   6.8225   6.8745   6.9276
  6.9391   6.9809   7.0509   7.0927   7.1101   7.1781   7.2147   7.2772
  7.3078   7.3227   7.3570   7.4123   7.4783   7.5266   7.6424   7.7318
  7.7674   7.8315   8.0061   8.0807  24.7096  24.9420  50.4046  50.4941
 50.5831  50.6950
 
 Beta MOs
 -- Occupied --
-19.4595 -19.4080 -19.3709 -19.3645 -10.4721 -10.4572  -1.3301  -1.2150
 -1.1972  -0.9878  -0.8417  -0.7237  -0.6807  -0.6502  -0.6356  -0.5858
 -0.5607  -0.5424  -0.5239  -0.4810  -0.4558  -0.4053  -0.3796
 -- Virtual --
 -0.0389   0.0229   0.0360   0.0485   0.0569   0.0776   0.1004   0.1111
  0.1157   0.1318   0.1425   0.1613   0.1678   0.1798   0.2077   0.2216
  0.2337   0.2407   0.2654   0.2732   0.2740   0.2794   0.2934   0.2999
  0.3095   0.3173   0.3317   0.3449   0.3493   0.3535   0.3706   0.3867
  0.4035   0.4263   0.4478   0.4569   0.4893   0.5758   0.5847   0.6028
  0.6224   0.6562   0.6585   0.6723   0.7003   0.7151   0.7713   0.8075
  0.8295   0.8488   0.9145   0.9623   0.9797   0.9984   1.0569   1.0716
  1.0858   1.1038   1.1119   1.1218   1.1428   1.1609   1.1638   1.1820
  1.1897   1.2031   1.2104   1.2379   1.2673   1.3190   1.3362   1.3552
  1.3956   1.4109   1.4758   1.4830   1.4927   1.5364   1.5611   1.5961
  1.6048   1.6254   1.6742   1.7030   1.7404   1.7957   1.8063   1.8653
  1.8892   1.9282   2.0480   2.1001   2.1316   2.1707   2.2180   2.2834
  2.3300   2.3451   2.3875   2.4017   2.4652   2.5608   2.6225   2.6841
  2.7027   2.7771   2.8182   2.8683   2.9759   2.9906   3.0622   3.1099
  3.1419   3.1987   3.2554   3.2804   3.3339   3.3618   3.4117   3.4152
  3.4702   3.5193   3.5645   3.5955   3.6104   3.7205   3.7557   3.7941
  3.8017   3.8501   3.8657   3.9551   3.9829   4.0868   4.1330   4.1793
  4.2169   4.2394   4.3408   4.4040   4.4983   4.5915   4.6252   4.6846
  4.7249   4.8555   4.8947   5.0143   5.1034   5.1171   5.1239   5.1384
  5.1593   5.1720   5.1758   5.1936   5.2278   5.2367   5.2489   5.2901
  5.2967   5.3312   5.3422   5.3945   5.4452   5.5021   5.5296   5.5475
  5.5790   5.6139   5.6834   5.7288   5.8010   5.8850   6.0419   6.1239
  6.3757   6.4065   6.5078   6.5929   6.6463   6.7676   6.8984   6.9325
  6.9568   6.9734   6.9986   7.0589   7.1139   7.1301   7.2034   7.2330
  7.2790   7.3169   7.3258   7.3978   7.4344   7.4870   7.5411   7.6451
  7.7330   7.7734   7.8404   8.0174   8.1015  24.7094  24.9419  50.4175
 50.5027  50.5840  50.6951
 --------------------------------------------------------------
 
          Ground-State Mulliken Net Atomic Charges

     Atom                 Charge (a.u.)    Spin (a.u.)
  --------------------------------------------------------
      1 C                    -0.045786      -0.005011
      2 O                    -0.392500       0.003832
      3 H                     0.261951       0.005579
      4 C                     0.157513       0.001021
      5 H                     0.191459      -0.000490
      6 O                    -0.351846       0.001993
      7 H                     0.361343       0.001024
      8 O                     0.035765       0.293813
      9 O                    -0.217898       0.698239
  --------------------------------------------------------
  Sum of atomic charges =    -0.000000
  Sum of spin   charges =     1.000000

 -----------------------------------------------------------------
                    Cartesian Multipole Moments
 -----------------------------------------------------------------
    Charge (ESU x 10^10)
                -0.0000
    Dipole Moment (Debye)
         X      -0.0274      Y      -4.8640      Z      -2.4151
       Tot       5.4307
    Quadrupole Moments (Debye-Ang)
        XX     -38.2111     XY      -0.2665     YY     -36.9629
        XZ      -0.5298     YZ       1.4097     ZZ     -33.3455
    Octopole Moments (Debye-Ang^2)
       XXX      -5.2079    XXY     -26.1468    XYY      -4.9499
       YYY     -22.2681    XXZ      -4.3626    XYZ      -5.2814
       YYZ      -7.2758    XZZ       1.2922    YZZ      -4.7265
       ZZZ     -11.0584
    Hexadecapole Moments (Debye-Ang^3)
      XXXX    -408.8917   XXXY      -2.1706   XXYY     -98.4678
      XYYY      10.9582   YYYY    -207.3457   XXXZ     -41.3000
      XXYZ       0.5845   XYYZ      -9.6585   YYYZ      12.3762
      XXZZ     -76.1683   XYZZ      -1.3758   YYZZ     -46.2975
      XZZZ     -32.0511   YZZZ      10.0418   ZZZZ     -61.0077
 -----------------------------------------------------------------
 Calculating analytic gradient of the SCF energy
 Gradient of CDS energy
            1           2           3           4           5           6
    1  -0.0025688   0.0022540  -0.0001987   0.0018009  -0.0001450  -0.0006530
    2  -0.0043529   0.0043842   0.0000924   0.0014490  -0.0001933  -0.0010704
    3   0.0021525  -0.0023422  -0.0001253   0.0005200   0.0000253  -0.0001572
            7           8           9
    1  -0.0002980  -0.0002099   0.0000185
    2  -0.0003754  -0.0000535   0.0001200
    3  -0.0000455  -0.0000519   0.0000244
 Gradient of SCF Energy
            1           2           3           4           5           6
    1  -0.0033439   0.0132146   0.0001937  -0.0046556   0.0053547   0.0017618
    2   0.0005333   0.0061406  -0.0039755   0.0060938  -0.0102642   0.0065526
    3   0.0175920   0.0141681  -0.0168249  -0.0054793   0.0015855   0.0020715
            7           8           9
    1  -0.0130150   0.0020219  -0.0015322
    2  -0.0075957  -0.0002750   0.0027901
    3  -0.0128167  -0.0002698  -0.0000264
 Max gradient component =       1.759E-02
 RMS gradient           =       7.968E-03
 Computing fast CPCM-SWIG gradient
 Updating gradient with PCM contributions...
 -- total gradient after adding PCM contribution --
---------------------------------------------------
  Atom         X              Y              Z     
---------------------------------------------------
   1      -0.000931      -0.000078      -0.000121
   2       0.000202       0.000086       0.000006
   3       0.000101       0.000002       0.000015
   4       0.000307      -0.000058       0.000102
   5      -0.000010      -0.000019       0.000035
   6       0.000051       0.000039       0.000056
   7       0.000041       0.000071      -0.000075
   8       0.000132       0.000020      -0.000013
   9       0.000106      -0.000063      -0.000005
---------------------------------------------------
 Number of fixed atoms: 0
 Gradient time:  CPU 58.26 s  wall 11.22 s
 ----------------------------------------------------------------
             Standard Nuclear Orientation (Angstroms)
    I     Atom           X                Y                Z
 ----------------------------------------------------------------
    1      C      -0.0467818942    -0.2834205045    -0.2067772538
    2      O      -0.6322274007    -1.3670698018     0.4157195353
    3      H      -0.0518469837    -0.3592163502    -1.2954774014
    4      C       1.3751125558    -0.1262202853     0.3010103968
    5      H       1.8949622034    -1.0730899041     0.5015315836
    6      O       1.8977899043     0.9480379569     0.4463101043
    7      H      -1.3651885828    -1.6875295918    -0.1236875786
    8      O      -0.7421776703     0.9514407369     0.1313505952
    9      O      -1.8868869025     1.0151928884    -0.4902222097
 ----------------------------------------------------------------
 Nuclear Repulsion Energy =         237.23476266 hartrees
 There are       24 alpha and       23 beta electrons
 Discretize the solute cavity surface with Lebedev spheres
	Using 110 Lebedev grid points for each H atom
	Using 194 Lebedev grid points for other atoms
	Atomic van der Waals radii will be scaled by 1.20
 Remove points where switching function is < 1.0e-08
 Keep 837 surface tesserae and discard 657 interior tesserae
 Molecular Surface Area = 101.882 Angst**2

                       Distance Matrix (Angstroms)
             C (  1)   O (  2)   H (  3)   C (  4)   H (  5)   O (  6)
   O (  2)  1.380052
   H (  3)  1.091347  2.069011
   C (  4)  1.518007  2.362685  2.153897
   H (  5)  2.212611  2.545678  2.743888  1.098642
   O (  6)  2.392566  3.429526  2.922982  1.203468  2.021884
   H (  7)  1.927854  0.964825  2.205079  3.182343  3.375947  4.232983
   O (  8)  1.456979  2.338471  2.056749  2.381818  3.345185  2.658691
   O (  9)  2.269961  2.840788  2.429981  3.545351  4.432480  3.899408
             H (  7)   O (  8)
   O (  8)  2.723481
   O (  9)  2.776909  1.304138
 
 Requested basis set is 6-311++G(2df,2p)
 There are 66 shells and 234 basis functions
 A cutoff of  1.0D-12 yielded   2093 shell pairs
 There are     26529 function pairs (     33774 Cartesian)
 Smallest overlap matrix eigenvalue = 8.45E-05
 Guess MOs from SCF MO coefficient file

 -----------------------------------------------------------------------
  General SCF calculation program by
  Eric Jon Sundstrom, Paul Horn, Yuezhi Mao, Dmitri Zuev, Alec White,
  David Stuck, Shaama M.S., Shane Yost, Joonho Lee, David Small,
  Daniel Levine, Susi Lehtola, Hugh Burton, Evgeny Epifanovsky,
  Bang C. Huynh
 -----------------------------------------------------------------------
 Exchange:     0.1500 Hartree-Fock + 1.0000 wB97M-V + LR-HF
 Correlation:  1.0000 wB97M-V
 Using SG-2 standard quadrature grid
 Nonlocal Correlation:  VV10 with C = 0.0100 and b = 6.00 and scale = 1.00000
 Grid used for NLC:  SG-1 standard quadrature
 
 Citation of the SMD model:
 Marenich, A.V.; Cramer, C.J.; Truhlar, D.G.
 J. Phys. Chem. B 2009, 113, 6378-6396.
 iSolventCode=           1
 Solvent: water                                                           
 
 vradii
            1           2           3           4           5           6
    1   1.8500000   1.5200000   1.2000000   1.8500000   1.2000000   1.5200000
            7           8           9
    1   1.2000000   1.5200000   1.5200000
 -------------------------------------------------------
 OpenMP BLAS3 based DFT computing Module                
 Release: version 1.0, May 2013, Q-Chem Inc. Pittsburgh 
 -------------------------------------------------------
 A unrestricted SCF calculation will be
 performed using Roothaan-Hall, DIIS, GDM
 SCF converges when RMS gradient is below 1.0e-07
 ---------------------------------------
  Cycle       Energy         DIIS error
 ---------------------------------------
    1    -378.7647513362      3.42e-04  Roothaan Step
 ---------------------------------------
  Cycle       Energy         DIIS error
 ---------------------------------------
    1    -378.7871494735      4.36e-04  
    2    -378.7897661615      4.97e-04  Done DIIS. Switching to GDM
 ---------------------------------------
  Cycle       Energy        RMS Gradient
 ---------------------------------------
    1    -378.7897661615      2.68e-02   Normal BFGS step
    2    -378.7872308184      4.12e-02  Line search: overstep
    3    -378.7941453358      3.82e-03   Normal BFGS step
    4    -378.7942933867      9.73e-04   Normal BFGS step
    5    -378.7943148418      5.56e-04   Normal BFGS step
    6    -378.7943194824      1.48e-04   Normal BFGS step
    7    -378.7943198308      3.28e-04   Normal BFGS step
    8    -378.7943200246      5.70e-05   Normal BFGS step
    9    -378.7943200581      4.54e-05   Normal BFGS step
   10    -378.7943200712      2.24e-05   Normal BFGS step
   11    -378.7943200755      8.32e-06   Normal BFGS step
   12    -378.7943200759      2.98e-06   Normal BFGS step
   13    -378.7943200759      1.91e-06   Normal BFGS step
   14    -378.7943200759      1.45e-06   Normal BFGS step
   15    -378.7943200759      1.34e-06   Normal BFGS step
   16    -378.7943200759      7.82e-07   Normal BFGS step
   17    -378.7943200759      3.63e-07   Normal BFGS step
   18    -378.7943200759      1.27e-07   Normal BFGS step
   19    -378.7943200759      4.93e-08  Convergence criterion met
 ---------------------------------------
 SCF time:   CPU 511.20s  wall 92.00s 
<S^2> =          0.753806080
(3)  G-ENP(liq) elect-nuc-pol free energy of system     -378.794320076 a.u.
(4)  G-CDS(liq) cavity-dispersion-solvent structure 
     free energy                                                3.2653 kcal/mol
(6)  G-S(liq) free energy of system                     -378.789116499 a.u.
 SCF   energy in the final basis set =     -378.7891164992
 Total energy in the final basis set =     -378.7891164992
 
 --------------------------------------------------------------
 
                    Orbital Energies (a.u.)
 --------------------------------------------------------------
 
 Alpha MOs
 -- Occupied --
-19.4693 -19.4275 -19.3710 -19.3645 -10.4717 -10.4572  -1.3555  -1.2159
 -1.1983  -1.0204  -0.8504  -0.7293  -0.6882  -0.6631  -0.6469  -0.6043
 -0.5882  -0.5665  -0.5248  -0.4942  -0.4612  -0.4173  -0.4099  -0.3859
 -- Virtual --
  0.0219   0.0360   0.0482   0.0563   0.0771   0.0998   0.1102   0.1153
  0.1306   0.1413   0.1587   0.1676   0.1753   0.2061   0.2203   0.2314
  0.2383   0.2571   0.2660   0.2732   0.2783   0.2913   0.2994   0.3077
  0.3141   0.3306   0.3434   0.3471   0.3519   0.3691   0.3850   0.4015
  0.4254   0.4471   0.4559   0.4884   0.5754   0.5845   0.6024   0.6215
  0.6559   0.6581   0.6717   0.7002   0.7148   0.7689   0.8072   0.8291
  0.8476   0.9142   0.9604   0.9779   0.9964   1.0460   1.0697   1.0802
  1.0963   1.1096   1.1180   1.1331   1.1554   1.1588   1.1761   1.1770
  1.1973   1.2016   1.2332   1.2646   1.3160   1.3348   1.3532   1.3880
  1.4084   1.4650   1.4771   1.4894   1.5322   1.5502   1.5856   1.5894
  1.6138   1.6666   1.6947   1.7305   1.7811   1.8057   1.8580   1.8833
  1.9255   2.0449   2.0948   2.1265   2.1649   2.2046   2.2755   2.3157
  2.3404   2.3805   2.4000   2.4638   2.5605   2.6201   2.6753   2.7002
  2.7766   2.8176   2.8680   2.9757   2.9910   3.0613   3.1106   3.1419
  3.1980   3.2547   3.2792   3.3322   3.3607   3.4113   3.4145   3.4699
  3.5189   3.5645   3.5954   3.6105   3.7201   3.7552   3.7924   3.8018
  3.8487   3.8650   3.9557   3.9829   4.0867   4.1323   4.1792   4.2172
  4.2389   4.3408   4.4000   4.4974   4.5629   4.6169   4.6838   4.7070
  4.8318   4.8837   4.9962   5.0366   5.0739   5.0768   5.1040   5.1449
  5.1584   5.1606   5.1800   5.1970   5.2104   5.2400   5.2757   5.2933
  5.3222   5.3249   5.3833   5.4327   5.4999   5.5216   5.5438   5.5770
  5.6020   5.6725   5.7171   5.7900   5.8835   6.0365   6.1158   6.3697
  6.3995   6.4615   6.5815   6.6383   6.7528   6.8221   6.8744   6.9276
  6.9391   6.9810   7.0509   7.0926   7.1100   7.1781   7.2147   7.2770
  7.3076   7.3227   7.3567   7.4122   7.4783   7.5263   7.6421   7.7319
  7.7672   7.8315   8.0061   8.0806  24.7082  24.9433  50.4045  50.4940
 50.5826  50.6951
 
 Beta MOs
 -- Occupied --
-19.4595 -19.4081 -19.3708 -19.3645 -10.4721 -10.4572  -1.3302  -1.2150
 -1.1968  -0.9880  -0.8419  -0.7237  -0.6804  -0.6502  -0.6357  -0.5858
 -0.5606  -0.5425  -0.5239  -0.4809  -0.4556  -0.4054  -0.3797
 -- Virtual --
 -0.0390   0.0228   0.0360   0.0485   0.0569   0.0776   0.1004   0.1111
  0.1157   0.1318   0.1425   0.1613   0.1678   0.1798   0.2077   0.2216
  0.2335   0.2408   0.2654   0.2732   0.2740   0.2794   0.2933   0.3000
  0.3095   0.3173   0.3317   0.3449   0.3493   0.3535   0.3707   0.3866
  0.4036   0.4264   0.4478   0.4568   0.4893   0.5758   0.5848   0.6028
  0.6223   0.6561   0.6584   0.6722   0.7003   0.7151   0.7715   0.8076
  0.8296   0.8488   0.9145   0.9623   0.9797   0.9984   1.0570   1.0716
  1.0859   1.1038   1.1119   1.1219   1.1427   1.1609   1.1638   1.1820
  1.1898   1.2031   1.2104   1.2378   1.2674   1.3189   1.3362   1.3553
  1.3955   1.4110   1.4757   1.4829   1.4926   1.5364   1.5611   1.5961
  1.6050   1.6255   1.6742   1.7031   1.7402   1.7958   1.8065   1.8651
  1.8893   1.9283   2.0481   2.0997   2.1315   2.1705   2.2177   2.2832
  2.3299   2.3450   2.3875   2.4016   2.4652   2.5608   2.6228   2.6841
  2.7025   2.7770   2.8180   2.8684   2.9759   2.9911   3.0621   3.1105
  3.1419   3.1983   3.2553   3.2805   3.3339   3.3617   3.4116   3.4147
  3.4703   3.5193   3.5645   3.5955   3.6104   3.7208   3.7556   3.7939
  3.8021   3.8494   3.8656   3.9559   3.9836   4.0874   4.1329   4.1796
  4.2173   4.2399   4.3412   4.4037   4.4991   4.5917   4.6258   4.6849
  4.7250   4.8557   4.8949   5.0146   5.1033   5.1170   5.1239   5.1383
  5.1593   5.1721   5.1757   5.1936   5.2277   5.2366   5.2488   5.2903
  5.2965   5.3311   5.3420   5.3947   5.4452   5.5021   5.5294   5.5474
  5.5790   5.6132   5.6830   5.7285   5.8010   5.8850   6.0403   6.1218
  6.3758   6.4069   6.5077   6.5929   6.6452   6.7670   6.8981   6.9325
  6.9568   6.9734   6.9986   7.0589   7.1139   7.1300   7.2034   7.2330
  7.2788   7.3167   7.3257   7.3974   7.4344   7.4871   7.5409   7.6449
  7.7330   7.7731   7.8405   8.0174   8.1014  24.7080  24.9432  50.4175
 50.5027  50.5835  50.6951
 --------------------------------------------------------------
 
          Ground-State Mulliken Net Atomic Charges

     Atom                 Charge (a.u.)    Spin (a.u.)
  --------------------------------------------------------
      1 C                    -0.045421      -0.005023
      2 O                    -0.393293       0.003890
      3 H                     0.262019       0.005595
      4 C                     0.157456       0.001033
      5 H                     0.191595      -0.000490
      6 O                    -0.351841       0.001987
      7 H                     0.361313       0.001026
      8 O                     0.035848       0.293669
      9 O                    -0.217677       0.698312
  --------------------------------------------------------
  Sum of atomic charges =    -0.000000
  Sum of spin   charges =     1.000000

 -----------------------------------------------------------------
                    Cartesian Multipole Moments
 -----------------------------------------------------------------
    Charge (ESU x 10^10)
                -0.0000
    Dipole Moment (Debye)
         X      -0.0247      Y      -4.8562      Z      -2.4179
       Tot       5.4249
    Quadrupole Moments (Debye-Ang)
        XX     -38.2058     XY      -0.2744     YY     -36.9686
        XZ      -0.5261     YZ       1.4105     ZZ     -33.3455
    Octopole Moments (Debye-Ang^2)
       XXX      -5.2218    XXY     -26.1436    XYY      -4.9515
       YYY     -22.2553    XXZ      -4.3670    XYZ      -5.2818
       YYZ      -7.2810    XZZ       1.2889    YZZ      -4.7268
       ZZZ     -11.0641
    Hexadecapole Moments (Debye-Ang^3)
      XXXX    -408.8394   XXXY      -2.1985   XXYY     -98.4539
      XYYY      10.9387   YYYY    -207.3623   XXXZ     -41.2833
      XXYZ       0.5793   XYYZ      -9.6505   YYYZ      12.3805
      XXZZ     -76.1647   XYZZ      -1.3803   YYZZ     -46.2984
      XZZZ     -32.0409   YZZZ      10.0506   ZZZZ     -61.0075
 -----------------------------------------------------------------
 Calculating analytic gradient of the SCF energy
 Gradient of CDS energy
            1           2           3           4           5           6
    1  -0.0025704   0.0022587  -0.0001994   0.0017992  -0.0001453  -0.0006529
    2  -0.0043547   0.0043915   0.0000913   0.0014481  -0.0001939  -0.0010706
    3   0.0021520  -0.0023439  -0.0001254   0.0005204   0.0000254  -0.0001571
            7           8           9
    1  -0.0002982  -0.0002101   0.0000185
    2  -0.0003773  -0.0000540   0.0001196
    3  -0.0000450  -0.0000511   0.0000245
 Gradient of SCF Energy
            1           2           3           4           5           6
    1  -0.0022008   0.0128144   0.0000444  -0.0049912   0.0053915   0.0016743
    2   0.0014317   0.0057102  -0.0040740   0.0059821  -0.0102724   0.0065002
    3   0.0176471   0.0142698  -0.0168700  -0.0055646   0.0015921   0.0020302
            7           8           9
    1  -0.0130440   0.0019203  -0.0016089
    2  -0.0076797  -0.0004640   0.0028659
    3  -0.0127410  -0.0003585  -0.0000050
 Max gradient component =       1.765E-02
 RMS gradient           =       7.945E-03
 Computing fast CPCM-SWIG gradient
 Updating gradient with PCM contributions...
 -- total gradient after adding PCM contribution --
---------------------------------------------------
  Atom         X              Y              Z     
---------------------------------------------------
   1       0.000174       0.000797      -0.000062
   2      -0.000168      -0.000328       0.000116
   3      -0.000020      -0.000077      -0.000031
   4      -0.000026      -0.000167       0.000017
   5       0.000018      -0.000025       0.000041
   6      -0.000043      -0.000023       0.000012
   7      -0.000006      -0.000029      -0.000008
   8       0.000033      -0.000165      -0.000101
   9       0.000036       0.000017       0.000016
---------------------------------------------------
 Number of fixed atoms: 0
 Gradient time:  CPU 59.48 s  wall 12.30 s
 ----------------------------------------------------------------
             Standard Nuclear Orientation (Angstroms)
    I     Atom           X                Y                Z
 ----------------------------------------------------------------
    1      C      -0.0467818942    -0.2854205045    -0.2067772538
    2      O      -0.6322274007    -1.3670698018     0.4157195353
    3      H      -0.0518469837    -0.3592163502    -1.2954774014
    4      C       1.3751125558    -0.1262202853     0.3010103968
    5      H       1.8949622034    -1.0730899041     0.5015315836
    6      O       1.8977899043     0.9480379569     0.4463101043
    7      H      -1.3651885828    -1.6875295918    -0.1236875786
    8      O      -0.7421776703     0.9514407369     0.1313505952
    9      O      -1.8868869025     1.0151928884    -0.4902222097
 ----------------------------------------------------------------
 Nuclear Repulsion Energy =         237.22560122 hartrees
 There are       24 alpha and       23 beta electrons
 Discretize the solute cavity surface with Lebedev spheres
	Using 110 Lebedev grid points for each H atom
	Using 194 Lebedev grid points for other atoms
	Atomic van der Waals radii will be scaled by 1.20
 Remove points where switching function is < 1.0e-08
 Keep 837 surface tesserae and discard 657 interior tesserae
 Molecular Surface Area = 101.880 Angst**2

                       Distance Matrix (Angstroms)
             C (  1)   O (  2)   H (  3)   C (  4)   H (  5)   O (  6)
   O (  2)  1.378482
   H (  3)  1.091210  2.069011
   C (  4)  1.518215  2.362685  2.153897
   H (  5)  2.211898  2.545678  2.743888  1.098642
   O (  6)  2.393596  3.429526  2.922982  1.203468  2.021884
   H (  7)  1.926398  0.964825  2.205079  3.182343  3.375947  4.232983
   O (  8)  1.458675  2.338471  2.056749  2.381818  3.345185  2.658691
   O (  9)  2.271106  2.840788  2.429981  3.545351  4.432480  3.899408
             H (  7)   O (  8)
   O (  8)  2.723481
   O (  9)  2.776909  1.304138
 
 Requested basis set is 6-311++G(2df,2p)
 There are 66 shells and 234 basis functions
 A cutoff of  1.0D-12 yielded   2093 shell pairs
 There are     26529 function pairs (     33774 Cartesian)
 Smallest overlap matrix eigenvalue = 8.45E-05
 Guess MOs from SCF MO coefficient file

 -----------------------------------------------------------------------
  General SCF calculation program by
  Eric Jon Sundstrom, Paul Horn, Yuezhi Mao, Dmitri Zuev, Alec White,
  David Stuck, Shaama M.S., Shane Yost, Joonho Lee, David Small,
  Daniel Levine, Susi Lehtola, Hugh Burton, Evgeny Epifanovsky,
  Bang C. Huynh
 -----------------------------------------------------------------------
 Exchange:     0.1500 Hartree-Fock + 1.0000 wB97M-V + LR-HF
 Correlation:  1.0000 wB97M-V
 Using SG-2 standard quadrature grid
 Nonlocal Correlation:  VV10 with C = 0.0100 and b = 6.00 and scale = 1.00000
 Grid used for NLC:  SG-1 standard quadrature
 
 Citation of the SMD model:
 Marenich, A.V.; Cramer, C.J.; Truhlar, D.G.
 J. Phys. Chem. B 2009, 113, 6378-6396.
 iSolventCode=           1
 Solvent: water                                                           
 
 vradii
            1           2           3           4           5           6
    1   1.8500000   1.5200000   1.2000000   1.8500000   1.2000000   1.5200000
            7           8           9
    1   1.2000000   1.5200000   1.5200000
 -------------------------------------------------------
 OpenMP BLAS3 based DFT computing Module                
 Release: version 1.0, May 2013, Q-Chem Inc. Pittsburgh 
 -------------------------------------------------------
 A unrestricted SCF calculation will be
 performed using Roothaan-Hall, DIIS, GDM
 SCF converges when RMS gradient is below 1.0e-07
 ---------------------------------------
  Cycle       Energy         DIIS error
 ---------------------------------------
    1    -378.7647606861      3.41e-04  Roothaan Step
 ---------------------------------------
  Cycle       Energy         DIIS error
 ---------------------------------------
    1    -378.7871794840      4.35e-04  
    2    -378.7898170634      4.95e-04  Done DIIS. Switching to GDM
 ---------------------------------------
  Cycle       Energy        RMS Gradient
 ---------------------------------------
    1    -378.7898170634      2.67e-02   Normal BFGS step
    2    -378.7873081642      4.10e-02  Line search: overstep
    3    -378.7941614509      3.83e-03   Normal BFGS step
    4    -378.7943099049      9.75e-04   Normal BFGS step
    5    -378.7943315251      5.22e-04   Normal BFGS step
    6    -378.7943361051      1.19e-04   Normal BFGS step
    7    -378.7943364527      3.26e-04   Normal BFGS step
    8    -378.7943366358      5.61e-05   Normal BFGS step
    9    -378.7943366746      4.52e-05   Normal BFGS step
   10    -378.7943366909      2.41e-05   Normal BFGS step
   11    -378.7943366973      2.30e-05   Normal BFGS step
   12    -378.7943366988      1.99e-05   Normal BFGS step
   13    -378.7943367006      1.15e-05   Normal BFGS step
   14    -378.7943367017      8.50e-06   Normal BFGS step
   15    -378.7943367023      3.20e-06   Normal BFGS step
   16    -378.7943367024      8.13e-07   Normal BFGS step
   17    -378.7943367024      2.65e-07   Normal BFGS step
   18    -378.7943367024      1.31e-07   Normal BFGS step
   19    -378.7943367024      4.40e-08  Convergence criterion met
 ---------------------------------------
 SCF time:   CPU 506.06s  wall 96.00s 
<S^2> =          0.753810777
(3)  G-ENP(liq) elect-nuc-pol free energy of system     -378.794336702 a.u.
(4)  G-CDS(liq) cavity-dispersion-solvent structure 
     free energy                                                3.2756 kcal/mol
(6)  G-S(liq) free energy of system                     -378.789116674 a.u.
 SCF   energy in the final basis set =     -378.7891166745
 Total energy in the final basis set =     -378.7891166745
 
 --------------------------------------------------------------
 
                    Orbital Energies (a.u.)
 --------------------------------------------------------------
 
 Alpha MOs
 -- Occupied --
-19.4691 -19.4273 -19.3713 -19.3646 -10.4717 -10.4572  -1.3552  -1.2160
 -1.1988  -1.0199  -0.8505  -0.7292  -0.6884  -0.6630  -0.6467  -0.6042
 -0.5882  -0.5667  -0.5248  -0.4944  -0.4614  -0.4171  -0.4097  -0.3857
 -- Virtual --
  0.0219   0.0360   0.0482   0.0563   0.0771   0.0998   0.1102   0.1153
  0.1306   0.1412   0.1587   0.1675   0.1753   0.2060   0.2202   0.2315
  0.2380   0.2570   0.2661   0.2732   0.2783   0.2913   0.2993   0.3077
  0.3141   0.3306   0.3435   0.3471   0.3519   0.3692   0.3850   0.4015
  0.4254   0.4471   0.4561   0.4883   0.5754   0.5844   0.6024   0.6215
  0.6560   0.6582   0.6718   0.7002   0.7148   0.7689   0.8071   0.8290
  0.8476   0.9142   0.9605   0.9780   0.9964   1.0461   1.0695   1.0802
  1.0961   1.1095   1.1180   1.1331   1.1554   1.1588   1.1761   1.1771
  1.1974   1.2016   1.2333   1.2646   1.3163   1.3350   1.3533   1.3881
  1.4083   1.4650   1.4769   1.4895   1.5323   1.5503   1.5856   1.5891
  1.6139   1.6664   1.6945   1.7307   1.7811   1.8056   1.8581   1.8831
  1.9252   2.0447   2.0951   2.1265   2.1651   2.2049   2.2753   2.3154
  2.3402   2.3805   2.4000   2.4638   2.5604   2.6201   2.6753   2.7009
  2.7768   2.8176   2.8680   2.9759   2.9908   3.0613   3.1097   3.1419
  3.1982   3.2548   3.2789   3.3321   3.3611   3.4112   3.4147   3.4699
  3.5189   3.5646   3.5951   3.6102   3.7199   3.7551   3.7921   3.8015
  3.8500   3.8651   3.9556   3.9827   4.0866   4.1324   4.1791   4.2170
  4.2385   4.3415   4.4007   4.4973   4.5630   4.6164   4.6840   4.7068
  4.8314   4.8833   4.9955   5.0367   5.0740   5.0769   5.1042   5.1450
  5.1583   5.1605   5.1800   5.1970   5.2104   5.2401   5.2757   5.2934
  5.3221   5.3251   5.3828   5.4323   5.5003   5.5218   5.5440   5.5773
  5.6025   5.6730   5.7169   5.7894   5.8833   6.0380   6.1175   6.3684
  6.3985   6.4616   6.5814   6.6398   6.7536   6.8226   6.8744   6.9276
  6.9390   6.9809   7.0508   7.0927   7.1100   7.1779   7.2145   7.2772
  7.3077   7.3227   7.3570   7.4121   7.4782   7.5264   7.6425   7.7320
  7.7673   7.8309   8.0060   8.0804  24.7091  24.9429  50.4045  50.4939
 50.5832  50.6951
 
 Beta MOs
 -- Occupied --
-19.4593 -19.4079 -19.3710 -19.3645 -10.4721 -10.4572  -1.3298  -1.2150
 -1.1974  -0.9875  -0.8420  -0.7236  -0.6808  -0.6501  -0.6355  -0.5858
 -0.5607  -0.5424  -0.5239  -0.4811  -0.4559  -0.4053  -0.3795
 -- Virtual --
 -0.0388   0.0228   0.0360   0.0485   0.0569   0.0776   0.1004   0.1111
  0.1157   0.1319   0.1425   0.1613   0.1678   0.1797   0.2077   0.2215
  0.2336   0.2405   0.2653   0.2733   0.2740   0.2794   0.2933   0.2999
  0.3096   0.3173   0.3317   0.3449   0.3494   0.3535   0.3708   0.3866
  0.4036   0.4263   0.4479   0.4569   0.4893   0.5758   0.5847   0.6027
  0.6223   0.6562   0.6586   0.6724   0.7003   0.7151   0.7715   0.8075
  0.8295   0.8488   0.9145   0.9623   0.9797   0.9984   1.0570   1.0714
  1.0858   1.1036   1.1118   1.1218   1.1427   1.1609   1.1638   1.1820
  1.1899   1.2032   1.2105   1.2379   1.2674   1.3192   1.3364   1.3554
  1.3957   1.4109   1.4756   1.4829   1.4927   1.5365   1.5611   1.5961
  1.6047   1.6256   1.6741   1.7029   1.7403   1.7959   1.8064   1.8652
  1.8892   1.9280   2.0479   2.1000   2.1314   2.1707   2.2179   2.2831
  2.3297   2.3448   2.3874   2.4017   2.4651   2.5607   2.6228   2.6843
  2.7031   2.7772   2.8180   2.8683   2.9760   2.9909   3.0621   3.1095
  3.1420   3.1985   3.2553   3.2801   3.3338   3.3620   3.4115   3.4150
  3.4703   3.5193   3.5646   3.5953   3.6101   3.7206   3.7554   3.7936
  3.8018   3.8506   3.8658   3.9558   3.9834   4.0873   4.1330   4.1795
  4.2172   4.2394   4.3418   4.4044   4.4990   4.5917   4.6254   4.6851
  4.7248   4.8553   4.8945   5.0140   5.1034   5.1172   5.1239   5.1383
  5.1592   5.1721   5.1758   5.1936   5.2278   5.2366   5.2489   5.2902
  5.2968   5.3311   5.3422   5.3942   5.4448   5.5025   5.5296   5.5476
  5.5793   5.6137   5.6834   5.7285   5.8003   5.8848   6.0418   6.1234
  6.3750   6.4054   6.5078   6.5928   6.6464   6.7681   6.8984   6.9325
  6.9568   6.9734   6.9986   7.0588   7.1140   7.1300   7.2033   7.2327
  7.2791   7.3168   7.3257   7.3977   7.4342   7.4869   7.5409   7.6453
  7.7331   7.7733   7.8398   8.0173   8.1012  24.7089  24.9428  50.4175
 50.5025  50.5841  50.6951
 --------------------------------------------------------------
 
          Ground-State Mulliken Net Atomic Charges

     Atom                 Charge (a.u.)    Spin (a.u.)
  --------------------------------------------------------
      1 C                    -0.045437      -0.005076
      2 O                    -0.392167       0.003782
      3 H                     0.261971       0.005564
      4 C                     0.157549       0.001026
      5 H                     0.191360      -0.000491
      6 O                    -0.351864       0.001998
      7 H                     0.361404       0.001022
      8 O                     0.035448       0.294281
      9 O                    -0.218264       0.697894
  --------------------------------------------------------
  Sum of atomic charges =    -0.000000
  Sum of spin   charges =     1.000000

 -----------------------------------------------------------------
                    Cartesian Multipole Moments
 -----------------------------------------------------------------
    Charge (ESU x 10^10)
                -0.0000
    Dipole Moment (Debye)
         X      -0.0230      Y      -4.8714      Z      -2.4147
       Tot       5.4371
    Quadrupole Moments (Debye-Ang)
        XX     -38.2160     XY      -0.2578     YY     -36.9610
        XZ      -0.5318     YZ       1.4105     ZZ     -33.3447
    Octopole Moments (Debye-Ang^2)
       XXX      -5.2046    XXY     -26.1498    XYY      -4.9520
       YYY     -22.2724    XXZ      -4.3588    XYZ      -5.2808
       YYZ      -7.2742    XZZ       1.2895    YZZ      -4.7258
       ZZZ     -11.0572
    Hexadecapole Moments (Debye-Ang^3)
      XXXX    -408.9160   XXXY      -2.1276   XXYY     -98.4707
      XYYY      10.9848   YYYY    -207.3600   XXXZ     -41.3085
      XXYZ       0.5877   XYYZ      -9.6611   YYYZ      12.3761
      XXZZ     -76.1712   XYZZ      -1.3665   YYZZ     -46.3010
      XZZZ     -32.0513   YZZZ      10.0384   ZZZZ     -61.0039
 -----------------------------------------------------------------
 Calculating analytic gradient of the SCF energy
 Gradient of CDS energy
            1           2           3           4           5           6
    1  -0.0025705   0.0022568  -0.0001993   0.0017999  -0.0001449  -0.0006530
    2  -0.0043495   0.0043781   0.0000932   0.0014501  -0.0001933  -0.0010705
    3   0.0021519  -0.0023408  -0.0001252   0.0005201   0.0000252  -0.0001572
            7           8           9
    1  -0.0002981  -0.0002096   0.0000185
    2  -0.0003747  -0.0000533   0.0001199
    3  -0.0000457  -0.0000525   0.0000243
 Gradient of SCF Energy
            1           2           3           4           5           6
    1  -0.0024396   0.0130983   0.0000766  -0.0050159   0.0052976   0.0018169
    2  -0.0001288   0.0063067  -0.0038802   0.0063017  -0.0102855   0.0065281
    3   0.0176695   0.0141084  -0.0168048  -0.0055700   0.0015516   0.0020852
            7           8           9
    1  -0.0130390   0.0018712  -0.0016661
    2  -0.0076333  -0.0000837   0.0028750
    3  -0.0127962  -0.0001875  -0.0000562
 Max gradient component =       1.767E-02
 RMS gradient           =       7.970E-03
 Computing fast CPCM-SWIG gradient
 Updating gradient with PCM contributions...
 -- total gradient after adding PCM contribution --
---------------------------------------------------
  Atom         X              Y              Z     
---------------------------------------------------
   1      -0.000075      -0.000703      -0.000046
   2       0.000092       0.000236      -0.000057
   3       0.000007       0.000081       0.000048
[...]
     3    2.004513001244840e-03   3.638741341957963e-04   4.156858668285575e-04
     4   -4.555528690916652e-02  -6.939776312945523e-02  -7.320043219542983e-02
     5    1.168909809985716e-03   2.510511024906431e-03   2.071729086148354e-02
     6    5.860102440608931e-02   8.405678114475176e-02   3.761842137822798e-02
     7   -5.332083416799791e-04  -3.811147352400644e-04   1.317080172033518e-03
     8   -9.643869528984677e-04   2.472118348415149e-05  -1.528736420788023e-04
     9    1.789255109841041e-04   3.716776098743189e-04   6.538766434485717e-06


     7 Order 1, Length 27
    Atom      X          Y          Z
     1   -1.578346916139745e-02  -8.772152760456831e-03  -9.968126306465989e-03
     2   -2.900619785514026e-01  -1.367331134601100e-01  -2.001051090674932e-01
     3    1.197553068716678e-03   2.894747355231828e-03  -1.035889980904729e-03
     4   -6.422540013314511e-04  -4.176302912358515e-03   1.806060484129076e-03
     5    4.931470510807051e-04   2.348890420280275e-04  -9.006073938713904e-06
     6   -6.801045126202744e-04   2.341819119618654e-04  -5.332083416799791e-04
     7    3.054998538839394e-01   1.437216734238012e-01   2.095664482758172e-01
     8   -5.644453545935604e-04   2.736175411224570e-03   4.840959920951876e-04
     9    5.417894481805914e-04  -1.399951085088131e-04  -2.049755319749692e-04

Order 1, Length 27
    Atom      X          Y          Z
     1   -3.168449352013834e-02  -2.102507195714607e-02  -1.618149601057343e-02
     2   -1.126633569965090e-01  -7.111176453077817e-02  -5.990502847146037e-02
     3    1.846333970196971e-03   1.142177562361438e-03   1.860013051939622e-04
     4    4.029271735079612e-04  -9.071805127799960e-04   2.630770820394878e-03
     5   -1.225976186015902e-04   3.666844637950680e-05  -4.255795518120332e-04
     6   -4.717723371290752e-04   2.637121925913533e-05  -3.811147352400644e-04
     7    1.437216734238012e-01   9.207028797236300e-02   7.411624226514690e-02
     8   -1.492140203264335e-03  -7.446185812978825e-04  -5.760032345635119e-04
     9    4.634810647421101e-04   5.131995571069159e-04   5.363270446676421e-04

Order 1, Length 27
    Atom      X          Y          Z
     1    2.407376207808088e-02   1.137201096933051e-02   9.678833147863206e-03
     2   -2.361659753168575e-01  -9.204211098125914e-02  -1.952589512303423e-01
     3    1.104199628872258e-03  -6.083525021309225e-05   1.137741174524630e-03
     4   -5.120935347733616e-04   4.161317399024554e-03  -1.994955337885138e-03
     5    9.133726188464920e-05  -1.266392346204102e-04   5.987071505354965e-05
     6    2.561781384763993e-03   1.428196040724446e-03   1.317080172033518e-03
     7    2.095664482758172e-01   7.411624226514690e-02   1.852912522145239e-01
     8   -6.249972233042295e-04   1.173495877869457e-03   6.268616705547219e-05
     9   -9.442850299697729e-05  -2.160859814101964e-05  -2.932863776428037e-04


     8 Order 1, Length 27
    Atom      X          Y          Z
     1   -6.327587903045644e-02   1.081992937030677e-02   1.838017307943079e-02
     2    1.018414114833443e-02   2.508523433280332e-03  -8.198733140864211e-03
     3   -5.770692371501246e-03   1.157560467477704e-02  -2.213573394944336e-04
     4   -2.696252297372862e-02   3.084461702347690e-02   8.041298742128186e-03
     5   -3.009624161520014e-03  -1.116732864813022e-03  -2.392900828631945e-03
     6   -4.931515027664484e-04   1.991802316618232e-03  -9.643869528984677e-04
     7   -5.644453545935604e-04  -1.492140203264335e-03  -6.249972233042295e-04
     8    4.394040239382416e-01  -6.207753473677037e-02   1.811245561640908e-01
     9   -3.495121162385074e-01   6.945993719952577e-03  -1.951429517094787e-01

Order 1, Length 27
    Atom      X          Y          Z
     1    1.768938391281383e-03  -9.899090144706622e-02  -7.028563797490436e-02
     2    1.580352955914174e-03  -7.032215807259268e-02   1.250253617038540e-02
     3    1.587297970951740e-02  -1.915853033905728e-02  -8.240266173558917e-03
     4    9.119957361366806e-03   2.801449120417094e-03  -1.640619768246197e-04
     5   -1.755273454432739e-03   2.476453817127889e-04  -1.396448085868157e-03
     6   -2.699896767433482e-03  -1.659767637064605e-03   2.472118348415149e-05
     7    2.736175411224570e-03  -7.446185812978825e-04   1.173495877869457e-03
     8   -6.207753473677037e-02   2.307909777365936e-01   7.692855698596814e-02
     9    3.545402998832606e-02  -4.296364694182396e-02  -1.054221493983251e-02

Order 1, Length 27
    Atom      X          Y          Z
     1   -1.180536916178496e-03  -4.498000935943403e-02  -8.406916914012298e-02
     2   -1.020097636740122e-02   9.971548301820059e-03   1.085268806708411e-02
     3    1.967747533092733e-02  -3.123865913962572e-02  -7.358377927537640e-03
     4   -1.031451200668073e-02   1.367426042562965e-02   3.007756411731614e-03
     5   -2.847741095529365e-03  -8.757453460687811e-05  -1.208663139417724e-03
     6    1.258932099649850e-03  -3.187507022119405e-04  -1.528736420788023e-04
     7    4.840959920951876e-04  -5.760032345635119e-04   6.268616705547219e-05
     8    1.811245561640908e-01   7.692855698596814e-02   1.986547220325586e-01
     9   -1.780005868889417e-01  -2.337402684825610e-02  -1.197903730724401e-01


     9 Order 1, Length 27
    Atom      X          Y          Z
     1   -5.435948435894425e-02   1.718130877872612e-02  -1.719674207246509e-02
     2    3.776211973186534e-03  -5.215094506610144e-03   1.396759607171574e-03
     3    3.873317219733494e-03  -4.805955789924449e-03  -4.745675877186278e-04
     4    4.938753440795940e-04   1.019404240951020e-02   1.679565423902404e-03
     5   -2.168074233496821e-03  -4.454868229324721e-04  -1.172341551865468e-03
     6    3.859802281350072e-04  -1.934516172792987e-03   1.789255109841041e-04
     7    5.417894481805914e-04   4.634810647421101e-04  -9.442850299697729e-05
     8   -3.495121162385074e-01   3.545402998832606e-02  -1.780005868889417e-01
     9    3.969686872597035e-01  -5.089179726177018e-02   1.936834406463801e-01

Order 1, Length 27
    Atom      X          Y          Z
     1    4.153184038140928e-02   4.087462452093909e-04   2.461400915572368e-02
     2    9.720034272877178e-04   2.353527159864038e-03  -1.056213430297796e-03
     3   -8.849040592133344e-04   2.332013052709593e-03   2.449460760464376e-03
     4    8.157266898232545e-04  -8.993050138857480e-03  -1.781390431256173e-03
     5    1.898664477759878e-03   2.793589747777362e-04   7.695355812087205e-04
     6   -2.474979609287382e-04   2.462669602727152e-03   3.716776098743189e-04
     7   -1.399951085088131e-04   5.131995571069159e-04  -2.160859814101964e-05
     8    6.945993719952577e-03  -4.296364694182396e-02  -2.337402684825610e-02
     9   -5.089179726177018e-02   4.360710690671060e-02  -1.971514246051412e-03

Order 1, Length 27
    Atom      X          Y          Z
     1   -3.866276070049597e-03   1.473896492899560e-02   4.121202786198258e-03
     2    1.734716826604080e-03  -1.092286018967088e-03   1.239055388017721e-03
     3    1.882936629451295e-03  -6.113779286698610e-04   1.813255069043160e-03
     4    1.715525376097761e-03  -1.039150496652621e-03   1.281057166858056e-03
     5    2.488000247691385e-04   1.385947709321711e-05  -2.347179961505199e-04
     6   -5.145340723055711e-05  -3.231450568657198e-05   6.538766434485717e-06
     7   -2.049755319749692e-04   5.363270446676421e-04  -2.932863776428037e-04
     8   -1.951429517094787e-01  -1.054221493983251e-02  -1.197903730724401e-01
     9    1.936834406463801e-01  -1.971514246051412e-03   1.118578500806309e-01




 # Finishing finite difference calculation for IDERIV #
 ######################################################
 ######################################################
 Requested basis set is 6-311++G(2df,2p)
 There are 66 shells and 234 basis functions
 **********************************************************************
 **                                                                  **
 **                       VIBRATIONAL ANALYSIS                       **
 **                       --------------------                       **
 **                                                                  **
 **        VIBRATIONAL FREQUENCIES (CM**-1) AND NORMAL MODES         **
 **     FORCE CONSTANTS (mDYN/ANGSTROM) AND REDUCED MASSES (AMU)     **
 **                  INFRARED INTENSITIES (KM/MOL)                   **
 **                                                                  **
 **********************************************************************
 

 Mode:                 1                      2                      3
 Frequency:        70.85                  77.03                 223.70
 Force Cnst:      0.0127                 0.0185                 0.2915
 Red. Mass:       4.2832                 5.2915                 9.8855
 IR Active:          YES                    YES                    YES
 IR Intens:       21.076                  3.164                 18.592
 Raman Active:       YES                    YES                    YES
               X      Y      Z        X      Y      Z        X      Y      Z
 C          0.000  0.004 -0.084   -0.074 -0.045  0.039   -0.047  0.253  0.073
 O          0.009  0.107  0.114    0.112 -0.100  0.137    0.116  0.118  0.005
 H         -0.099 -0.151 -0.074   -0.271 -0.030  0.039   -0.082  0.343  0.065
 C          0.052 -0.034 -0.231    0.014  0.005 -0.227    0.043  0.005 -0.059
 H          0.197 -0.075 -0.798    0.206  0.011 -0.698   -0.214 -0.200 -0.333
 O         -0.056 -0.049  0.265   -0.118  0.030  0.057    0.447 -0.214  0.067
 H         -0.030  0.046  0.204    0.028 -0.135  0.270   -0.013  0.218  0.119
 O          0.082  0.072 -0.189   -0.094 -0.117  0.194   -0.348  0.054  0.143
 O         -0.079 -0.096  0.089    0.147  0.227 -0.221   -0.192 -0.175 -0.216
 TransDip   0.018 -0.018 -0.145   -0.026 -0.025 -0.044   -0.088  0.107  0.006

 Mode:                 4                      5                      6
 Frequency:       320.67                 330.12                 486.04
 Force Cnst:      0.2801                 0.0748                 0.6407
 Red. Mass:       4.6235                 1.1642                 4.6032
 IR Active:          YES                    YES                    YES
 IR Intens:       14.511                196.834                  5.983
 Raman Active:       YES                    YES                    YES
               X      Y      Z        X      Y      Z        X      Y      Z
 C         -0.044 -0.037 -0.121    0.010  0.008 -0.046    0.015 -0.142  0.113
 O          0.271 -0.100  0.065    0.076 -0.011 -0.022   -0.158 -0.186 -0.024
 H         -0.078 -0.143 -0.110   -0.028  0.050 -0.050    0.200 -0.241  0.110
 C         -0.101 -0.006  0.084   -0.021 -0.017  0.020    0.176  0.112  0.018
 H         -0.330 -0.056  0.455   -0.053 -0.007  0.146    0.365  0.139 -0.332
 O          0.049 -0.083  0.041   -0.036 -0.009  0.002    0.198  0.118  0.042
 H          0.380 -0.476  0.144   -0.585  0.604  0.501   -0.481  0.359  0.079
 O         -0.050  0.018 -0.168    0.005 -0.005  0.003   -0.055 -0.079 -0.130
 O         -0.159  0.240  0.059    0.006 -0.008  0.000   -0.133  0.154  0.023
 TransDip  -0.053 -0.110 -0.001   -0.263  0.274  0.240   -0.001  0.066  0.043

 Mode:                 7                      8                      9
 Frequency:       531.70                 642.94                 810.85
 Force Cnst:      1.2709                 1.4488                 1.0778
 Red. Mass:       7.6299                 5.9488                 2.7823
 IR Active:          YES                    YES                    YES
 IR Intens:       14.058                134.773                 41.927
 Raman Active:       YES                    YES                    YES
               X      Y      Z        X      Y      Z        X      Y      Z
 C         -0.061  0.069  0.374    0.279 -0.070  0.052   -0.028 -0.134 -0.156
 O          0.121 -0.307 -0.083    0.048  0.167 -0.013   -0.055 -0.069  0.022
 H          0.044  0.206  0.360    0.432  0.047  0.041   -0.593  0.009 -0.145
 C         -0.046 -0.084  0.014    0.277 -0.277  0.084    0.169 -0.028 -0.062
 H          0.156 -0.091 -0.548    0.571 -0.142 -0.026    0.105  0.085  0.645
 O         -0.105 -0.051 -0.067   -0.203 -0.049 -0.076    0.024  0.044  0.047
 H         -0.034  0.039 -0.083    0.156  0.149 -0.145   -0.057 -0.203  0.100
 O          0.057  0.421 -0.076   -0.166  0.032  0.021   -0.040  0.194  0.087
 O         -0.003 -0.060 -0.048   -0.169  0.108 -0.026    0.000 -0.041 -0.030
 TransDip  -0.061  0.040  0.096    0.319 -0.187  0.040    0.124 -0.163  0.034

 Mode:                10                     11                     12
 Frequency:      1024.79                1049.09                1131.08
 Force Cnst:      2.2270                 1.3735                 3.3905
 Red. Mass:       3.5991                 2.1182                 4.4980
 IR Active:          YES                    YES                    YES
 IR Intens:      118.503                 17.494                191.258
 Raman Active:       YES                    YES                    YES
               X      Y      Z        X      Y      Z        X      Y      Z
 C         -0.114  0.306  0.104   -0.172  0.050 -0.087    0.190  0.263 -0.261
 O         -0.016 -0.065  0.022    0.012  0.025 -0.029   -0.124 -0.226  0.176
 H         -0.445  0.233  0.118   -0.220  0.214 -0.098    0.709  0.210 -0.269
 C          0.210 -0.094 -0.093    0.079 -0.055  0.213   -0.014 -0.008  0.049
 H         -0.051 -0.074  0.679    0.478  0.006 -0.519   -0.083 -0.105 -0.261
 O         -0.058  0.011  0.020    0.010  0.022 -0.037   -0.021 -0.005 -0.024
 H          0.050  0.110 -0.170   -0.083 -0.400  0.364   -0.070 -0.103  0.008
 O          0.063 -0.141 -0.086    0.022 -0.020 -0.015    0.002  0.043  0.053
 O         -0.034  0.018 -0.004    0.015 -0.012  0.002   -0.024 -0.003 -0.013
 TransDip   0.005  0.348  0.015   -0.027 -0.081  0.103    0.146  0.347 -0.233

 Mode:                13                     14                     15
 Frequency:      1230.79                1269.09                1336.13
 Force Cnst:      1.0389                12.5321                 1.2778
 Red. Mass:       1.1640                13.2065                 1.2149
 IR Active:          YES                    YES                    YES
 IR Intens:      105.970                 41.548                  2.296
 Raman Active:       YES                    YES                    YES
               X      Y      Z        X      Y      Z        X      Y      Z
 C         -0.038 -0.016  0.047   -0.044 -0.049 -0.001    0.073 -0.069  0.019
 O         -0.015  0.021 -0.036    0.018  0.040 -0.035   -0.013 -0.003  0.031
 H          0.600  0.270  0.015    0.097 -0.408  0.027   -0.279  0.945 -0.046
 C          0.024 -0.002 -0.081   -0.042  0.020  0.007   -0.046  0.021 -0.001
 H         -0.075  0.008  0.238    0.009  0.044 -0.034    0.033  0.064 -0.036
 O         -0.001  0.005  0.016    0.010  0.006  0.001    0.007 -0.009  0.000
 H         -0.156 -0.492  0.473   -0.004 -0.040  0.051    0.023  0.026 -0.043
 O          0.001  0.001 -0.001    0.569 -0.023  0.321    0.027 -0.025 -0.026
 O          0.002 -0.000  0.001   -0.539  0.024 -0.294   -0.028  0.009 -0.010
 TransDip  -0.123 -0.250  0.176   -0.185 -0.020 -0.088    0.043 -0.022  0.008

 Mode:                16                     17                     18
 Frequency:      1385.45                1456.31                1810.69
 Force Cnst:      1.3289                 2.1016                20.3804
 Red. Mass:       1.1751                 1.6818                10.5505
 IR Active:          YES                    YES                    YES
 IR Intens:       42.720                  7.816                300.504
 Raman Active:       YES                    YES                    YES
               X      Y      Z        X      Y      Z        X      Y      Z
 C         -0.056  0.015 -0.018    0.187  0.086  0.050   -0.053 -0.045 -0.013
 O          0.013 -0.006  0.022   -0.040 -0.003 -0.054   -0.006 -0.002  0.000
 H          0.238  0.020 -0.024   -0.535 -0.302  0.099    0.065  0.044 -0.013
 C         -0.060  0.016 -0.032   -0.069  0.038 -0.009    0.369  0.616  0.103
 H          0.723  0.533  0.259    0.250  0.253  0.043   -0.420  0.116 -0.155
 O          0.007 -0.064  0.006   -0.005 -0.049 -0.003   -0.221 -0.441 -0.061
 H          0.061  0.166 -0.154   -0.166 -0.471  0.420   -0.009  0.034 -0.020
 O         -0.002  0.003  0.002   -0.007 -0.016 -0.010    0.008  0.008  0.006
 O          0.005 -0.002  0.002   -0.009  0.008  0.000    0.005 -0.005 -0.001
 TransDip  -0.065  0.181 -0.082   -0.007  0.053  0.072    0.333  0.430  0.111

 Mode:                19                     20                     21
 Frequency:      3033.96                3098.92                3813.90
 Force Cnst:      5.9090                 6.1340                 9.1410
 Red. Mass:       1.0895                 1.0841                 1.0666
 IR Active:          YES                    YES                    YES
 IR Intens:       50.778                 15.352                192.512
 Raman Active:       YES                    YES                    YES
               X      Y      Z        X      Y      Z        X      Y      Z
 C         -0.003 -0.001  0.001   -0.002 -0.006 -0.083   -0.000 -0.000 -0.001
 O          0.001  0.001 -0.000    0.000  0.000  0.000   -0.048 -0.022 -0.034
 H          0.005 -0.001 -0.018    0.024  0.071  0.993    0.003  0.004  0.002
 C          0.043 -0.073  0.016    0.000 -0.002  0.000    0.000  0.000 -0.000
 H         -0.490  0.847 -0.187   -0.008  0.013 -0.008    0.001 -0.000  0.000
 O         -0.000  0.001 -0.000    0.000  0.001 -0.000    0.000  0.000  0.000
 H          0.002  0.002 -0.001   -0.004  0.003 -0.003    0.757  0.343  0.552
 O         -0.000  0.000  0.000   -0.000 -0.000 -0.000   -0.000  0.000  0.000
 O          0.000 -0.000  0.000    0.000  0.000  0.000    0.000 -0.000 -0.000
 TransDip   0.081 -0.211  0.032    0.115  0.041 -0.028    0.330  0.241  0.175

 STANDARD THERMODYNAMIC QUANTITIES AT   298.15 K  AND     1.00 ATM

   This Molecule has  0 Imaginary Frequencies
   Zero point vibrational energy:       35.931 kcal/mol

   Atom    1 Element C  Has Mass   12.00000
   Atom    2 Element O  Has Mass   15.99491
   Atom    3 Element H  Has Mass    1.00783
   Atom    4 Element C  Has Mass   12.00000
   Atom    5 Element H  Has Mass    1.00783
   Atom    6 Element O  Has Mass   15.99491
   Atom    7 Element H  Has Mass    1.00783
   Atom    8 Element O  Has Mass   15.99491
   Atom    9 Element O  Has Mass   15.99491
   Molecular Mass:    91.003130 amu
   Principal axes and moments of inertia in amu*Bohr^2:
                             1           2           3
    Eigenvalues --      302.18119   604.87511   864.45036
          X               0.98106     0.04495    -0.18840
          Y              -0.02082     0.99154     0.12815
          Z               0.19256    -0.12180     0.97370
   Rotational Symmetry Number is   1
   The Molecule is an Asymmetric Top
   Translational Enthalpy:        0.889 kcal/mol
   Rotational Enthalpy:           0.889 kcal/mol
   Vibrational Enthalpy:         38.229 kcal/mol
   gas constant (RT):             0.592 kcal/mol
   Translational Entropy:        39.437  cal/mol.K
   Rotational Entropy:           26.560  cal/mol.K
   Vibrational Entropy:          14.791  cal/mol.K

   Total Enthalpy:               40.599 kcal/mol
   Total Entropy:                80.788  cal/mol.K
 Total job time:  4811.03s(wall), 30370.09s(cpu) 
 Fri Jan 20 18:32:21 2023

        *************************************************************
        *                                                           *
        *  Thank you very much for using Q-Chem.  Have a nice day.  *
        *                                                           *
        *************************************************************


