
Running Job 1 of 1 Q_in.in
qchem Q_in.in_457473.0 /scratch/ari.fischer/qChem1348705.hpc-mn1/qchem457473/ 0
/usr/local/qchem-5.4.1/exe/qcprog.exe_s Q_in.in_457473.0 /scratch/ari.fischer/qChem1348705.hpc-mn1/qchem457473/
                  Welcome to Q-Chem
     A Quantum Leap Into The Future Of Chemistry


 Q-Chem 5.4, Q-Chem, Inc., Pleasanton, CA (2021)

 License issued to: Nanyang Technological University (site)

 E. Epifanovsky,  A. T. B. Gilbert,  Xintian Feng,  Joonho Lee,  Yuezhi Mao,  
 N. Mardirossian,  P. Pokhilko,  A. White,  M. Wormit,  M. P. Coons,  
 A. L. Dempwolff,  Zhengting Gan,  D. Hait,  P. R. Horn,  L. D. Jacobson,  
 I. Kaliman,  J. Kussmann,  A. W. Lange,  Ka Un Lao,  D. S. Levine,  Jie Liu,  
 S. C. McKenzie,  A. F. Morrison,  K. Nanda,  F. Plasser,  D. R. Rehn,  
 M. L. Vidal,  Zhi-Qiang You,  Ying Zhu,  B. Alam,  B. Albrecht,  
 A. Aldossary,  E. Alguire,  J. H. Andersen,  D. Barton,  K. Begam,  A. Behn,  
 Y. A. Bernard,  E. J. Berquist,  H. Burton,  A. Carreras,  K. Carter-Fenk,  
 R. Chakraborty,  A. D. Chien,  K. D. Closser,  V. Cofer-Shabica,  
 S. Dasgupta,  Jia Deng,  M. de Wergifosse,  M. Diedenhofen,  Hainam Do,  
 S. Ehlert,  Po-Tung Fang,  S. Fatehi,  Qingguo Feng,  T. Friedhoff,  
 J. Gayvert,  Qinghui Ge,  G. Gidofalvi,  M. Goldey,  J. Gomes,  
 C. Gonzalez-Espinoza,  S. Gulania,  A. Gunina,  M. W. D. Hanson-Heine,  
 P. H. P. Harbach,  A. W. Hauser,  M. F. Herbst,  M. Hernandez Vera,  
 M. Hodecker,  Z. C. Holden,  S. Houck,  Xunkun Huang,  Kerwin Hui,  
 B. C. Huynh,  M. Ivanov,  Hyunjun Ji,  Hanjie Jiang,  B. Kaduk,  S. Kaehler,  
 K. Khistyaev,  Jaehoon Kim,  P. Klunzinger,  Z. Koczor-Benda,  
 Joong Hoon Koh,  D. Kosenkov,  L. Koulias,  T. Kowalczyk,  C. M. Krauter,  
 K. Kue,  A. Kunitsa,  T. Kus,  A. Landau,  K. V. Lawler,  D. Lefrancois,  
 S. Lehtola,  Rain Li,  Yi-Pei Li,  Jiashu Liang,  M. Liebenthal,  
 Hung-Hsuan Lin,  You-Sheng Lin,  Fenglai Liu,  Kuan-Yu Liu,  
 M. Loipersberger,  A. Luenser,  A. Manjanath,  P. Manohar,  E. Mansoor,  
 S. F. Manzer,  Shan-Ping Mao,  A. V. Marenich,  T. Markovich,  S. Mason,  
 S. A. Maurer,  P. F. McLaughlin,  M. F. S. J. Menger,  J.-M. Mewes,  
 S. A. Mewes,  P. Morgante,  J. W. Mullinax,  K. J. Oosterbaan,  G. Paran,  
 Alexander C. Paul,  Suranjan K. Paul,  F. Pavosevic,  Zheng Pei,  S. Prager,  
 E. I. Proynov,  E. Ramos,  B. Rana,  A. E. Rask,  A. Rettig,  R. M. Richard,  
 F. Rob,  E. Rossomme,  T. Scheele,  M. Scheurer,  M. Schneider,  
 N. Sergueev,  S. M. Sharada,  W. Skomorowski,  D. W. Small,  C. J. Stein,  
 Yu-Chuan Su,  E. J. Sundstrom,  Zhen Tao,  J. Thirman,  T. Tsuchimochi,  
 N. M. Tubman,  S. P. Veccham,  O. Vydrov,  J. Wenzel,  J. Witte,  A. Yamada,  
 Kun Yao,  S. Yeganeh,  S. R. Yost,  A. Zech,  Igor Ying Zhang,  Xing Zhang,  
 Yu Zhang,  D. Zuev,  A. Aspuru-Guzik,  A. T. Bell,  N. A. Besley,  
 K. B. Bravaya,  B. R. Brooks,  D. Casanova,  Jeng-Da Chai,  S. Coriani,  
 C. J. Cramer,  A. E. DePrince, III,  R. A. DiStasio Jr.,  A. Dreuw,  
 B. D. Dunietz,  T. R. Furlani,  W. A. Goddard III,  S. Grimme,  
 S. Hammes-Schiffer,  T. Head-Gordon,  W. J. Hehre,  Chao-Ping Hsu,  
 T.-C. Jagau,  Yousung Jung,  A. Klamt,  Jing Kong,  D. S. Lambrecht,  
 WanZhen Liang,  N. J. Mayhall,  C. W. McCurdy,  J. B. Neaton,  
 C. Ochsenfeld,  J. A. Parkhill,  R. Peverati,  V. A. Rassolov,  Yihan Shao,  
 L. V. Slipchenko,  T. Stauch,  R. P. Steele,  J. E. Subotnik,  
 A. J. W. Thom,  A. Tkatchenko,  D. G. Truhlar,  T. Van Voorhis,  
 T. A. Wesolowski,  K. B. Whaley,  H. L. Woodcock III,  P. M. Zimmerman,  
 S. Faraji,  P. M. W. Gill,  M. Head-Gordon,  J. M. Herbert,  A. I. Krylov

 Additional authors for Version 5.4.1: 
 S. Kotaru,  Shaozhi Li,  Xiangyuan Li,  F. Matz,  A. Molle,  Haisheng Ren,  
 Yingli Su,  Hung-Yi Tsai,  C. Utku,  Fang Wang

 Contributors to earlier versions of Q-Chem not listed above: 
 R. D. Adamson,  B. Austin,  R. Baer,  J. Baker,  G. J. O. Beran,  
 K. Brandhorst,  S. T. Brown,  E. F. C. Byrd,  A. K. Chakraborty,  
 G. K. L. Chan,  Chun-Min Chang,  Yunqing Chen,  C.-L. Cheng,  
 Siu Hung Chien,  D. M. Chipman,  D. L. Crittenden,  H. Dachsel,  
 R. J. Doerksen,  A. D. Dutoi,  R. G. Edgar,  J. Fosso-Tande,  
 L. Fusti-Molnar,  D. Ghosh,  A. Ghysels,  A. Golubeva-Zadorozhnaya,  
 J. Gonthier,  M. S. Gordon,  S. R. Gwaltney,  G. Hawkins,  J. E. Herr,  
 A. Heyden,  S. Hirata,  E. G. Hohenstein,  G. Kedziora,  F. J. Keil,  
 C. Kelley,  Jihan Kim,  R. A. King,  R. Z. Khaliullin,  P. P. Korambath,  
 W. Kurlancheek,  A. Laurent,  A. M. Lee,  M. S. Lee,  S. V. Levchenko,  
 Ching Yeh Lin,  D. Liotard,  E. Livshits,  R. C. Lochan,  I. Lotan,  
 L. A. Martinez-Martinez,  P. E. Maslen,  N. Nair,  D. P. O'Neill,  
 D. Neuhauser,  E. Neuscamman,  C. M. Oana,  R. Olivares-Amaya,  R. Olson,  
 T. M. Perrine,  B. Peters,  P. A. Pieniazek,  A. Prociuk,  Y. M. Rhee,  
 J. Ritchie,  M. A. Rohrdanz,  E. Rosta,  N. J. Russ,  H. F. Schaefer III,  
 M. W. Schmidt,  N. E. Schultz,  S. Sharma,  N. Shenvi,  C. D. Sherrill,  
 A. C. Simmonett,  A. Sodt,  T. Stein,  D. Stuck,  K. S. Thanthiriwatte,  
 V. Vanovschi,  L. Vogt,  Tao Wang,  A. Warshel,  M. A. Watson,  
 C. F. Williams,  Q. Wu,  X. Xu,  Jun Yang,  W. Zhang,  Yan Zhao

 Please cite Q-Chem as follows:
 Y. Shao et al., Mol. Phys. 113, 184-215 (2015)
 DOI: 10.1080/00268976.2014.952696

 Q-Chem 5.4.1 for Intel X86 EM64T Linux

 Parts of Q-Chem use Armadillo 9.800.1 (Horizon Scraper).
 http://arma.sourceforge.net/

 Q-Chem begins on Fri Dec  9 16:46:55 2022  

 Host: 
0

     Scratch files written to /scratch/ari.fischer/qChem1348705.hpc-mn1/qchem457473//
 Aug1521 |scratch|qcdevops|jenkins|workspace|build_RNUM 8249   
 Processing $rem in /usr/local/qchem-5.4.1/config/preferences:
 Processing $rem in /home/ari.fischer/.qchemrc:
 Symmetry turned off for PCM/SM12/SMD calculation

 Checking the input file for inconsistencies... 	...done.

--------------------------------------------------------------
User input:
--------------------------------------------------------------
$molecule
0 2
C        -0.0009846490   -0.2511130240   -0.2963964302
O        -0.5261616525   -1.4549414200    0.0879488149
H         0.0198233184   -0.0872380441   -1.3749375884
C         1.3868676933   -0.1121508494    0.3177631488
H         1.5183328297   -0.6381079036    1.2784292080
O         2.2550135237    0.5175812822   -0.2107078023
H        -1.4040694052   -1.5474866237   -0.2991789468
O        -0.7786462651    0.8610635731    0.2642115877
O        -2.0274201641    0.7295181541   -0.0873742200
$end

$rem
BASIS = 6-311++G(2df,2p)
GUI = 2
JOB_TYPE = Optimization
METHOD = wB97M-V
SCF_ALGORITHM = DIIS_GDM
MAX_SCF_CYCLES = 400
GEOM_OPT_MAX_CYCLES = 150
SCF_CONVERGENCE = 7
THRESH = 12
UNRESTRICTED = 1
SOLVENT_METHOD = smd
$end
--------------------------------------------------------------
 ----------------------------------------------------------------
             Standard Nuclear Orientation (Angstroms)
    I     Atom           X                Y                Z
 ----------------------------------------------------------------
    1      C      -0.0009846490    -0.2511130240    -0.2963964302
    2      O      -0.5261616525    -1.4549414200     0.0879488149
    3      H       0.0198233184    -0.0872380441    -1.3749375884
    4      C       1.3868676933    -0.1121508494     0.3177631488
    5      H       1.5183328297    -0.6381079036     1.2784292080
    6      O       2.2550135237     0.5175812822    -0.2107078023
    7      H      -1.4040694052    -1.5474866237    -0.2991789468
    8      O      -0.7786462651     0.8610635731     0.2642115877
    9      O      -2.0274201641     0.7295181541    -0.0873742200
 ----------------------------------------------------------------
 Nuclear Repulsion Energy =         236.54596411 hartrees
 There are       24 alpha and       23 beta electrons
 Requested basis set is 6-311++G(2df,2p)
 There are 66 shells and 234 basis functions

 Total QAlloc Memory Limit 288000 MB
 Mega-Array Size       188 MB
 MEM_STATIC part       192 MB
 
 Citation of the SMD model:
 Marenich, A.V.; Cramer, C.J.; Truhlar, D.G.
 J. Phys. Chem. B 2009, 113, 6378-6396.
 iSolventCode=           1
 Solvent: water                                                           
 
 vradii
            1           2           3           4           5           6
    1   1.8500000   1.5200000   1.2000000   1.8500000   1.2000000   1.5200000
            7           8           9
    1   1.2000000   1.5200000   1.5200000
 Changing PCM_VDW_RADII to SMD_RADIUS
 Discretize the solute cavity surface with Lebedev spheres
	Using 110 Lebedev grid points for each H atom
	Using 194 Lebedev grid points for other atoms
	Atomic van der Waals radii will be scaled by 1.20
 Remove points where switching function is < 1.0e-08
 Keep 825 surface tesserae and discard 669 interior tesserae
 Molecular Surface Area = 101.074 Angst**2
 A cutoff of  1.0D-12 yielded   2092 shell pairs
 There are     26327 function pairs (     33451 Cartesian)
 Smallest overlap matrix eigenvalue = 9.33E-05

 Scale SEOQF with 1.000000e-01/1.000000e-01/1.000000e-01

 Standard Electronic Orientation quadrupole field applied
 Nucleus-field energy     =     0.0000000051 hartrees
 Guess from superposition of atomic densities
 Warning:  Energy on first SCF cycle will be non-variational
 SAD guess density has 47.000000 electrons

 -----------------------------------------------------------------------
  General SCF calculation program by
  Eric Jon Sundstrom, Paul Horn, Yuezhi Mao, Dmitri Zuev, Alec White,
  David Stuck, Shaama M.S., Shane Yost, Joonho Lee, David Small,
  Daniel Levine, Susi Lehtola, Hugh Burton, Evgeny Epifanovsky,
  Bang C. Huynh
 -----------------------------------------------------------------------
 Exchange:     0.1500 Hartree-Fock + 1.0000 wB97M-V + LR-HF
 Correlation:  1.0000 wB97M-V
 Using SG-2 standard quadrature grid
 Nonlocal Correlation:  VV10 with C = 0.0100 and b = 6.00 and scale = 1.00000
 Grid used for NLC:  SG-1 standard quadrature
 
 Citation of the SMD model:
 Marenich, A.V.; Cramer, C.J.; Truhlar, D.G.
 J. Phys. Chem. B 2009, 113, 6378-6396.
 iSolventCode=           1
 Solvent: water                                                           
 
 vradii
            1           2           3           4           5           6
    1   1.8500000   1.5200000   1.2000000   1.8500000   1.2000000   1.5200000
            7           8           9
    1   1.2000000   1.5200000   1.5200000
 using 4 threads for integral computing
 -------------------------------------------------------
 OpenMP Integral computing Module                
 Release: version 1.0, May 2013, Q-Chem Inc. Pittsburgh 
 -------------------------------------------------------
 -------------------------------------------------------
 OpenMP BLAS3 based DFT computing Module                
 Release: version 1.0, May 2013, Q-Chem Inc. Pittsburgh 
 -------------------------------------------------------
 A unrestricted SCF calculation will be
 performed using DIIS, GDM
 SCF converges when RMS gradient is below 1.0e-07
 ---------------------------------------
  Cycle       Energy         DIIS error
 ---------------------------------------
    1    -379.7491393737      1.62e-02  
    2    -378.6511701098      2.51e-03  Done DIIS. Switching to GDM
 ---------------------------------------
  Cycle       Energy        RMS Gradient
 ---------------------------------------
    1    -378.6511701098      1.55e-01   Descent step
    2    -378.7765030430      1.71e-02   Normal BFGS step
    3    -378.7888046162      3.03e-02   Normal BFGS step
    4    -378.7907070117      4.81e-03   Normal BFGS step
    5    -378.7914666538      6.84e-03   Normal BFGS step
    6    -378.7916237666      3.62e-03   Normal BFGS step
    7    -378.7916876543      1.87e-03   Normal BFGS step
    8    -378.7917044324      5.93e-04   Normal BFGS step
    9    -378.7917067346      3.52e-04   Normal BFGS step
   10    -378.7917071766      1.64e-04   Normal BFGS step
   11    -378.7917072439      1.00e-04   Normal BFGS step
   12    -378.7917072810      9.73e-05   Normal BFGS step
   13    -378.7917073164      6.72e-05   Normal BFGS step
   14    -378.7917073414      3.09e-05   Normal BFGS step
   15    -378.7917073497      1.27e-05   Normal BFGS step
   16    -378.7917073514      5.42e-06   Normal BFGS step
   17    -378.7917073516      1.91e-06   Normal BFGS step
   18    -378.7917073517      5.61e-07   Normal BFGS step
   19    -378.7917073517      3.10e-07   Normal BFGS step
   20    -378.7917073517      1.72e-07   Normal BFGS step
   21    -378.7917073517      1.00e-07   Normal BFGS step
   22    -378.7917073516      3.81e-08  Convergence criterion met
 ---------------------------------------
 SCF time:   CPU 389.92s  wall 99.00s 
<S^2> =          0.753892582
(3)  G-ENP(liq) elect-nuc-pol free energy of system     -378.791707352 a.u.
(4)  G-CDS(liq) cavity-dispersion-solvent structure 
     free energy                                                3.2696 kcal/mol
(6)  G-S(liq) free energy of system                     -378.786496867 a.u.
 SCF   energy in the final basis set =     -378.7864968669
 Total energy in the final basis set =     -378.7864968669
 
 --------------------------------------------------------------
 
                    Orbital Energies (a.u.)
 --------------------------------------------------------------
 
 Alpha MOs
 -- Occupied --
-19.4719 -19.4294 -19.3712 -19.3674 -10.4703 -10.4568  -1.3580  -1.2210
 -1.2023  -1.0217  -0.8454  -0.7346  -0.6838  -0.6702  -0.6404  -0.6153
 -0.5762  -0.5735  -0.5289  -0.5062  -0.4561  -0.4165  -0.4081  -0.3895
 -- Virtual --
  0.0219   0.0348   0.0453   0.0541   0.0844   0.0922   0.1118   0.1143
  0.1347   0.1469   0.1509   0.1681   0.1816   0.2041   0.2164   0.2356
  0.2386   0.2522   0.2596   0.2776   0.2888   0.2935   0.2982   0.3187
  0.3206   0.3264   0.3315   0.3417   0.3561   0.3610   0.3840   0.3992
  0.4053   0.4274   0.4580   0.5003   0.5617   0.5785   0.6112   0.6384
  0.6553   0.6687   0.6830   0.7028   0.7234   0.7680   0.8002   0.8398
  0.8491   0.8657   0.9863   0.9904   1.0228   1.0453   1.0546   1.0882
  1.0948   1.1101   1.1332   1.1345   1.1550   1.1623   1.1659   1.1820
  1.1921   1.2020   1.2350   1.2516   1.2920   1.3382   1.3573   1.3719
  1.3973   1.4442   1.4666   1.5118   1.5353   1.5528   1.5737   1.6064
  1.6420   1.6583   1.7109   1.7397   1.7738   1.8169   1.8460   1.8665
  1.9616   2.0375   2.0715   2.1329   2.1816   2.2267   2.2762   2.2874
  2.3131   2.3933   2.4193   2.5054   2.5472   2.5969   2.6534   2.7594
  2.8112   2.8369   2.8700   2.9525   3.0066   3.0352   3.1071   3.1224
  3.1770   3.2380   3.2486   3.3329   3.3735   3.4142   3.4368   3.5079
  3.5344   3.5879   3.6352   3.6397   3.6652   3.7353   3.7715   3.7988
  3.8243   3.8432   3.9364   4.0135   4.0518   4.1489   4.1966   4.2098
  4.2788   4.3303   4.4155   4.5085   4.5669   4.6183   4.6756   4.7002
  4.8125   4.8594   4.9748   5.0445   5.0738   5.0749   5.1110   5.1460
  5.1543   5.1585   5.1683   5.1980   5.2086   5.2209   5.2618   5.3020
  5.3115   5.3279   5.4047   5.4417   5.5141   5.5607   5.5656   5.5749
  5.6178   5.6446   5.7372   5.8130   5.8724   6.0517   6.1017   6.3326
  6.4001   6.4654   6.5698   6.6589   6.7730   6.8379   6.8592   6.9311
  6.9381   6.9934   7.0604   7.0950   7.1421   7.1752   7.2194   7.2729
  7.3068   7.3100   7.3981   7.4141   7.4445   7.5104   7.6485   7.7206
  7.7845   7.8273   7.9967   8.0795  24.7252  24.9509  50.4018  50.4885
 50.5886  50.7061
 
 Beta MOs
 -- Occupied --
-19.4619 -19.4102 -19.3711 -19.3675 -10.4706 -10.4568  -1.3327  -1.2205
 -1.2008  -0.9894  -0.8360  -0.7296  -0.6782  -0.6545  -0.6307  -0.5858
 -0.5670  -0.5467  -0.5275  -0.4874  -0.4502  -0.4015  -0.3849
 -- Virtual --
 -0.0408   0.0235   0.0351   0.0455   0.0543   0.0851   0.0927   0.1125
  0.1148   0.1362   0.1485   0.1516   0.1684   0.1845   0.2058   0.2198
  0.2374   0.2413   0.2572   0.2632   0.2845   0.2931   0.2941   0.2991
  0.3199   0.3230   0.3280   0.3328   0.3424   0.3581   0.3622   0.3856
  0.4000   0.4065   0.4285   0.4591   0.5010   0.5621   0.5790   0.6114
  0.6386   0.6560   0.6691   0.6833   0.7046   0.7233   0.7689   0.8019
  0.8400   0.8502   0.8662   0.9906   0.9917   1.0236   1.0475   1.0587
  1.0915   1.1051   1.1154   1.1376   1.1430   1.1601   1.1720   1.1772
  1.1838   1.2012   1.2083   1.2372   1.2593   1.2947   1.3430   1.3599
  1.3771   1.3994   1.4482   1.4768   1.5139   1.5375   1.5662   1.5860
  1.6158   1.6578   1.6653   1.7266   1.7471   1.7783   1.8218   1.8501
  1.8773   1.9646   2.0412   2.0731   2.1442   2.1866   2.2328   2.2893
  2.2962   2.3217   2.3956   2.4238   2.5078   2.5481   2.5979   2.6615
  2.7624   2.8123   2.8377   2.8702   2.9531   3.0070   3.0356   3.1073
  3.1230   3.1774   3.2386   3.2492   3.3345   3.3738   3.4149   3.4373
  3.5081   3.5350   3.5880   3.6355   3.6401   3.6650   3.7365   3.7724
  3.7994   3.8245   3.8434   3.9367   4.0140   4.0525   4.1497   4.1970
  4.2107   4.2797   4.3325   4.4189   4.5117   4.5931   4.6258   4.6793
  4.7171   4.8375   4.8700   4.9920   5.1109   5.1162   5.1206   5.1412
  5.1566   5.1651   5.1791   5.1957   5.2066   5.2253   5.2479   5.2793
  5.3136   5.3208   5.3433   5.4136   5.4535   5.5209   5.5645   5.5763
  5.5823   5.6204   5.6536   5.7477   5.8225   5.8741   6.0555   6.1070
  6.3440   6.4056   6.5078   6.5815   6.6634   6.7873   6.9119   6.9240
  6.9447   6.9684   7.0196   7.0800   7.1210   7.1485   7.2009   7.2456
  7.2780   7.3111   7.3147   7.4303   7.4345   7.4697   7.5121   7.6506
  7.7245   7.7904   7.8334   8.0077   8.1009  24.7250  24.9508  50.4148
 50.4974  50.5891  50.7061
 --------------------------------------------------------------
 
          Ground-State Mulliken Net Atomic Charges

     Atom                 Charge (a.u.)    Spin (a.u.)
  --------------------------------------------------------
      1 C                    -0.098901      -0.006687
      2 O                    -0.369199       0.000712
      3 H                     0.279881       0.008616
      4 C                     0.128085       0.007170
      5 H                     0.207916      -0.000901
      6 O                    -0.337910      -0.002034
      7 H                     0.354850      -0.000506
      8 O                     0.027454       0.303334
      9 O                    -0.192176       0.690295
  --------------------------------------------------------
  Sum of atomic charges =     0.000000
  Sum of spin   charges =     1.000000

 -----------------------------------------------------------------
                    Cartesian Multipole Moments
 -----------------------------------------------------------------
    Charge (ESU x 10^10)
                 0.0000
    Dipole Moment (Debye)
         X      -1.0372      Y      -2.5280      Z      -0.5413
       Tot       2.7856
    Quadrupole Moments (Debye-Ang)
        XX     -41.9133     XY       1.0141     YY     -36.6120
        XZ       3.9280     YZ       1.1719     ZZ     -31.6916
    Octopole Moments (Debye-Ang^2)
       XXX     -21.4773    XXY     -18.1447    XYY      -4.6608
       YYY      -0.8102    XXZ       3.2467    XYZ      -1.1588
       YYZ      -2.4804    XZZ      -0.3926    YZZ      -1.1993
       ZZZ      -1.1960
    Hexadecapole Moments (Debye-Ang^3)
      XXXX    -509.2147   XXXY       4.7969   XXYY     -98.0889
      XYYY      13.0306   YYYY    -170.9011   XXXZ       7.9368
      XXYZ       2.7096   XYYZ       4.2138   YYYZ       4.7671
      XXZZ     -80.7528   XYZZ      -0.6666   YYZZ     -36.9998
      XZZZ       1.8937   YZZZ       1.7036   ZZZZ     -50.3467
 -----------------------------------------------------------------
 Calculating analytic gradient of the SCF energy
 Gradient of CDS energy
            1           2           3           4           5           6
    1  -0.0023333   0.0019475  -0.0000591   0.0021423  -0.0001734  -0.0009342
    2  -0.0047615   0.0046667   0.0002369   0.0009561  -0.0001700  -0.0006529
    3   0.0009880  -0.0012128  -0.0000851  -0.0001459   0.0000531   0.0004796
            7           8           9
    1  -0.0003160  -0.0003002   0.0000263
    2  -0.0003413  -0.0000808   0.0001468
    3  -0.0000444  -0.0000882   0.0000558
 Gradient of SCF Energy
            1           2           3           4           5           6
    1  -0.0068988   0.0128258   0.0005911   0.0068017  -0.0001315  -0.0020645
    2  -0.0029175   0.0013978   0.0009710   0.0087279  -0.0055225  -0.0017253
    3   0.0206569   0.0027589  -0.0141914  -0.0150045   0.0099264   0.0023912
            7           8           9
    1  -0.0118049   0.0024162  -0.0017350
    2  -0.0008842  -0.0002982   0.0002509
    3  -0.0046010  -0.0014043  -0.0005321
 Max gradient component =       2.066E-02
 RMS gradient           =       7.507E-03
 Computing fast CPCM-SWIG gradient
 Updating gradient with PCM contributions...
 -- total gradient after adding PCM contribution --
---------------------------------------------------
  Atom         X              Y              Z     
---------------------------------------------------
   1      -0.005363      -0.001754       0.004598
   2      -0.000034       0.002054      -0.004170
   3       0.000985       0.000612      -0.000791
   4       0.009678       0.007409      -0.007311
   5      -0.000942      -0.001018       0.001592
   6      -0.007890      -0.006207       0.004853
   7       0.001726       0.001967       0.002854
   8       0.002610      -0.000859      -0.000672
   9      -0.000772      -0.002205      -0.000953
---------------------------------------------------
 Number of fixed atoms: 0
 Gradient time:  CPU 51.05 s  wall 13.88 s
 Geometry Optimization Parameters
   NAtoms,    NIC,     NZ,  NCons,   NDum,   NFix, NCnnct, MaxDiis
        9      49       0       0       0       0       0       0


** GEOMETRY OPTIMIZATION IN DELOCALIZED INTERNAL COORDINATES **
   Searching for a Minimum

   Optimization Cycle:   1

                       Coordinates (Angstroms)
     ATOM                X               Y               Z
      1  C        -0.0009846490   -0.2511130240   -0.2963964302
      2  O        -0.5261616525   -1.4549414200    0.0879488149
      3  H         0.0198233184   -0.0872380441   -1.3749375884
      4  C         1.3868676933   -0.1121508494    0.3177631488
      5  H         1.5183328297   -0.6381079036    1.2784292080
      6  O         2.2550135237    0.5175812822   -0.2107078023
      7  H        -1.4040694052   -1.5474866237   -0.2991789468
      8  O        -0.7786462651    0.8610635731    0.2642115877
      9  O        -2.0274201641    0.7295181541   -0.0873742200
   Point Group: c1    Number of degrees of freedom:    21


   Energy is   -378.786496867


 Attempting to generate delocalized internal coordinates
 Initial Hessian constructed with Jon Baker's OPTIMIZE code

 21 Hessian modes will be used to form the next step
  Hessian Eigenvalues:
     0.006001    0.006002    0.006607    0.019815    0.069206    0.081803
     0.091119    0.160000    0.160000    0.183290    0.203890    0.220000
     0.250000    0.299827    0.333434    0.346837    0.359415    0.512700
     0.546373    0.661010    1.070520

 Minimum search - taking simple RFO step
 Searching for Lamda that Minimizes Along All modes
 Value Taken    Lamda =  -0.00083196
 Step Taken.  Stepsize is  0.170917

                             Maximum     Tolerance    Cnvgd?
         Gradient           0.007034      0.000300      NO
         Displacement       0.086641      0.001200      NO
         Energy change     *********      0.000001      NO


 New Cartesian Coordinates Obtained by Inverse Iteration

 Displacement from previous Coordinates is:  0.203500
 ----------------------------------------------------------------
             Standard Nuclear Orientation (Angstroms)
    I     Atom           X                Y                Z
 ----------------------------------------------------------------
    1      C      -0.0074247351    -0.2603519022    -0.2905941001
    2      O      -0.5292199769    -1.4673965079     0.1048985770
    3      H       0.0059164506    -0.1051851808    -1.3691681117
    4      C       1.3815356095    -0.1159538097     0.3178455126
    5      H       1.5328091285    -0.6473270600     1.2693475848
    6      O       2.2364042194     0.5455747251    -0.2058996145
    7      H      -1.3865759920    -1.5982984835    -0.3221380703
    8      O      -0.7722471318     0.8656115097     0.2752062209
    9      O      -2.0184423431     0.8004518541    -0.0997402270
 ----------------------------------------------------------------
 Nuclear Repulsion Energy =         235.79235757 hartrees
 There are       24 alpha and       23 beta electrons
 Discretize the solute cavity surface with Lebedev spheres
	Using 110 Lebedev grid points for each H atom
	Using 194 Lebedev grid points for other atoms
	Atomic van der Waals radii will be scaled by 1.20
 Remove points where switching function is < 1.0e-08
 Keep 833 surface tesserae and discard 661 interior tesserae
 Molecular Surface Area = 101.648 Angst**2
 Applying Cartesian multipole field
    Component          Value
    ---------          -----
     (2,0,0)        1.00000E-11
     (0,2,0)        2.00000E-11
     (0,0,2)       -3.00000E-11
 Nucleus-field energy     =     0.0000000052 hartrees
 Requested basis set is 6-311++G(2df,2p)
 There are 66 shells and 234 basis functions
 A cutoff of  1.0D-12 yielded   2093 shell pairs
 There are     26362 function pairs (     33511 Cartesian)
 Smallest overlap matrix eigenvalue = 9.35E-05
 Guess MOs from SCF MO coefficient file

 -----------------------------------------------------------------------
  General SCF calculation program by
  Eric Jon Sundstrom, Paul Horn, Yuezhi Mao, Dmitri Zuev, Alec White,
  David Stuck, Shaama M.S., Shane Yost, Joonho Lee, David Small,
  Daniel Levine, Susi Lehtola, Hugh Burton, Evgeny Epifanovsky,
  Bang C. Huynh
 -----------------------------------------------------------------------
 Exchange:     0.1500 Hartree-Fock + 1.0000 wB97M-V + LR-HF
 Correlation:  1.0000 wB97M-V
 Using SG-2 standard quadrature grid
 Nonlocal Correlation:  VV10 with C = 0.0100 and b = 6.00 and scale = 1.00000
 Grid used for NLC:  SG-1 standard quadrature
 
 Citation of the SMD model:
 Marenich, A.V.; Cramer, C.J.; Truhlar, D.G.
 J. Phys. Chem. B 2009, 113, 6378-6396.
 iSolventCode=           1
 Solvent: water                                                           
 
 vradii
            1           2           3           4           5           6
    1   1.8500000   1.5200000   1.2000000   1.8500000   1.2000000   1.5200000
            7           8           9
    1   1.2000000   1.5200000   1.5200000
 -------------------------------------------------------
 OpenMP BLAS3 based DFT computing Module                
 Release: version 1.0, May 2013, Q-Chem Inc. Pittsburgh 
 -------------------------------------------------------
 A unrestricted SCF calculation will be
 performed using Roothaan-Hall, DIIS, GDM
 SCF converges when RMS gradient is below 1.0e-07
 ---------------------------------------
  Cycle       Energy         DIIS error
 ---------------------------------------
    1    -378.7662830122      3.80e-04  Roothaan Step
 ---------------------------------------
  Cycle       Energy         DIIS error
 ---------------------------------------
    1    -378.7875571502      3.54e-04  
    2    -378.7890365516      4.16e-04  Done DIIS. Switching to GDM
 ---------------------------------------
  Cycle       Energy        RMS Gradient
 ---------------------------------------
    1    -378.7890365516      3.14e-02   Normal BFGS step
    2    -378.7870621045      4.65e-02  Line search: overstep
    3    -378.7921100606      2.95e-03   Normal BFGS step
    4    -378.7922194210      1.22e-03   Normal BFGS step
    5    -378.7922386988      1.46e-03   Normal BFGS step
    6    -378.7922483919      6.31e-04   Normal BFGS step
    7    -378.7922500805      5.51e-04   Normal BFGS step
    8    -378.7922514436      4.84e-04   Normal BFGS step
    9    -378.7922529079      2.89e-04   Normal BFGS step
   10    -378.7922533833      2.29e-04   Normal BFGS step
   11    -378.7922537695      1.35e-04   Normal BFGS step
   12    -378.7922538646      3.16e-05   Normal BFGS step
   13    -378.7922538757      1.39e-05   Normal BFGS step
   14    -378.7922538775      6.12e-06   Normal BFGS step
   15    -378.7922538779      3.48e-06   Normal BFGS step
   16    -378.7922538780      1.45e-06   Normal BFGS step
   17    -378.7922538780      3.50e-07   Normal BFGS step
   18    -378.7922538780      1.29e-07   Normal BFGS step
   19    -378.7922538780      6.29e-08  Convergence criterion met
 ---------------------------------------
 SCF time:   CPU 368.30s  wall 93.00s 
<S^2> =          0.753895107
(3)  G-ENP(liq) elect-nuc-pol free energy of system     -378.792253878 a.u.
(4)  G-CDS(liq) cavity-dispersion-solvent structure 
     free energy                                                3.2455 kcal/mol
(6)  G-S(liq) free energy of system                     -378.787081899 a.u.
 SCF   energy in the final basis set =     -378.7870818989
 Total energy in the final basis set =     -378.7870818989
 
 --------------------------------------------------------------
 
                    Orbital Energies (a.u.)
 --------------------------------------------------------------
 
 Alpha MOs
 -- Occupied --
-19.4710 -19.4288 -19.3724 -19.3674 -10.4714 -10.4576  -1.3560  -1.2183
 -1.2007  -1.0206  -0.8458  -0.7342  -0.6828  -0.6691  -0.6396  -0.6146
 -0.5765  -0.5728  -0.5272  -0.5047  -0.4575  -0.4151  -0.4079  -0.3898
 -- Virtual --
  0.0206   0.0344   0.0452   0.0541   0.0840   0.0922   0.1118   0.1142
  0.1344   0.1477   0.1510   0.1673   0.1806   0.2031   0.2153   0.2362
  0.2382   0.2519   0.2601   0.2772   0.2876   0.2926   0.2964   0.3173
  0.3216   0.3269   0.3304   0.3430   0.3551   0.3634   0.3824   0.4002
  0.4041   0.4256   0.4597   0.4987   0.5613   0.5771   0.6114   0.6341
  0.6553   0.6718   0.6814   0.7016   0.7235   0.7644   0.7973   0.8394
  0.8516   0.8697   0.9812   0.9909   1.0227   1.0454   1.0595   1.0881
  1.0935   1.1091   1.1350   1.1365   1.1498   1.1628   1.1631   1.1828
  1.1895   1.2045   1.2390   1.2573   1.2907   1.3418   1.3619   1.3632
  1.3979   1.4433   1.4656   1.5110   1.5347   1.5492   1.5643   1.6081
  1.6351   1.6479   1.7162   1.7426   1.7803   1.8058   1.8436   1.8582
  1.9596   2.0371   2.0618   2.1268   2.1803   2.2216   2.2752   2.2927
  2.3202   2.3870   2.3978   2.5033   2.5459   2.5920   2.6523   2.7583
  2.7953   2.8307   2.8658   2.9616   3.0071   3.0361   3.1051   3.1195
  3.1801   3.2377   3.2497   3.3296   3.3747   3.4143   3.4335   3.5083
  3.5246   3.5847   3.6288   3.6429   3.6585   3.7304   3.7726   3.7962
  3.8258   3.8434   3.9346   4.0125   4.0415   4.1517   4.1969   4.2115
  4.2643   4.3251   4.4217   4.5013   4.5688   4.6259   4.6788   4.7001
  4.8148   4.8644   4.9816   5.0413   5.0716   5.0736   5.1131   5.1441
  5.1544   5.1595   5.1691   5.1975   5.2067   5.2208   5.2647   5.2958
  5.3048   5.3244   5.3964   5.4389   5.5053   5.5440   5.5652   5.5689
  5.6028   5.6384   5.7188   5.8005   5.8619   6.0577   6.0910   6.3203
  6.3830   6.4679   6.5760   6.6378   6.7542   6.8285   6.8601   6.9307
  6.9374   6.9895   7.0552   7.0897   7.1295   7.1645   7.2116   7.2640
  7.2967   7.3079   7.3892   7.4068   7.4464   7.5076   7.6461   7.7198
  7.7817   7.8270   7.9957   8.0791  24.7088  24.9451  50.4012  50.4857
 50.5836  50.6972
 
 Beta MOs
 -- Occupied --
-19.4610 -19.4096 -19.3723 -19.3675 -10.4718 -10.4576  -1.3305  -1.2178
 -1.1993  -0.9885  -0.8363  -0.7297  -0.6770  -0.6532  -0.6306  -0.5846
 -0.5654  -0.5469  -0.5257  -0.4866  -0.4520  -0.4016  -0.3840
 -- Virtual --
 -0.0398   0.0221   0.0347   0.0454   0.0543   0.0848   0.0927   0.1125
  0.1148   0.1359   0.1493   0.1517   0.1677   0.1835   0.2049   0.2184
  0.2377   0.2413   0.2568   0.2639   0.2843   0.2908   0.2938   0.2976
  0.3186   0.3243   0.3283   0.3318   0.3437   0.3569   0.3646   0.3840
  0.4009   0.4053   0.4266   0.4610   0.4994   0.5617   0.5775   0.6116
  0.6343   0.6560   0.6722   0.6819   0.7031   0.7234   0.7654   0.7989
  0.8396   0.8526   0.8702   0.9860   0.9915   1.0236   1.0481   1.0633
  1.0891   1.1066   1.1146   1.1401   1.1449   1.1553   1.1681   1.1769
  1.1857   1.2003   1.2102   1.2407   1.2633   1.2933   1.3474   1.3643
  1.3678   1.4008   1.4478   1.4745   1.5132   1.5379   1.5612   1.5777
  1.6182   1.6487   1.6565   1.7337   1.7495   1.7832   1.8113   1.8485
  1.8683   1.9629   2.0408   2.0631   2.1374   2.1865   2.2278   2.2911
  2.2970   2.3301   2.3896   2.4020   2.5056   2.5465   2.5929   2.6604
  2.7614   2.7963   2.8314   2.8661   2.9622   3.0076   3.0364   3.1052
  3.1200   3.1805   3.2382   3.2502   3.3312   3.3750   3.4149   3.4340
  3.5086   3.5250   3.5849   3.6290   3.6433   3.6582   3.7316   3.7735
  3.7966   3.8259   3.8436   3.9348   4.0130   4.0421   4.1524   4.1971
  4.2124   4.2650   4.3272   4.4253   4.5046   4.5964   4.6318   4.6832
  4.7166   4.8399   4.8750   4.9987   5.1132   5.1167   5.1200   5.1360
  5.1567   5.1659   5.1766   5.1943   5.2082   5.2254   5.2451   5.2827
  5.3068   5.3117   5.3413   5.4078   5.4492   5.5123   5.5479   5.5665
  5.5838   5.6053   5.6478   5.7304   5.8092   5.8641   6.0613   6.0967
  6.3315   6.3869   6.5122   6.5879   6.6422   6.7681   6.9026   6.9251
  6.9462   6.9688   7.0130   7.0732   7.1154   7.1385   7.1906   7.2353
  7.2695   7.3048   7.3101   7.4199   7.4291   7.4707   7.5102   7.6481
  7.7232   7.7873   7.8338   8.0068   8.1006  24.7086  24.9450  50.4142
 50.4946  50.5842  50.6972
 --------------------------------------------------------------
 
          Ground-State Mulliken Net Atomic Charges

     Atom                 Charge (a.u.)    Spin (a.u.)
  --------------------------------------------------------
      1 C                    -0.091363      -0.006168
      2 O                    -0.372756       0.000918
      3 H                     0.281653       0.007791
      4 C                     0.126832       0.006209
      5 H                     0.210167      -0.000918
      6 O                    -0.342512      -0.002014
      7 H                     0.358077      -0.000110
      8 O                     0.027856       0.302673
      9 O                    -0.197954       0.691618
  --------------------------------------------------------
  Sum of atomic charges =    -0.000000
  Sum of spin   charges =     1.000000

 -----------------------------------------------------------------
                    Cartesian Multipole Moments
 -----------------------------------------------------------------
    Charge (ESU x 10^10)
                -0.0000
    Dipole Moment (Debye)
         X      -1.0030      Y      -2.8186      Z      -0.6427
       Tot       3.0600
    Quadrupole Moments (Debye-Ang)
        XX     -41.8865     XY       1.0877     YY     -36.5424
        XZ       3.9904     YZ       1.3836     ZZ     -31.6760
    Octopole Moments (Debye-Ang^2)
       XXX     -20.5691    XXY     -19.1836    XYY      -4.9165
       YYY      -2.9951    XXZ       3.0878    XYZ      -1.4471
       YYZ      -3.0346    XZZ      -0.2262    YZZ      -1.7684
       ZZZ      -1.6415
    Hexadecapole Moments (Debye-Ang^3)
      XXXX    -503.3357   XXXY       5.6201   XXYY     -98.9575
      XYYY      15.4780   YYYY    -176.6033   XXXZ       7.1558
      XXYZ       3.0838   XYYZ       4.6286   YYYZ       5.9471
      XXZZ     -79.9480   XYZZ      -0.2082   YYZZ     -38.0038
      XZZZ       1.5179   YZZZ       2.2993   ZZZZ     -50.3354
 -----------------------------------------------------------------
 Calculating analytic gradient of the SCF energy
 Gradient of CDS energy
            1           2           3           4           5           6
    1  -0.0023524   0.0019688  -0.0000578   0.0021796  -0.0001737  -0.0009866
    2  -0.0048619   0.0047891   0.0002366   0.0010069  -0.0001709  -0.0007086
    3   0.0010651  -0.0012910  -0.0000839  -0.0001671   0.0000510   0.0005032
            7           8           9
    1  -0.0003118  -0.0002886   0.0000226
    2  -0.0003590  -0.0000725   0.0001405
    3  -0.0000429  -0.0000905   0.0000561
 Gradient of SCF Energy
            1           2           3           4           5           6
    1  -0.0032828   0.0156226   0.0006404   0.0006182   0.0003356   0.0037531
    2  -0.0007819  -0.0011860   0.0002333   0.0020849  -0.0043768   0.0033282
    3   0.0185649   0.0061185  -0.0141595  -0.0105886   0.0092786  -0.0009330
            7           8           9
    1  -0.0150957   0.0001539  -0.0027453
    2  -0.0026376   0.0004162   0.0029197
    3  -0.0070974  -0.0018082   0.0006247
 Max gradient component =       1.856E-02
 RMS gradient           =       7.184E-03
 Computing fast CPCM-SWIG gradient
 Updating gradient with PCM contributions...
 -- total gradient after adding PCM contribution --
---------------------------------------------------
  Atom         X              Y              Z     
---------------------------------------------------
   1      -0.001925       0.000123       0.002478
   2       0.002283      -0.001265      -0.002278
   3       0.001138       0.000241      -0.000357
   4       0.003494       0.000835      -0.002610
   5      -0.000677       0.000244       0.000874
   6      -0.001816      -0.001338       0.001363
   7      -0.001221       0.000998       0.001545
   8       0.000280      -0.000069      -0.001088
   9      -0.001558       0.000232       0.000072
---------------------------------------------------
 Number of fixed atoms: 0
 Gradient time:  CPU 50.69 s  wall 13.81 s
 Geometry Optimization Parameters
   NAtoms,    NIC,     NZ,  NCons,   NDum,   NFix, NCnnct, MaxDiis
        9      49       0       0       0       0       0       0

 Cartesian Hessian Update
 Hessian updated using BFGS update


** GEOMETRY OPTIMIZATION IN DELOCALIZED INTERNAL COORDINATES **
   Searching for a Minimum

   Optimization Cycle:   2

                       Coordinates (Angstroms)
     ATOM                X               Y               Z
      1  C        -0.0074247351   -0.2603519022   -0.2905941001
      2  O        -0.5292199769   -1.4673965079    0.1048985770
      3  H         0.0059164506   -0.1051851808   -1.3691681117
      4  C         1.3815356095   -0.1159538097    0.3178455126
      5  H         1.5328091285   -0.6473270600    1.2693475848
      6  O         2.2364042194    0.5455747251   -0.2058996145
      7  H        -1.3865759920   -1.5982984835   -0.3221380703
      8  O        -0.7722471318    0.8656115097    0.2752062209
      9  O        -2.0184423431    0.8004518541   -0.0997402270
   Point Group: c1    Number of degrees of freedom:    21


   Energy is   -378.787081899

 Hessian updated using BFGS update

 21 Hessian modes will be used to form the next step
  Hessian Eigenvalues:
     0.004170    0.006195    0.007103    0.011905    0.069505    0.081261
     0.091809    0.157726    0.160358    0.186541    0.198371    0.218829
     0.290178    0.300686    0.332952    0.346431    0.387419    0.522307
     0.566201    0.660064    1.074616

 Minimum search - taking simple RFO step
 Searching for Lamda that Minimizes Along All modes
 Value Taken    Lamda =  -0.00095077
 Calculated Step too Large.  Step scaled by  0.789574
 Step Taken.  Stepsize is  0.300000

                             Maximum     Tolerance    Cnvgd?
         Gradient           0.001848      0.000300      NO
         Displacement       0.124582      0.001200      NO
         Energy change     -0.000585      0.000001      NO


 New Cartesian Coordinates Obtained by Inverse Iteration

 Displacement from previous Coordinates is:  0.266135
 ----------------------------------------------------------------
             Standard Nuclear Orientation (Angstroms)
    I     Atom           X                Y                Z
 ----------------------------------------------------------------
    1      C      -0.0185067076    -0.2604135975    -0.2748125846
    2      O      -0.5418304394    -1.4633371714     0.1436678711
    3      H      -0.0140076353    -0.1242194121    -1.3542895521
    4      C       1.3658874229    -0.0985985236     0.3341769291
    5      H       1.5623346121    -0.6878916099     1.2386216477
    6      O       2.2159084011     0.5647905984    -0.2073673037
    7      H      -1.3483405469    -1.6576825044    -0.3557167333
    8      O      -0.7731399160     0.8790631749     0.2858678253
    9      O      -2.0055499618     0.8654141902    -0.1303903278
 ----------------------------------------------------------------
 Nuclear Repulsion Energy =         235.44565644 hartrees
 There are       24 alpha and       23 beta electrons
 Discretize the solute cavity surface with Lebedev spheres
	Using 110 Lebedev grid points for each H atom
	Using 194 Lebedev grid points for other atoms
	Atomic van der Waals radii will be scaled by 1.20
 Remove points where switching function is < 1.0e-08
 Keep 839 surface tesserae and discard 655 interior tesserae
 Molecular Surface Area = 102.003 Angst**2
 Applying Cartesian multipole field
    Component          Value
    ---------          -----
     (2,0,0)        1.00000E-11
     (0,2,0)        2.00000E-11
     (0,0,2)       -3.00000E-11
 Nucleus-field energy     =     0.0000000053 hartrees
 Requested basis set is 6-311++G(2df,2p)
 There are 66 shells and 234 basis functions
 A cutoff of  1.0D-12 yielded   2096 shell pairs
 There are     26467 function pairs (     33691 Cartesian)
 Smallest overlap matrix eigenvalue = 9.41E-05
 Guess MOs from SCF MO coefficient file

 -----------------------------------------------------------------------
  General SCF calculation program by
  Eric Jon Sundstrom, Paul Horn, Yuezhi Mao, Dmitri Zuev, Alec White,
  David Stuck, Shaama M.S., Shane Yost, Joonho Lee, David Small,
  Daniel Levine, Susi Lehtola, Hugh Burton, Evgeny Epifanovsky,
  Bang C. Huynh
 -----------------------------------------------------------------------
 Exchange:     0.1500 Hartree-Fock + 1.0000 wB97M-V + LR-HF
 Correlation:  1.0000 wB97M-V
 Using SG-2 standard quadrature grid
 Nonlocal Correlation:  VV10 with C = 0.0100 and b = 6.00 and scale = 1.00000
 Grid used for NLC:  SG-1 standard quadrature
 
 Citation of the SMD model:
 Marenich, A.V.; Cramer, C.J.; Truhlar, D.G.
 J. Phys. Chem. B 2009, 113, 6378-6396.
 iSolventCode=           1
 Solvent: water                                                           
 
 vradii
            1           2           3           4           5           6
    1   1.8500000   1.5200000   1.2000000   1.8500000   1.2000000   1.5200000
            7           8           9
    1   1.2000000   1.5200000   1.5200000
 -------------------------------------------------------
 OpenMP BLAS3 based DFT computing Module                
 Release: version 1.0, May 2013, Q-Chem Inc. Pittsburgh 
 -------------------------------------------------------
 A unrestricted SCF calculation will be
 performed using Roothaan-Hall, DIIS, GDM
 SCF converges when RMS gradient is below 1.0e-07
 ---------------------------------------
  Cycle       Energy         DIIS error
 ---------------------------------------
    1    -378.7641109623      4.30e-04  Roothaan Step
 ---------------------------------------
  Cycle       Energy         DIIS error
 ---------------------------------------
    1    -378.7872145734      3.66e-04  
    2    -378.7889614234      4.25e-04  Done DIIS. Switching to GDM
 ---------------------------------------
  Cycle       Energy        RMS Gradient
 ---------------------------------------
    1    -378.7889614234      3.23e-02   Normal BFGS step
    2    -378.7869118932      4.76e-02  Line search: overstep
    3    -378.7921846622      3.05e-03   Normal BFGS step
    4    -378.7923181188      1.75e-03   Normal BFGS step
    5    -378.7923446923      1.65e-03   Normal BFGS step
    6    -378.7923566281      6.03e-04   Normal BFGS step
    7    -378.7923588885      5.69e-04   Normal BFGS step
    8    -378.7923604573      5.02e-04   Normal BFGS step
    9    -378.7923615856      3.54e-04   Normal BFGS step
   10    -378.7923621511      2.23e-04   Normal BFGS step
   11    -378.7923627065      1.49e-04   Normal BFGS step
   12    -378.7923628733      3.36e-05   Normal BFGS step
   13    -378.7923628893      1.40e-05   Normal BFGS step
   14    -378.7923628913      6.70e-06   Normal BFGS step
   15    -378.7923628917      3.89e-06   Normal BFGS step
   16    -378.7923628918      1.68e-06   Normal BFGS step
   17    -378.7923628919      4.76e-07   Normal BFGS step
   18    -378.7923628919      1.42e-07   Normal BFGS step
   19    -378.7923628919      9.36e-08  Convergence criterion met
 ---------------------------------------
 SCF time:   CPU 369.28s  wall 93.00s 
<S^2> =          0.753881053
(3)  G-ENP(liq) elect-nuc-pol free energy of system     -378.792362892 a.u.
(4)  G-CDS(liq) cavity-dispersion-solvent structure 
     free energy                                                3.2314 kcal/mol
(6)  G-S(liq) free energy of system                     -378.787213259 a.u.
 SCF   energy in the final basis set =     -378.7872132586
 Total energy in the final basis set =     -378.7872132586
 
 --------------------------------------------------------------
 
                    Orbital Energies (a.u.)
 --------------------------------------------------------------
 
 Alpha MOs
 -- Occupied --
-19.4698 -19.4275 -19.3733 -19.3670 -10.4722 -10.4579  -1.3555  -1.2157
 -1.1992  -1.0194  -0.8459  -0.7344  -0.6829  -0.6676  -0.6397  -0.6137
 -0.5777  -0.5720  -0.5250  -0.5014  -0.4596  -0.4147  -0.4076  -0.3892
 -- Virtual --
  0.0197   0.0337   0.0452   0.0546   0.0835   0.0923   0.1116   0.1142
  0.1335   0.1485   0.1519   0.1658   0.1802   0.2021   0.2156   0.2361
  0.2377   0.2535   0.2594   0.2768   0.2876   0.2921   0.2949   0.3164
  0.3218   0.3260   0.3304   0.3442   0.3567   0.3689   0.3795   0.4007
  0.4027   0.4253   0.4603   0.4971   0.5652   0.5778   0.6125   0.6256
  0.6546   0.6670   0.6829   0.7025   0.7220   0.7639   0.7931   0.8416
  0.8534   0.8787   0.9761   0.9871   1.0216   1.0465   1.0626   1.0904
  1.0936   1.1148   1.1342   1.1385   1.1427   1.1606   1.1663   1.1886
  1.1926   1.2074   1.2444   1.2601   1.2900   1.3431   1.3565   1.3682
  1.3992   1.4424   1.4634   1.5123   1.5352   1.5459   1.5590   1.6099
  1.6295   1.6385   1.7203   1.7467   1.7740   1.7959   1.8488   1.8663
  1.9522   2.0340   2.0721   2.1142   2.1787   2.2313   2.2738   2.2941
  2.3262   2.3755   2.3851   2.4991   2.5452   2.5936   2.6484   2.7398
  2.7701   2.8317   2.8659   2.9783   3.0086   3.0446   3.1030   3.1176
  3.1839   3.2516   3.2592   3.3281   3.3729   3.4117   3.4196   3.5043
  3.5216   3.5862   3.6197   3.6401   3.6564   3.7254   3.7774   3.7952
  3.8236   3.8538   3.9390   4.0171   4.0363   4.1597   4.1937   4.2182
  4.2461   4.3216   4.4315   4.4938   4.5691   4.6406   4.6817   4.7021
  4.8180   4.8701   4.9872   5.0396   5.0713   5.0739   5.1124   5.1431
  5.1541   5.1633   5.1722   5.1985   5.2056   5.2254   5.2653   5.2914
  5.3026   5.3259   5.3850   5.4418   5.4950   5.5213   5.5529   5.5791
  5.6000   5.6454   5.7086   5.7910   5.8459   6.0728   6.0781   6.3168
  6.3690   6.4752   6.5843   6.6232   6.7376   6.8242   6.8627   6.9306
  6.9382   6.9895   7.0515   7.0843   7.1194   7.1551   7.2049   7.2594
  7.2973   7.3095   7.3785   7.4011   7.4561   7.5055   7.6449   7.7181
  7.7776   7.8268   7.9985   8.0835  24.6968  24.9399  50.4043  50.4864
 50.5801  50.6874
 
 Beta MOs
 -- Occupied --
-19.4599 -19.4083 -19.3731 -19.3671 -10.4726 -10.4579  -1.3299  -1.2150
 -1.1979  -0.9875  -0.8361  -0.7302  -0.6767  -0.6517  -0.6316  -0.5837
 -0.5642  -0.5467  -0.5234  -0.4845  -0.4547  -0.4027  -0.3822
 -- Virtual --
 -0.0385   0.0211   0.0340   0.0455   0.0548   0.0842   0.0929   0.1122
  0.1147   0.1349   0.1493   0.1533   0.1662   0.1831   0.2038   0.2185
  0.2387   0.2401   0.2583   0.2627   0.2846   0.2902   0.2932   0.2967
  0.3179   0.3252   0.3272   0.3318   0.3450   0.3587   0.3703   0.3809
  0.4013   0.4040   0.4263   0.4616   0.4977   0.5656   0.5782   0.6126
  0.6260   0.6552   0.6678   0.6832   0.7036   0.7224   0.7646   0.7945
  0.8420   0.8540   0.8792   0.9802   0.9876   1.0226   1.0503   1.0662
  1.0920   1.1083   1.1178   1.1425   1.1452   1.1485   1.1648   1.1818
  1.1934   1.2021   1.2116   1.2458   1.2641   1.2926   1.3517   1.3589
  1.3712   1.4025   1.4475   1.4700   1.5150   1.5400   1.5547   1.5737
  1.6222   1.6400   1.6499   1.7343   1.7554   1.7778   1.8011   1.8563
  1.8745   1.9553   2.0377   2.0734   2.1229   2.1875   2.2377   2.2892
  2.2966   2.3365   2.3802   2.3886   2.5013   2.5457   2.5944   2.6561
  2.7435   2.7712   2.8323   2.8662   2.9788   3.0090   3.0448   3.1032
  3.1180   3.1842   3.2521   3.2598   3.3295   3.3735   3.4120   3.4204
  3.5046   3.5221   3.5863   3.6199   3.6399   3.6568   3.7266   3.7785
  3.7956   3.8238   3.8538   3.9392   4.0177   4.0366   4.1604   4.1938
  4.2189   4.2468   4.3234   4.4351   4.4975   4.5976   4.6455   4.6862
  4.7186   4.8430   4.8807   5.0046   5.1132   5.1174   5.1204   5.1340
  5.1558   5.1685   5.1754   5.1934   5.2126   5.2306   5.2448   5.2827
  5.3006   5.3081   5.3446   5.3979   5.4528   5.4983   5.5282   5.5539
  5.5944   5.6016   5.6539   5.7214   5.7995   5.8484   6.0749   6.0853
  6.3274   6.3725   6.5206   6.5960   6.6277   6.7505   6.8991   6.9252
  6.9503   6.9712   7.0104   7.0666   7.1082   7.1329   7.1818   7.2262
  7.2650   7.3058   7.3124   7.4090   7.4265   7.4770   7.5097   7.6468
  7.7212   7.7830   7.8340   8.0098   8.1049  24.6965  24.9398  50.4173
 50.4950  50.5809  50.6874
 --------------------------------------------------------------
 
          Ground-State Mulliken Net Atomic Charges

     Atom                 Charge (a.u.)    Spin (a.u.)
  --------------------------------------------------------
      1 C                    -0.075823      -0.005508
      2 O                    -0.378048       0.001186
      3 H                     0.284811       0.006917
      4 C                     0.119630       0.005099
      5 H                     0.207554      -0.000913
      6 O                    -0.344438      -0.001905
      7 H                     0.361052       0.000464
      8 O                     0.031625       0.301731
      9 O                    -0.206363       0.692929
  --------------------------------------------------------
  Sum of atomic charges =    -0.000000
  Sum of spin   charges =     1.000000

 -----------------------------------------------------------------
                    Cartesian Multipole Moments
 -----------------------------------------------------------------
    Charge (ESU x 10^10)
                -0.0000
    Dipole Moment (Debye)
         X      -0.9124      Y      -3.1334      Z      -0.7701
       Tot       3.3532
    Quadrupole Moments (Debye-Ang)
        XX     -42.0931     XY       1.1886     YY     -36.2196
        XZ       4.1397     YZ       1.7654     ZZ     -31.6700
    Octopole Moments (Debye-Ang^2)
       XXX     -18.9104    XXY     -20.1301    XYY      -4.9168
       YYY      -6.3878    XXZ       2.9948    XYZ      -1.9283
       YYZ      -3.8648    XZZ       0.0390    YZZ      -2.5745
       ZZZ      -2.5595
    Hexadecapole Moments (Debye-Ang^3)
      XXXX    -497.7709   XXXY       6.3258   XXYY     -99.5853
      XYYY      18.0140   YYYY    -179.5342   XXXZ       6.1736
      XXYZ       3.8590   XYYZ       5.1798   YYYZ       8.4407
      XXZZ     -79.0270   XYZZ       0.2281   YYZZ     -38.5960
      XZZZ       0.6008   YZZZ       3.8268   ZZZZ     -50.8891
 -----------------------------------------------------------------
 Calculating analytic gradient of the SCF energy
 Gradient of CDS energy
            1           2           3           4           5           6
    1  -0.0023044   0.0019711  -0.0001091   0.0022156  -0.0001767  -0.0010379
    2  -0.0048187   0.0048039   0.0001856   0.0010610  -0.0001760  -0.0007449
    3   0.0012209  -0.0013957  -0.0001027  -0.0002025   0.0000424   0.0005539
            7           8           9
    1  -0.0002932  -0.0002832   0.0000178
    2  -0.0003699  -0.0000723   0.0001312
    3  -0.0000828  -0.0000884   0.0000549
 Gradient of SCF Energy
            1           2           3           4           5           6
    1   0.0012469   0.0153108  -0.0003924  -0.0105819   0.0027343   0.0097254
    2  -0.0013687  -0.0015857  -0.0007284   0.0073372  -0.0074121   0.0044152
    3   0.0128301   0.0107995  -0.0142819   0.0018791   0.0054383  -0.0065156
            7           8           9
    1  -0.0166253  -0.0006802  -0.0007376
    2  -0.0051851   0.0012117   0.0033159
    3  -0.0105404  -0.0011177   0.0015086
 Max gradient component =       1.663E-02
 RMS gradient           =       7.639E-03
 Computing fast CPCM-SWIG gradient
 Updating gradient with PCM contributions...
 -- total gradient after adding PCM contribution --
---------------------------------------------------
  Atom         X              Y              Z     
---------------------------------------------------
   1       0.002286      -0.000829      -0.003371
   2       0.002147      -0.003239       0.000010
   3       0.000321      -0.000133       0.000086
   4      -0.007228       0.005167       0.009583
   5       0.001069      -0.001949      -0.002583
   6       0.004386      -0.000272      -0.004286
   7      -0.002959      -0.000306       0.000080
   8      -0.000641       0.000959      -0.000388
   9       0.000619       0.000603       0.000871
---------------------------------------------------
 Number of fixed atoms: 0
 Gradient time:  CPU 51.10 s  wall 13.95 s
 Geometry Optimization Parameters
   NAtoms,    NIC,     NZ,  NCons,   NDum,   NFix, NCnnct, MaxDiis
        9      49       0       0       0       0       0       0

 Cartesian Hessian Update
 Hessian updated using BFGS update


** GEOMETRY OPTIMIZATION IN DELOCALIZED INTERNAL COORDINATES **
   Searching for a Minimum

   Optimization Cycle:   3

                       Coordinates (Angstroms)
     ATOM                X               Y               Z
      1  C        -0.0185067076   -0.2604135975   -0.2748125846
      2  O        -0.5418304394   -1.4633371714    0.1436678711
      3  H        -0.0140076353   -0.1242194121   -1.3542895521
      4  C         1.3658874229   -0.0985985236    0.3341769291
      5  H         1.5623346121   -0.6878916099    1.2386216477
      6  O         2.2159084011    0.5647905984   -0.2073673037
      7  H        -1.3483405469   -1.6576825044   -0.3557167333
      8  O        -0.7731399160    0.8790631749    0.2858678253
      9  O        -2.0055499618    0.8654141902   -0.1303903278
   Point Group: c1    Number of degrees of freedom:    21


   Energy is   -378.787213259

 Hessian updated using BFGS update

 21 Hessian modes will be used to form the next step
  Hessian Eigenvalues:
     0.002245    0.006418    0.009128    0.033637    0.070234    0.083556
     0.091654    0.158234    0.161018    0.188499    0.212866    0.220438
     0.288633    0.300477    0.334009    0.346419    0.386065    0.526896
     0.575574    0.661379    1.115785

 Minimum search - taking simple RFO step
 Searching for Lamda that Minimizes Along All modes
 Value Taken    Lamda =  -0.00144950
 Calculated Step too Large.  Step scaled by  0.688443
 Step Taken.  Stepsize is  0.300000

                             Maximum     Tolerance    Cnvgd?
         Gradient           0.006207      0.000300      NO
         Displacement       0.220518      0.001200      NO
         Energy change     -0.000131      0.000001      NO


 New Cartesian Coordinates Obtained by Inverse Iteration

 Displacement from previous Coordinates is:  0.250787
 ----------------------------------------------------------------
             Standard Nuclear Orientation (Angstroms)
    I     Atom           X                Y                Z
 ----------------------------------------------------------------
    1      C      -0.0268307789    -0.2723486552    -0.2698552969
    2      O      -0.5669798497    -1.4608526258     0.1725617480
    3      H      -0.0432272316    -0.1498980803    -1.3493884638
    4      C       1.3641963423    -0.1196172856     0.3206824040
    5      H       1.5770983021    -0.6963432403     1.2269979472
    6      O       2.1811537794     0.6146921806    -0.1871136678
    7      H      -1.3197269936    -1.7054005200    -0.3852277033
    8      O      -0.7511696455     0.8847309516     0.2969515426
    9      O      -1.9717586953     0.9221624197    -0.1458507383
 ----------------------------------------------------------------
 Nuclear Repulsion Energy =         235.62069052 hartrees
 There are       24 alpha and       23 beta electrons
 Discretize the solute cavity surface with Lebedev spheres
	Using 110 Lebedev grid points for each H atom
	Using 194 Lebedev grid points for other atoms
	Atomic van der Waals radii will be scaled by 1.20
 Remove points where switching function is < 1.0e-08
 Keep 834 surface tesserae and discard 660 interior tesserae
 Molecular Surface Area = 101.977 Angst**2
 Applying Cartesian multipole field
    Component          Value
    ---------          -----
     (2,0,0)        1.00000E-11
     (0,2,0)        2.00000E-11
     (0,0,2)       -3.00000E-11
 Nucleus-field energy     =     0.0000000053 hartrees
 Requested basis set is 6-311++G(2df,2p)
 There are 66 shells and 234 basis functions
 A cutoff of  1.0D-12 yielded   2092 shell pairs
 There are     26438 function pairs (     33629 Cartesian)
 Smallest overlap matrix eigenvalue = 9.52E-05
 Guess MOs from SCF MO coefficient file

 -----------------------------------------------------------------------
  General SCF calculation program by
  Eric Jon Sundstrom, Paul Horn, Yuezhi Mao, Dmitri Zuev, Alec White,
  David Stuck, Shaama M.S., Shane Yost, Joonho Lee, David Small,
  Daniel Levine, Susi Lehtola, Hugh Burton, Evgeny Epifanovsky,
  Bang C. Huynh
 -----------------------------------------------------------------------
 Exchange:     0.1500 Hartree-Fock + 1.0000 wB97M-V + LR-HF
 Correlation:  1.0000 wB97M-V
 Using SG-2 standard quadrature grid
 Nonlocal Correlation:  VV10 with C = 0.0100 and b = 6.00 and scale = 1.00000
 Grid used for NLC:  SG-1 standard quadrature
 
 Citation of the SMD model:
 Marenich, A.V.; Cramer, C.J.; Truhlar, D.G.
 J. Phys. Chem. B 2009, 113, 6378-6396.
 iSolventCode=           1
 Solvent: water                                                           
 
 vradii
            1           2           3           4           5           6
    1   1.8500000   1.5200000   1.2000000   1.8500000   1.2000000   1.5200000
            7           8           9
    1   1.2000000   1.5200000   1.5200000
 -------------------------------------------------------
 OpenMP BLAS3 based DFT computing Module                
 Release: version 1.0, May 2013, Q-Chem Inc. Pittsburgh 
 -------------------------------------------------------
 A unrestricted SCF calculation will be
 performed using Roothaan-Hall, DIIS, GDM
 SCF converges when RMS gradient is below 1.0e-07
 ---------------------------------------
  Cycle       Energy         DIIS error
 ---------------------------------------
    1    -378.7609943742      4.98e-04  Roothaan Step
 ---------------------------------------
  Cycle       Energy         DIIS error
 ---------------------------------------
    1    -378.7871219108      3.86e-04  
    2    -378.7890714927      4.47e-04  Done DIIS. Switching to GDM
 ---------------------------------------
  Cycle       Energy        RMS Gradient
 ---------------------------------------
    1    -378.7890714927      3.36e-02   Normal BFGS step
    2    -378.7867670495      5.04e-02  Line search: overstep
    3    -378.7926423667      3.45e-03   Normal BFGS step
    4    -378.7927798745      1.24e-03   Normal BFGS step
    5    -378.7928021628      1.74e-03   Normal BFGS step
    6    -378.7928125115      4.77e-04   Normal BFGS step
    7    -378.7928138297      4.21e-04   Normal BFGS step
    8    -378.7928147641      3.85e-04   Normal BFGS step
    9    -378.7928154209      2.99e-04   Normal BFGS step
   10    -378.7928158302      1.88e-04   Normal BFGS step
   11    -378.7928161014      1.42e-04   Normal BFGS step
   12    -378.7928162391      7.06e-05   Normal BFGS step
   13    -378.7928162734      1.99e-05   Normal BFGS step
   14    -378.7928162773      6.98e-06   Normal BFGS step
   15    -378.7928162781      4.91e-06   Normal BFGS step
   16    -378.7928162782      2.13e-06   Normal BFGS step
   17    -378.7928162783      6.90e-07   Normal BFGS step
   18    -378.7928162783      1.53e-07   Normal BFGS step
   19    -378.7928162783      5.43e-08  Convergence criterion met
 ---------------------------------------
 SCF time:   CPU 370.32s  wall 93.00s 
<S^2> =          0.753869422
(3)  G-ENP(liq) elect-nuc-pol free energy of system     -378.792816278 a.u.
(4)  G-CDS(liq) cavity-dispersion-solvent structure 
     free energy                                                3.2261 kcal/mol
(6)  G-S(liq) free energy of system                     -378.787675152 a.u.
 SCF   energy in the final basis set =     -378.7876751519
 Total energy in the final basis set =     -378.7876751519
 
 --------------------------------------------------------------
 
                    Orbital Energies (a.u.)
 --------------------------------------------------------------
 
 Alpha MOs
 -- Occupied --
-19.4697 -19.4271 -19.3731 -19.3665 -10.4723 -10.4579  -1.3564  -1.2139
 -1.1983  -1.0189  -0.8459  -0.7348  -0.6842  -0.6666  -0.6403  -0.6135
 -0.5790  -0.5714  -0.5233  -0.4975  -0.4618  -0.4154  -0.4077  -0.3884
 -- Virtual --
  0.0193   0.0333   0.0451   0.0547   0.0831   0.0924   0.1116   0.1141
  0.1334   0.1499   0.1515   0.1657   0.1804   0.2019   0.2140   0.2365
  0.2389   0.2553   0.2609   0.2772   0.2856   0.2903   0.2947   0.3154
  0.3215   0.3267   0.3317   0.3452   0.3535   0.3764   0.3784   0.4014
  0.4069   0.4249   0.4601   0.4952   0.5709   0.5765   0.6107   0.6237
  0.6525   0.6629   0.6860   0.6998   0.7129   0.7717   0.8016   0.8408
  0.8519   0.8917   0.9677   0.9877   1.0186   1.0456   1.0575   1.0859
  1.0959   1.1075   1.1364   1.1406   1.1459   1.1588   1.1684   1.1831
  1.1910   1.2100   1.2467   1.2747   1.2899   1.3355   1.3587   1.3722
  1.3998   1.4410   1.4647   1.5068   1.5361   1.5474   1.5601   1.6078
  1.6236   1.6275   1.7220   1.7589   1.7726   1.8084   1.8565   1.8667
  1.9628   2.0375   2.0462   2.1170   2.1882   2.2343   2.2748   2.2944
  2.3344   2.3568   2.3883   2.5009   2.5475   2.5926   2.6459   2.7430
  2.7483   2.8378   2.8579   2.9973   3.0127   3.0454   3.1022   3.1180
  3.1993   3.2427   3.2621   3.3279   3.3790   3.4123   3.4231   3.5022
  3.5159   3.5755   3.6080   3.6356   3.6673   3.7282   3.7779   3.7923
  3.8349   3.8618   3.9381   4.0082   4.0421   4.1578   4.1970   4.2214
  4.2314   4.3124   4.4394   4.4885   4.5693   4.6501   4.6874   4.7063
  4.8198   4.8761   4.9922   5.0396   5.0716   5.0739   5.1128   5.1431
  5.1562   5.1649   5.1690   5.2008   5.2076   5.2346   5.2672   5.2888
  5.3055   5.3307   5.3777   5.4294   5.4931   5.5201   5.5502   5.5784
  5.5952   5.6552   5.7064   5.7810   5.8389   6.0729   6.0966   6.3144
  6.3565   6.4812   6.5899   6.6107   6.7333   6.8238   6.8664   6.9299
  6.9419   6.9895   7.0514   7.0814   7.1177   7.1538   7.1972   7.2640
  7.3013   7.3122   7.3727   7.3986   7.4633   7.5123   7.6469   7.7203
  7.7728   7.8290   8.0023   8.0876  24.6948  24.9431  50.4070  50.4860
 50.5809  50.6851
 
 Beta MOs
 -- Occupied --
-19.4598 -19.4078 -19.3730 -19.3666 -10.4727 -10.4579  -1.3307  -1.2131
 -1.1972  -0.9871  -0.8359  -0.7308  -0.6773  -0.6511  -0.6324  -0.5833
 -0.5640  -0.5460  -0.5219  -0.4824  -0.4571  -0.4036  -0.3812
 -- Virtual --
 -0.0380   0.0208   0.0336   0.0453   0.0549   0.0838   0.0929   0.1122
  0.1147   0.1348   0.1505   0.1530   0.1661   0.1833   0.2035   0.2169
  0.2385   0.2417   0.2603   0.2648   0.2844   0.2876   0.2909   0.2972
  0.3172   0.3246   0.3283   0.3331   0.3459   0.3555   0.3772   0.3806
  0.4029   0.4073   0.4261   0.4614   0.4957   0.5712   0.5769   0.6110
  0.6239   0.6533   0.6637   0.6864   0.7005   0.7135   0.7724   0.8029
  0.8412   0.8525   0.8922   0.9711   0.9883   1.0207   1.0505   1.0612
  1.0875   1.1055   1.1154   1.1429   1.1486   1.1504   1.1639   1.1799
  1.1916   1.2011   1.2140   1.2482   1.2774   1.2923   1.3439   1.3604
  1.3763   1.4045   1.4457   1.4701   1.5107   1.5427   1.5523   1.5762
  1.6221   1.6310   1.6409   1.7353   1.7647   1.7815   1.8126   1.8630
  1.8747   1.9668   2.0406   2.0473   2.1260   2.1956   2.2420   2.2921
  2.2965   2.3402   2.3631   2.3933   2.5030   2.5477   2.5934   2.6541
  2.7465   2.7494   2.8384   2.8583   2.9978   3.0132   3.0455   3.1022
  3.1183   3.1997   3.2432   3.2625   3.3295   3.3796   3.4126   3.4238
  3.5024   3.5164   3.5756   3.6082   3.6354   3.6676   3.7296   3.7784
  3.7931   3.8351   3.8619   3.9382   4.0089   4.0424   4.1585   4.1971
  4.2221   4.2322   4.3139   4.4430   4.4925   4.5989   4.6544   4.6926
  4.7218   4.8446   4.8867   5.0099   5.1141   5.1174   5.1195   5.1349
  5.1576   5.1684   5.1751   5.1915   5.2162   5.2378   5.2497   5.2848
  5.2951   5.3099   5.3483   5.3931   5.4411   5.4967   5.5266   5.5520
  5.5809   5.6081   5.6636   5.7194   5.7899   5.8422   6.0771   6.1011
  6.3233   6.3610   6.5276   6.6006   6.6158   6.7471   6.8983   6.9288
  6.9520   6.9727   7.0105   7.0637   7.1070   7.1337   7.1794   7.2177
  7.2693   7.3069   7.3180   7.4026   7.4272   7.4787   7.5204   7.6488
  7.7232   7.7781   7.8367   8.0136   8.1089  24.6946  24.9430  50.4200
 50.4945  50.5817  50.6852
 --------------------------------------------------------------
 
          Ground-State Mulliken Net Atomic Charges

     Atom                 Charge (a.u.)    Spin (a.u.)
  --------------------------------------------------------
      1 C                    -0.081235      -0.005152
      2 O                    -0.383391       0.001180
      3 H                     0.284648       0.006242
      4 C                     0.134302       0.004231
      5 H                     0.211709      -0.000901
      6 O                    -0.352248      -0.001755
      7 H                     0.362849       0.000999
      8 O                     0.033847       0.301308
      9 O                    -0.210482       0.693849
  --------------------------------------------------------
  Sum of atomic charges =     0.000000
  Sum of spin   charges =     1.000000

 -----------------------------------------------------------------
                    Cartesian Multipole Moments
 -----------------------------------------------------------------
    Charge (ESU x 10^10)
                 0.0000
    Dipole Moment (Debye)
         X      -0.8044      Y      -3.4967      Z      -0.9717
       Tot       3.7172
    Quadrupole Moments (Debye-Ang)
        XX     -41.9311     XY       0.9358     YY     -36.0998
        XZ       4.1203     YZ       2.0970     ZZ     -31.5996
    Octopole Moments (Debye-Ang^2)
       XXX     -17.5897    XXY     -20.9665    XYY      -5.1933
       YYY      -9.0393    XXZ       2.4591    XYZ      -2.3457
       YYZ      -4.6739    XZZ       0.1515    YZZ      -3.2182
       ZZZ      -3.2343
    Hexadecapole Moments (Debye-Ang^3)
      XXXX    -484.2909   XXXY       4.2574   XXYY    -100.0433
      XYYY      18.2454   YYYY    -183.9608   XXXZ       4.6058
      XXYZ       4.3677   XYYZ       5.4496   YYYZ      10.4282
      XXZZ     -77.2156   XYZZ       0.1720   YYZZ     -39.3921
      XZZZ      -0.0451   YZZZ       4.7935   ZZZZ     -50.5832
 -----------------------------------------------------------------
 Calculating analytic gradient of the SCF energy
 Gradient of CDS energy
            1           2           3           4           5           6
    1  -0.0023408   0.0020162  -0.0001358   0.0022164  -0.0001750  -0.0010488
    2  -0.0047230   0.0047484   0.0001627   0.0011332  -0.0001708  -0.0008341
    3   0.0013435  -0.0014933  -0.0001065  -0.0002024   0.0000470   0.0005420
            7           8           9
    1  -0.0002835  -0.0002645   0.0000157
    2  -0.0003780  -0.0000602   0.0001218
    3  -0.0000970  -0.0000865   0.0000533
 Gradient of SCF Energy
            1           2           3           4           5           6
    1   0.0009381   0.0145449  -0.0012293  -0.0111152   0.0021897   0.0112161
    2   0.0026459   0.0003998  -0.0015983  -0.0062301  -0.0034669   0.0109173
    3   0.0119442   0.0147812  -0.0142952  -0.0012319   0.0071572  -0.0061002
            7           8           9
    1  -0.0158802  -0.0019888   0.0013248
    2  -0.0070390   0.0014811   0.0028903
    3  -0.0134913  -0.0007684   0.0020044
 Max gradient component =       1.588E-02
 RMS gradient           =       8.183E-03
 Computing fast CPCM-SWIG gradient
 Updating gradient with PCM contributions...
 -- total gradient after adding PCM contribution --
---------------------------------------------------
  Atom         X              Y              Z     
---------------------------------------------------
   1       0.001866       0.002727      -0.004625
   2       0.001892      -0.002745       0.001955
   3      -0.000169      -0.000452       0.000656
   4      -0.008220      -0.007613       0.007140
   5       0.000424       0.001818      -0.001146
   6       0.006316       0.005801      -0.004171
   7      -0.002703      -0.001203      -0.001127
   8      -0.002068       0.001392       0.000055
   9       0.002661       0.000275       0.001262
---------------------------------------------------
 Number of fixed atoms: 0
 Gradient time:  CPU 49.64 s  wall 13.43 s
 Geometry Optimization Parameters
   NAtoms,    NIC,     NZ,  NCons,   NDum,   NFix, NCnnct, MaxDiis
        9      49       0       0       0       0       0       0

 Cartesian Hessian Update
 Hessian updated using BFGS update


** GEOMETRY OPTIMIZATION IN DELOCALIZED INTERNAL COORDINATES **
   Searching for a Minimum

   Optimization Cycle:   4

                       Coordinates (Angstroms)
     ATOM                X               Y               Z
      1  C        -0.0268307789   -0.2723486552   -0.2698552969
      2  O        -0.5669798497   -1.4608526258    0.1725617480
      3  H        -0.0432272316   -0.1498980803   -1.3493884638
      4  C         1.3641963423   -0.1196172856    0.3206824040
      5  H         1.5770983021   -0.6963432403    1.2269979472
      6  O         2.1811537794    0.6146921806   -0.1871136678
      7  H        -1.3197269936   -1.7054005200   -0.3852277033
      8  O        -0.7511696455    0.8847309516    0.2969515426
      9  O        -1.9717586953    0.9221624197   -0.1458507383
   Point Group: c1    Number of degrees of freedom:    21


   Energy is   -378.787675152

 Hessian updated using BFGS update

 21 Hessian modes will be used to form the next step
  Hessian Eigenvalues:
     0.003186    0.006449    0.010123    0.044511    0.070312    0.082976
     0.091660    0.159731    0.160548    0.187685    0.204132    0.219436
     0.288401    0.300875    0.334073    0.346723    0.385230    0.523002
     0.562961    0.664973    1.110496

 Minimum search - taking simple RFO step
 Searching for Lamda that Minimizes Along All modes
 Value Taken    Lamda =  -0.00031673
 Step Taken.  Stepsize is  0.070314

                             Maximum     Tolerance    Cnvgd?
         Gradient           0.006173      0.000300      NO
         Displacement       0.039405      0.001200      NO
         Energy change     -0.000462      0.000001      NO


 New Cartesian Coordinates Obtained by Inverse Iteration

 Displacement from previous Coordinates is:  0.085918
 ----------------------------------------------------------------
             Standard Nuclear Orientation (Angstroms)
    I     Atom           X                Y                Z
 ----------------------------------------------------------------
    1      C      -0.0265874625    -0.2707497465    -0.2609604032
    2      O      -0.5705285114    -1.4530242315     0.1826219260
    3      H      -0.0426968279    -0.1511436062    -1.3417943245
    4      C       1.3712807627    -0.1212722401     0.3174012295
    5      H       1.5891514657    -0.7181654483     1.2125535011
    6      O       2.1790626165     0.6239465806    -0.1792762737
    7      H      -1.3178723221    -1.6918328951    -0.3806206432
    8      O      -0.7600700644     0.8853819864     0.2923137519
    9      O      -1.9789844274     0.9139847452    -0.1624809923
 ----------------------------------------------------------------
 Nuclear Repulsion Energy =         235.67858737 hartrees
 There are       24 alpha and       23 beta electrons
 Discretize the solute cavity surface with Lebedev spheres
	Using 110 Lebedev grid points for each H atom
	Using 194 Lebedev grid points for other atoms
	Atomic van der Waals radii will be scaled by 1.20
 Remove points where switching function is < 1.0e-08
 Keep 836 surface tesserae and discard 658 interior tesserae
 Molecular Surface Area = 101.917 Angst**2
 Applying Cartesian multipole field
    Component          Value
    ---------          -----
     (2,0,0)        1.00000E-11
     (0,2,0)        2.00000E-11
     (0,0,2)       -3.00000E-11
 Nucleus-field energy     =     0.0000000053 hartrees
 Requested basis set is 6-311++G(2df,2p)
 There are 66 shells and 234 basis functions
 A cutoff of  1.0D-12 yielded   2095 shell pairs
 There are     26440 function pairs (     33637 Cartesian)
 Smallest overlap matrix eigenvalue = 9.54E-05
 Guess MOs from SCF MO coefficient file

 -----------------------------------------------------------------------
  General SCF calculation program by
  Eric Jon Sundstrom, Paul Horn, Yuezhi Mao, Dmitri Zuev, Alec White,
  David Stuck, Shaama M.S., Shane Yost, Joonho Lee, David Small,
  Daniel Levine, Susi Lehtola, Hugh Burton, Evgeny Epifanovsky,
  Bang C. Huynh
 -----------------------------------------------------------------------
 Exchange:     0.1500 Hartree-Fock + 1.0000 wB97M-V + LR-HF
 Correlation:  1.0000 wB97M-V
 Using SG-2 standard quadrature grid
 Nonlocal Correlation:  VV10 with C = 0.0100 and b = 6.00 and scale = 1.00000
 Grid used for NLC:  SG-1 standard quadrature
 
 Citation of the SMD model:
 Marenich, A.V.; Cramer, C.J.; Truhlar, D.G.
 J. Phys. Chem. B 2009, 113, 6378-6396.
 iSolventCode=           1
 Solvent: water                                                           
 
 vradii
            1           2           3           4           5           6
    1   1.8500000   1.5200000   1.2000000   1.8500000   1.2000000   1.5200000
            7           8           9
    1   1.2000000   1.5200000   1.5200000
 -------------------------------------------------------
 OpenMP BLAS3 based DFT computing Module                
 Release: version 1.0, May 2013, Q-Chem Inc. Pittsburgh 
 -------------------------------------------------------
 A unrestricted SCF calculation will be
 performed using Roothaan-Hall, DIIS, GDM
 SCF converges when RMS gradient is below 1.0e-07
 ---------------------------------------
  Cycle       Energy         DIIS error
 ---------------------------------------
    1    -378.7672650644      3.07e-04  Roothaan Step
 ---------------------------------------
  Cycle       Energy         DIIS error
 ---------------------------------------
    1    -378.7881797282      3.61e-04  
    2    -378.7899216743      4.12e-04  Done DIIS. Switching to GDM
 ---------------------------------------
  Cycle       Energy        RMS Gradient
 ---------------------------------------
    1    -378.7899216743      3.11e-02   Normal BFGS step
    2    -378.7880468995      4.68e-02  Line search: overstep
    3    -378.7929461827      3.35e-03   Normal BFGS step
    4    -378.7930497552      1.23e-03   Normal BFGS step
    5    -378.7930674587      1.41e-03   Normal BFGS step
    6    -378.7930737756      2.60e-04   Normal BFGS step
    7    -378.7930746486      2.48e-04   Normal BFGS step
    8    -378.7930750992      1.18e-04   Normal BFGS step
    9    -378.7930751909      6.19e-05   Normal BFGS step
   10    -378.7930752209      5.40e-05   Normal BFGS step
   11    -378.7930752320      4.71e-05   Normal BFGS step
   12    -378.7930752408      3.62e-05   Normal BFGS step
   13    -378.7930752509      1.30e-05   Normal BFGS step
   14    -378.7930752535      7.33e-06   Normal BFGS step
   15    -378.7930752543      4.55e-06   Normal BFGS step
   16    -378.7930752545      2.24e-06   Normal BFGS step
   17    -378.7930752545      6.63e-07   Normal BFGS step
   18    -378.7930752545      2.25e-07   Normal BFGS step
   19    -378.7930752545      4.20e-08  Convergence criterion met
 ---------------------------------------
 SCF time:   CPU 368.38s  wall 93.00s 
<S^2> =          0.753879907
(3)  G-ENP(liq) elect-nuc-pol free energy of system     -378.793075255 a.u.
(4)  G-CDS(liq) cavity-dispersion-solvent structure 
     free energy                                                3.2572 kcal/mol
(6)  G-S(liq) free energy of system                     -378.787884584 a.u.
 SCF   energy in the final basis set =     -378.7878845842
 Total energy in the final basis set =     -378.7878845842
 
 --------------------------------------------------------------
 
                    Orbital Energies (a.u.)
 --------------------------------------------------------------
 
 Alpha MOs
 -- Occupied --
-19.4694 -19.4273 -19.3729 -19.3667 -10.4717 -10.4577  -1.3551  -1.2159
 -1.2002  -1.0188  -0.8460  -0.7342  -0.6847  -0.6662  -0.6402  -0.6133
 -0.5794  -0.5718  -0.5249  -0.4976  -0.4617  -0.4154  -0.4080  -0.3884
 -- Virtual --
  0.0197   0.0333   0.0452   0.0548   0.0831   0.0925   0.1115   0.1142
  0.1333   0.1500   0.1511   0.1657   0.1811   0.2025   0.2141   0.2359
  0.2393   0.2564   0.2610   0.2765   0.2859   0.2901   0.2946   0.3149
  0.3219   0.3257   0.3319   0.3453   0.3528   0.3765   0.3792   0.4014
  0.4078   0.4253   0.4591   0.4955   0.5716   0.5777   0.6108   0.6231
  0.6520   0.6642   0.6861   0.7003   0.7132   0.7710   0.8023   0.8401
  0.8526   0.8944   0.9699   0.9881   1.0191   1.0461   1.0543   1.0859
  1.0956   1.1068   1.1352   1.1415   1.1466   1.1593   1.1675   1.1812
  1.1907   1.2097   1.2483   1.2720   1.2904   1.3299   1.3585   1.3763
  1.3990   1.4418   1.4654   1.5078   1.5351   1.5474   1.5619   1.6075
  1.6227   1.6285   1.7228   1.7601   1.7724   1.8093   1.8606   1.8733
  1.9662   2.0385   2.0445   2.1170   2.1892   2.2349   2.2732   2.2950
  2.3354   2.3556   2.3877   2.5076   2.5507   2.5941   2.6472   2.7456
  2.7525   2.8410   2.8558   2.9999   3.0141   3.0457   3.1024   3.1157
  3.2016   3.2393   3.2647   3.3291   3.3813   3.4096   3.4204   3.5038
  3.5171   3.5762   3.6042   3.6403   3.6672   3.7300   3.7801   3.7932
  3.8346   3.8616   3.9407   4.0081   4.0442   4.1590   4.1906   4.2208
  4.2351   4.3148   4.4400   4.4889   4.5676   4.6439   4.6847   4.7053
  4.8221   4.8708   4.9907   5.0397   5.0722   5.0746   5.1100   5.1431
  5.1561   5.1644   5.1687   5.2012   5.2066   5.2351   5.2704   5.2905
  5.3070   5.3320   5.3788   5.4284   5.4944   5.5259   5.5548   5.5831
  5.5975   5.6591   5.7097   5.7851   5.8431   6.0800   6.0997   6.3204
  6.3680   6.4730   6.5830   6.6194   6.7460   6.8255   6.8675   6.9298
  6.9420   6.9908   7.0526   7.0833   7.1246   7.1579   7.1979   7.2728
  7.3055   7.3148   7.3727   7.4013   7.4654   7.5148   7.6460   7.7209
  7.7756   7.8295   8.0007   8.0818  24.7013  24.9463  50.4046  50.4856
 50.5844  50.6911
 
 Beta MOs
 -- Occupied --
-19.4595 -19.4081 -19.3727 -19.3668 -10.4721 -10.4577  -1.3295  -1.2152
[...]
   14    -378.7943290997      5.77e-06   Normal BFGS step
   15    -378.7943291001      3.03e-06   Normal BFGS step
   16    -378.7943291002      9.49e-07   Normal BFGS step
   17    -378.7943291002      3.53e-07   Normal BFGS step
   18    -378.7943291002      1.12e-07   Normal BFGS step
   19    -378.7943291002      4.73e-08  Convergence criterion met
 ---------------------------------------
 SCF time:   CPU 367.68s  wall 92.00s 
<S^2> =          0.753808423
(3)  G-ENP(liq) elect-nuc-pol free energy of system     -378.794329100 a.u.
(4)  G-CDS(liq) cavity-dispersion-solvent structure 
     free energy                                                3.2705 kcal/mol
(6)  G-S(liq) free energy of system                     -378.789117295 a.u.
 SCF   energy in the final basis set =     -378.7891172954
 Total energy in the final basis set =     -378.7891172954
 
 --------------------------------------------------------------
 
                    Orbital Energies (a.u.)
 --------------------------------------------------------------
 
 Alpha MOs
 -- Occupied --
-19.4692 -19.4274 -19.3712 -19.3645 -10.4717 -10.4572  -1.3553  -1.2160
 -1.1986  -1.0202  -0.8505  -0.7293  -0.6883  -0.6630  -0.6468  -0.6043
 -0.5882  -0.5666  -0.5248  -0.4943  -0.4613  -0.4172  -0.4098  -0.3858
 -- Virtual --
  0.0219   0.0360   0.0482   0.0563   0.0771   0.0998   0.1102   0.1153
  0.1306   0.1413   0.1587   0.1675   0.1753   0.2060   0.2203   0.2314
  0.2382   0.2570   0.2661   0.2732   0.2783   0.2913   0.2993   0.3077
  0.3141   0.3306   0.3434   0.3471   0.3519   0.3692   0.3850   0.4015
  0.4254   0.4471   0.4560   0.4884   0.5754   0.5845   0.6024   0.6215
  0.6560   0.6582   0.6718   0.7002   0.7148   0.7689   0.8071   0.8291
  0.8476   0.9142   0.9604   0.9780   0.9964   1.0461   1.0696   1.0802
  1.0962   1.1095   1.1180   1.1331   1.1554   1.1588   1.1761   1.1771
  1.1974   1.2016   1.2332   1.2646   1.3162   1.3349   1.3532   1.3880
  1.4084   1.4650   1.4770   1.4895   1.5323   1.5503   1.5856   1.5892
  1.6139   1.6665   1.6946   1.7306   1.7811   1.8056   1.8581   1.8832
  1.9253   2.0448   2.0950   2.1265   2.1650   2.2047   2.2754   2.3155
  2.3403   2.3805   2.4000   2.4638   2.5604   2.6201   2.6753   2.7005
  2.7767   2.8176   2.8680   2.9758   2.9909   3.0613   3.1102   3.1419
  3.1981   3.2547   3.2791   3.3322   3.3609   3.4113   3.4146   3.4699
  3.5189   3.5645   3.5953   3.6103   3.7200   3.7552   3.7923   3.8017
  3.8494   3.8650   3.9556   3.9828   4.0867   4.1324   4.1792   4.2171
  4.2387   4.3411   4.4003   4.4974   4.5629   4.6167   4.6839   4.7069
  4.8316   4.8835   4.9958   5.0367   5.0740   5.0769   5.1041   5.1449
  5.1584   5.1606   5.1800   5.1970   5.2104   5.2401   5.2757   5.2934
  5.3222   5.3250   5.3830   5.4325   5.5001   5.5217   5.5439   5.5772
  5.6022   5.6728   5.7170   5.7897   5.8834   6.0372   6.1166   6.3691
  6.3990   6.4615   6.5815   6.6390   6.7532   6.8223   6.8744   6.9276
  6.9391   6.9809   7.0508   7.0927   7.1100   7.1780   7.2146   7.2771
  7.3076   7.3227   7.3568   7.4122   7.4783   7.5264   7.6423   7.7319
  7.7673   7.8312   8.0060   8.0805  24.7086  24.9431  50.4045  50.4939
 50.5829  50.6951
 
 Beta MOs
 -- Occupied --
-19.4594 -19.4080 -19.3709 -19.3645 -10.4721 -10.4572  -1.3300  -1.2150
 -1.1971  -0.9877  -0.8419  -0.7237  -0.6806  -0.6502  -0.6356  -0.5858
 -0.5607  -0.5425  -0.5239  -0.4810  -0.4557  -0.4053  -0.3796
 -- Virtual --
 -0.0389   0.0228   0.0360   0.0485   0.0569   0.0776   0.1004   0.1111
  0.1157   0.1319   0.1425   0.1613   0.1678   0.1797   0.2077   0.2215
  0.2336   0.2407   0.2654   0.2732   0.2740   0.2794   0.2933   0.2999
  0.3096   0.3173   0.3317   0.3449   0.3493   0.3535   0.3707   0.3866
  0.4036   0.4264   0.4479   0.4569   0.4893   0.5758   0.5847   0.6028
  0.6223   0.6562   0.6585   0.6723   0.7003   0.7151   0.7715   0.8075
  0.8295   0.8488   0.9145   0.9623   0.9797   0.9984   1.0570   1.0715
  1.0858   1.1037   1.1119   1.1219   1.1427   1.1609   1.1638   1.1820
  1.1898   1.2032   1.2104   1.2378   1.2674   1.3191   1.3363   1.3554
  1.3956   1.4109   1.4757   1.4829   1.4927   1.5364   1.5611   1.5961
  1.6048   1.6255   1.6741   1.7030   1.7403   1.7958   1.8065   1.8652
  1.8892   1.9281   2.0480   2.0999   2.1315   2.1706   2.2178   2.2831
  2.3298   2.3449   2.3875   2.4016   2.4651   2.5608   2.6228   2.6842
  2.7028   2.7771   2.8180   2.8684   2.9759   2.9910   3.0621   3.1100
  3.1419   3.1984   3.2553   3.2803   3.3339   3.3618   3.4115   3.4148
  3.4703   3.5193   3.5646   3.5954   3.6102   3.7207   3.7555   3.7937
  3.8019   3.8500   3.8657   3.9559   3.9835   4.0874   4.1330   4.1795
  4.2173   4.2396   4.3415   4.4041   4.4990   4.5917   4.6256   4.6850
  4.7249   4.8555   4.8947   5.0143   5.1033   5.1171   5.1239   5.1383
  5.1593   5.1721   5.1757   5.1936   5.2277   5.2366   5.2488   5.2902
  5.2967   5.3311   5.3421   5.3944   5.4450   5.5023   5.5295   5.5475
  5.5792   5.6135   5.6832   5.7285   5.8006   5.8849   6.0410   6.1226
  6.3754   6.4062   6.5078   6.5929   6.6458   6.7676   6.8982   6.9325
  6.9568   6.9734   6.9986   7.0589   7.1139   7.1300   7.2034   7.2328
  7.2789   7.3167   7.3257   7.3975   7.4343   7.4870   7.5409   7.6451
  7.7330   7.7732   7.8401   8.0173   8.1013  24.7084  24.9430  50.4175
 50.5026  50.5838  50.6951
 --------------------------------------------------------------
 
          Ground-State Mulliken Net Atomic Charges

     Atom                 Charge (a.u.)    Spin (a.u.)
  --------------------------------------------------------
      1 C                    -0.045428      -0.005049
      2 O                    -0.392731       0.003836
      3 H                     0.261995       0.005579
      4 C                     0.157502       0.001030
      5 H                     0.191478      -0.000491
      6 O                    -0.351852       0.001993
      7 H                     0.361358       0.001024
      8 O                     0.035649       0.293975
      9 O                    -0.217970       0.698103
  --------------------------------------------------------
  Sum of atomic charges =    -0.000000
  Sum of spin   charges =     1.000000

 -----------------------------------------------------------------
                    Cartesian Multipole Moments
 -----------------------------------------------------------------
    Charge (ESU x 10^10)
                -0.0000
    Dipole Moment (Debye)
         X      -0.0238      Y      -4.8638      Z      -2.4163
       Tot       5.4310
    Quadrupole Moments (Debye-Ang)
        XX     -38.2109     XY      -0.2661     YY     -36.9648
        XZ      -0.5289     YZ       1.4105     ZZ     -33.3451
    Octopole Moments (Debye-Ang^2)
       XXX      -5.2132    XXY     -26.1467    XYY      -4.9517
       YYY     -22.2638    XXZ      -4.3629    XYZ      -5.2813
       YYZ      -7.2776    XZZ       1.2892    YZZ      -4.7263
       ZZZ     -11.0606
    Hexadecapole Moments (Debye-Ang^3)
      XXXX    -408.8776   XXXY      -2.1631   XXYY     -98.4623
      XYYY      10.9618   YYYY    -207.3611   XXXZ     -41.2959
      XXYZ       0.5835   XYYZ      -9.6558   YYYZ      12.3783
      XXZZ     -76.1679   XYZZ      -1.3734   YYZZ     -46.2997
      XZZZ     -32.0461   YZZZ      10.0445   ZZZZ     -61.0057
 -----------------------------------------------------------------
 Calculating analytic gradient of the SCF energy
 Gradient of CDS energy
            1           2           3           4           5           6
    1  -0.0025710   0.0022583  -0.0001994   0.0017996  -0.0001451  -0.0006529
    2  -0.0043531   0.0043858   0.0000922   0.0014491  -0.0001936  -0.0010706
    3   0.0021525  -0.0023429  -0.0001253   0.0005202   0.0000253  -0.0001571
            7           8           9
    1  -0.0002981  -0.0002098   0.0000185
    2  -0.0003760  -0.0000537   0.0001198
    3  -0.0000454  -0.0000518   0.0000244
 Gradient of SCF Energy
            1           2           3           4           5           6
    1  -0.0023196   0.0129564   0.0000604  -0.0050036   0.0053446   0.0017456
    2   0.0006504   0.0060086  -0.0039771   0.0061419  -0.0102789   0.0065142
    3   0.0176580   0.0141890  -0.0168372  -0.0055673   0.0015718   0.0020577
            7           8           9
    1  -0.0130416   0.0018954  -0.0016376
    2  -0.0076566  -0.0002731   0.0028705
    3  -0.0127686  -0.0002727  -0.0000306
 Max gradient component =       1.766E-02
 RMS gradient           =       7.955E-03
 Computing fast CPCM-SWIG gradient
 Updating gradient with PCM contributions...
 -- total gradient after adding PCM contribution --
---------------------------------------------------
  Atom         X              Y              Z     
---------------------------------------------------
   1       0.000050       0.000046      -0.000054
   2      -0.000038      -0.000046       0.000029
   3      -0.000006       0.000002       0.000009
   4      -0.000042      -0.000017       0.000012
   5      -0.000024      -0.000028       0.000021
   6       0.000033      -0.000007       0.000040
   7       0.000011       0.000011      -0.000029
   8       0.000013       0.000023      -0.000016
   9       0.000003       0.000016      -0.000012
---------------------------------------------------
 Number of fixed atoms: 0
 Gradient time:  CPU 50.38 s  wall 13.72 s
 Geometry Optimization Parameters
   NAtoms,    NIC,     NZ,  NCons,   NDum,   NFix, NCnnct, MaxDiis
        9      49       0       0       0       0       0       0

 Cartesian Hessian Update
 Hessian updated using BFGS update


** GEOMETRY OPTIMIZATION IN DELOCALIZED INTERNAL COORDINATES **
   Searching for a Minimum

   Optimization Cycle:  19

                       Coordinates (Angstroms)
     ATOM                X               Y               Z
      1  C        -0.0467818942   -0.2844205045   -0.2067772538
      2  O        -0.6322274007   -1.3670698018    0.4157195353
      3  H        -0.0518469837   -0.3592163502   -1.2954774014
      4  C         1.3751125558   -0.1262202853    0.3010103968
      5  H         1.8949622034   -1.0730899041    0.5015315836
      6  O         1.8977899043    0.9480379569    0.4463101043
      7  H        -1.3651885828   -1.6875295918   -0.1236875786
      8  O        -0.7421776703    0.9514407369    0.1313505952
      9  O        -1.8868869025    1.0151928884   -0.4902222097
   Point Group: c1    Number of degrees of freedom:    21


   Energy is   -378.789117295

 Hessian updated using BFGS update

 21 Hessian modes will be used to form the next step
  Hessian Eigenvalues:
     0.000947    0.004435    0.006222    0.046881    0.071434    0.081962
     0.089967    0.154601    0.163958    0.189331    0.210995    0.251429
     0.284864    0.324357    0.333371    0.346727    0.364405    0.504189
     0.561027    0.670966    1.013162

 Minimum search - taking simple RFO step
 Searching for Lamda that Minimizes Along All modes
 Value Taken    Lamda =  -0.00000016
 Step Taken.  Stepsize is  0.004972

                             Maximum     Tolerance    Cnvgd?
         Gradient           0.000071      0.000300     YES
         Displacement       0.002488      0.001200      NO
         Energy change     -0.000001      0.000001     YES


                       Distance Matrix (Angstroms)
             C (  1)   O (  2)   H (  3)   C (  4)   H (  5)   O (  6)
   O (  2)  1.379267
   H (  3)  1.091278  2.069011
   C (  4)  1.518110  2.362685  2.153897
   H (  5)  2.212255  2.545678  2.743888  1.098642
   O (  6)  2.393081  3.429526  2.922982  1.203468  2.021884
   H (  7)  1.927126  0.964825  2.205079  3.182343  3.375947  4.232983
   O (  8)  1.457827  2.338471  2.056749  2.381818  3.345185  2.658691
   O (  9)  2.270534  2.840788  2.429981  3.545351  4.432480  3.899408
             H (  7)   O (  8)
   O (  8)  2.723481
   O (  9)  2.776909  1.304138
 
 Final energy is   -378.789117295434     


 ******************************
 **  OPTIMIZATION CONVERGED  **
 ******************************

                       Coordinates (Angstroms)
     ATOM                X               Y               Z
      1  C        -0.0467818942   -0.2844205045   -0.2067772538
      2  O        -0.6322274007   -1.3670698018    0.4157195353
      3  H        -0.0518469837   -0.3592163502   -1.2954774014
      4  C         1.3751125558   -0.1262202853    0.3010103968
      5  H         1.8949622034   -1.0730899041    0.5015315836
      6  O         1.8977899043    0.9480379569    0.4463101043
      7  H        -1.3651885828   -1.6875295918   -0.1236875786
      8  O        -0.7421776703    0.9514407369    0.1313505952
      9  O        -1.8868869025    1.0151928884   -0.4902222097

Z-matrix Print:
$molecule
0 2
O 
O  1 1.304138
C  1 1.457827 2 110.462259
H  3 1.091278 1 106.695285 2 50.016578 0
O  3 1.379267 1 110.994577 2 -73.779022 0
H  5 0.964825 3 109.320202 1 85.464577 0
C  3 1.518110 1 106.311152 2 167.614129 0
H  7 1.098642 3 114.482945 1 155.947406 0
O  7 1.203468 3 122.696420 1 -25.454038 0
$end

 
 --------------------------------------------------------------
 
                    Orbital Energies (a.u.)
 --------------------------------------------------------------
 
 Alpha MOs
 -- Occupied --
-19.4692 -19.4274 -19.3712 -19.3645 -10.4717 -10.4572  -1.3553  -1.2160
 -1.1986  -1.0202  -0.8505  -0.7293  -0.6883  -0.6630  -0.6468  -0.6043
 -0.5882  -0.5666  -0.5248  -0.4943  -0.4613  -0.4172  -0.4098  -0.3858
 -- Virtual --
  0.0219   0.0360   0.0482   0.0563   0.0771   0.0998   0.1102   0.1153
  0.1306   0.1413   0.1587   0.1675   0.1753   0.2060   0.2203   0.2314
  0.2382   0.2570   0.2661   0.2732   0.2783   0.2913   0.2993   0.3077
  0.3141   0.3306   0.3434   0.3471   0.3519   0.3692   0.3850   0.4015
  0.4254   0.4471   0.4560   0.4884   0.5754   0.5845   0.6024   0.6215
  0.6560   0.6582   0.6718   0.7002   0.7148   0.7689   0.8071   0.8291
  0.8476   0.9142   0.9604   0.9780   0.9964   1.0461   1.0696   1.0802
  1.0962   1.1095   1.1180   1.1331   1.1554   1.1588   1.1761   1.1771
  1.1974   1.2016   1.2332   1.2646   1.3162   1.3349   1.3532   1.3880
  1.4084   1.4650   1.4770   1.4895   1.5323   1.5503   1.5856   1.5892
  1.6139   1.6665   1.6946   1.7306   1.7811   1.8056   1.8581   1.8832
  1.9253   2.0448   2.0950   2.1265   2.1650   2.2047   2.2754   2.3155
  2.3403   2.3805   2.4000   2.4638   2.5604   2.6201   2.6753   2.7005
  2.7767   2.8176   2.8680   2.9758   2.9909   3.0613   3.1102   3.1419
  3.1981   3.2547   3.2791   3.3322   3.3609   3.4113   3.4146   3.4699
  3.5189   3.5645   3.5953   3.6103   3.7200   3.7552   3.7923   3.8017
  3.8494   3.8650   3.9556   3.9828   4.0867   4.1324   4.1792   4.2171
  4.2387   4.3411   4.4003   4.4974   4.5629   4.6167   4.6839   4.7069
  4.8316   4.8835   4.9958   5.0367   5.0740   5.0769   5.1041   5.1449
  5.1584   5.1606   5.1800   5.1970   5.2104   5.2401   5.2757   5.2934
  5.3222   5.3250   5.3830   5.4325   5.5001   5.5217   5.5439   5.5772
  5.6022   5.6728   5.7170   5.7897   5.8834   6.0372   6.1166   6.3691
  6.3990   6.4615   6.5815   6.6390   6.7532   6.8223   6.8744   6.9276
  6.9391   6.9809   7.0508   7.0927   7.1100   7.1780   7.2146   7.2771
  7.3076   7.3227   7.3568   7.4122   7.4783   7.5264   7.6423   7.7319
  7.7673   7.8312   8.0060   8.0805  24.7086  24.9431  50.4045  50.4939
 50.5829  50.6951
 
 Beta MOs
 -- Occupied --
-19.4594 -19.4080 -19.3709 -19.3645 -10.4721 -10.4572  -1.3300  -1.2150
 -1.1971  -0.9877  -0.8419  -0.7237  -0.6806  -0.6502  -0.6356  -0.5858
 -0.5607  -0.5425  -0.5239  -0.4810  -0.4557  -0.4053  -0.3796
 -- Virtual --
 -0.0389   0.0228   0.0360   0.0485   0.0569   0.0776   0.1004   0.1111
  0.1157   0.1319   0.1425   0.1613   0.1678   0.1797   0.2077   0.2215
  0.2336   0.2407   0.2654   0.2732   0.2740   0.2794   0.2933   0.2999
  0.3096   0.3173   0.3317   0.3449   0.3493   0.3535   0.3707   0.3866
  0.4036   0.4264   0.4479   0.4569   0.4893   0.5758   0.5847   0.6028
  0.6223   0.6562   0.6585   0.6723   0.7003   0.7151   0.7715   0.8075
  0.8295   0.8488   0.9145   0.9623   0.9797   0.9984   1.0570   1.0715
  1.0858   1.1037   1.1119   1.1219   1.1427   1.1609   1.1638   1.1820
  1.1898   1.2032   1.2104   1.2378   1.2674   1.3191   1.3363   1.3554
  1.3956   1.4109   1.4757   1.4829   1.4927   1.5364   1.5611   1.5961
  1.6048   1.6255   1.6741   1.7030   1.7403   1.7958   1.8065   1.8652
  1.8892   1.9281   2.0480   2.0999   2.1315   2.1706   2.2178   2.2831
  2.3298   2.3449   2.3875   2.4016   2.4651   2.5608   2.6228   2.6842
  2.7028   2.7771   2.8180   2.8684   2.9759   2.9910   3.0621   3.1100
  3.1419   3.1984   3.2553   3.2803   3.3339   3.3618   3.4115   3.4148
  3.4703   3.5193   3.5646   3.5954   3.6102   3.7207   3.7555   3.7937
  3.8019   3.8500   3.8657   3.9559   3.9835   4.0874   4.1330   4.1795
  4.2173   4.2396   4.3415   4.4041   4.4990   4.5917   4.6256   4.6850
  4.7249   4.8555   4.8947   5.0143   5.1033   5.1171   5.1239   5.1383
  5.1593   5.1721   5.1757   5.1936   5.2277   5.2366   5.2488   5.2902
  5.2967   5.3311   5.3421   5.3944   5.4450   5.5023   5.5295   5.5475
  5.5792   5.6135   5.6832   5.7285   5.8006   5.8849   6.0410   6.1226
  6.3754   6.4062   6.5078   6.5929   6.6458   6.7676   6.8982   6.9325
  6.9568   6.9734   6.9986   7.0589   7.1139   7.1300   7.2034   7.2328
  7.2789   7.3167   7.3257   7.3975   7.4343   7.4870   7.5409   7.6451
  7.7330   7.7732   7.8401   8.0173   8.1013  24.7084  24.9430  50.4175
 50.5026  50.5838  50.6951
 --------------------------------------------------------------
 
          Ground-State Mulliken Net Atomic Charges

     Atom                 Charge (a.u.)    Spin (a.u.)
  --------------------------------------------------------
      1 C                    -0.045428      -0.005049
      2 O                    -0.392731       0.003836
      3 H                     0.261995       0.005579
      4 C                     0.157502       0.001030
      5 H                     0.191478      -0.000491
      6 O                    -0.351852       0.001993
      7 H                     0.361358       0.001024
      8 O                     0.035649       0.293975
      9 O                    -0.217970       0.698103
  --------------------------------------------------------
  Sum of atomic charges =    -0.000000
  Sum of spin   charges =     1.000000

 -----------------------------------------------------------------
                    Cartesian Multipole Moments
 -----------------------------------------------------------------
    Charge (ESU x 10^10)
                -0.0000
    Dipole Moment (Debye)
         X      -0.0238      Y      -4.8638      Z      -2.4163
       Tot       5.4310
    Quadrupole Moments (Debye-Ang)
        XX     -38.2109     XY      -0.2661     YY     -36.9648
        XZ      -0.5289     YZ       1.4105     ZZ     -33.3451
    Octopole Moments (Debye-Ang^2)
       XXX      -5.2132    XXY     -26.1467    XYY      -4.9517
       YYY     -22.2638    XXZ      -4.3629    XYZ      -5.2813
       YYZ      -7.2776    XZZ       1.2892    YZZ      -4.7263
       ZZZ     -11.0606
    Hexadecapole Moments (Debye-Ang^3)
      XXXX    -408.8776   XXXY      -2.1631   XXYY     -98.4623
      XYYY      10.9618   YYYY    -207.3611   XXXZ     -41.2959
      XXYZ       0.5835   XYYZ      -9.6558   YYYZ      12.3783
      XXZZ     -76.1679   XYZZ      -1.3734   YYZZ     -46.2997
      XZZZ     -32.0461   YZZZ      10.0445   ZZZZ     -61.0057
 -----------------------------------------------------------------
 Total job time:  2049.14s(wall), 8046.84s(cpu) 
 Fri Dec  9 17:21:04 2022

        *************************************************************
        *                                                           *
        *  Thank you very much for using Q-Chem.  Have a nice day.  *
        *                                                           *
        *************************************************************


