
Running Job 1 of 1 Q_in.in
qchem Q_in.in_35708.0 /scratch/ari.fischer/qChem2104979.hpc-mn1/qchem35708/ 0
/usr/local/qchem-5.4.1/exe/qcprog.exe_s Q_in.in_35708.0 /scratch/ari.fischer/qChem2104979.hpc-mn1/qchem35708/
                  Welcome to Q-Chem
     A Quantum Leap Into The Future Of Chemistry


 Q-Chem 5.4, Q-Chem, Inc., Pleasanton, CA (2021)

 License issued to: Nanyang Technological University (site)

 E. Epifanovsky,  A. T. B. Gilbert,  Xintian Feng,  Joonho Lee,  Yuezhi Mao,  
 N. Mardirossian,  P. Pokhilko,  A. White,  M. Wormit,  M. P. Coons,  
 A. L. Dempwolff,  Zhengting Gan,  D. Hait,  P. R. Horn,  L. D. Jacobson,  
 I. Kaliman,  J. Kussmann,  A. W. Lange,  Ka Un Lao,  D. S. Levine,  Jie Liu,  
 S. C. McKenzie,  A. F. Morrison,  K. Nanda,  F. Plasser,  D. R. Rehn,  
 M. L. Vidal,  Zhi-Qiang You,  Ying Zhu,  B. Alam,  B. Albrecht,  
 A. Aldossary,  E. Alguire,  J. H. Andersen,  D. Barton,  K. Begam,  A. Behn,  
 Y. A. Bernard,  E. J. Berquist,  H. Burton,  A. Carreras,  K. Carter-Fenk,  
 R. Chakraborty,  A. D. Chien,  K. D. Closser,  V. Cofer-Shabica,  
 S. Dasgupta,  Jia Deng,  M. de Wergifosse,  M. Diedenhofen,  Hainam Do,  
 S. Ehlert,  Po-Tung Fang,  S. Fatehi,  Qingguo Feng,  T. Friedhoff,  
 J. Gayvert,  Qinghui Ge,  G. Gidofalvi,  M. Goldey,  J. Gomes,  
 C. Gonzalez-Espinoza,  S. Gulania,  A. Gunina,  M. W. D. Hanson-Heine,  
 P. H. P. Harbach,  A. W. Hauser,  M. F. Herbst,  M. Hernandez Vera,  
 M. Hodecker,  Z. C. Holden,  S. Houck,  Xunkun Huang,  Kerwin Hui,  
 B. C. Huynh,  M. Ivanov,  Hyunjun Ji,  Hanjie Jiang,  B. Kaduk,  S. Kaehler,  
 K. Khistyaev,  Jaehoon Kim,  P. Klunzinger,  Z. Koczor-Benda,  
 Joong Hoon Koh,  D. Kosenkov,  L. Koulias,  T. Kowalczyk,  C. M. Krauter,  
 K. Kue,  A. Kunitsa,  T. Kus,  A. Landau,  K. V. Lawler,  D. Lefrancois,  
 S. Lehtola,  Rain Li,  Yi-Pei Li,  Jiashu Liang,  M. Liebenthal,  
 Hung-Hsuan Lin,  You-Sheng Lin,  Fenglai Liu,  Kuan-Yu Liu,  
 M. Loipersberger,  A. Luenser,  A. Manjanath,  P. Manohar,  E. Mansoor,  
 S. F. Manzer,  Shan-Ping Mao,  A. V. Marenich,  T. Markovich,  S. Mason,  
 S. A. Maurer,  P. F. McLaughlin,  M. F. S. J. Menger,  J.-M. Mewes,  
 S. A. Mewes,  P. Morgante,  J. W. Mullinax,  K. J. Oosterbaan,  G. Paran,  
 Alexander C. Paul,  Suranjan K. Paul,  F. Pavosevic,  Zheng Pei,  S. Prager,  
 E. I. Proynov,  E. Ramos,  B. Rana,  A. E. Rask,  A. Rettig,  R. M. Richard,  
 F. Rob,  E. Rossomme,  T. Scheele,  M. Scheurer,  M. Schneider,  
 N. Sergueev,  S. M. Sharada,  W. Skomorowski,  D. W. Small,  C. J. Stein,  
 Yu-Chuan Su,  E. J. Sundstrom,  Zhen Tao,  J. Thirman,  T. Tsuchimochi,  
 N. M. Tubman,  S. P. Veccham,  O. Vydrov,  J. Wenzel,  J. Witte,  A. Yamada,  
 Kun Yao,  S. Yeganeh,  S. R. Yost,  A. Zech,  Igor Ying Zhang,  Xing Zhang,  
 Yu Zhang,  D. Zuev,  A. Aspuru-Guzik,  A. T. Bell,  N. A. Besley,  
 K. B. Bravaya,  B. R. Brooks,  D. Casanova,  Jeng-Da Chai,  S. Coriani,  
 C. J. Cramer,  A. E. DePrince, III,  R. A. DiStasio Jr.,  A. Dreuw,  
 B. D. Dunietz,  T. R. Furlani,  W. A. Goddard III,  S. Grimme,  
 S. Hammes-Schiffer,  T. Head-Gordon,  W. J. Hehre,  Chao-Ping Hsu,  
 T.-C. Jagau,  Yousung Jung,  A. Klamt,  Jing Kong,  D. S. Lambrecht,  
 WanZhen Liang,  N. J. Mayhall,  C. W. McCurdy,  J. B. Neaton,  
 C. Ochsenfeld,  J. A. Parkhill,  R. Peverati,  V. A. Rassolov,  Yihan Shao,  
 L. V. Slipchenko,  T. Stauch,  R. P. Steele,  J. E. Subotnik,  
 A. J. W. Thom,  A. Tkatchenko,  D. G. Truhlar,  T. Van Voorhis,  
 T. A. Wesolowski,  K. B. Whaley,  H. L. Woodcock III,  P. M. Zimmerman,  
 S. Faraji,  P. M. W. Gill,  M. Head-Gordon,  J. M. Herbert,  A. I. Krylov

 Additional authors for Version 5.4.1: 
 S. Kotaru,  Shaozhi Li,  Xiangyuan Li,  F. Matz,  A. Molle,  Haisheng Ren,  
 Yingli Su,  Hung-Yi Tsai,  C. Utku,  Fang Wang

 Contributors to earlier versions of Q-Chem not listed above: 
 R. D. Adamson,  B. Austin,  R. Baer,  J. Baker,  G. J. O. Beran,  
 K. Brandhorst,  S. T. Brown,  E. F. C. Byrd,  A. K. Chakraborty,  
 G. K. L. Chan,  Chun-Min Chang,  Yunqing Chen,  C.-L. Cheng,  
 Siu Hung Chien,  D. M. Chipman,  D. L. Crittenden,  H. Dachsel,  
 R. J. Doerksen,  A. D. Dutoi,  R. G. Edgar,  J. Fosso-Tande,  
 L. Fusti-Molnar,  D. Ghosh,  A. Ghysels,  A. Golubeva-Zadorozhnaya,  
 J. Gonthier,  M. S. Gordon,  S. R. Gwaltney,  G. Hawkins,  J. E. Herr,  
 A. Heyden,  S. Hirata,  E. G. Hohenstein,  G. Kedziora,  F. J. Keil,  
 C. Kelley,  Jihan Kim,  R. A. King,  R. Z. Khaliullin,  P. P. Korambath,  
 W. Kurlancheek,  A. Laurent,  A. M. Lee,  M. S. Lee,  S. V. Levchenko,  
 Ching Yeh Lin,  D. Liotard,  E. Livshits,  R. C. Lochan,  I. Lotan,  
 L. A. Martinez-Martinez,  P. E. Maslen,  N. Nair,  D. P. O'Neill,  
 D. Neuhauser,  E. Neuscamman,  C. M. Oana,  R. Olivares-Amaya,  R. Olson,  
 T. M. Perrine,  B. Peters,  P. A. Pieniazek,  A. Prociuk,  Y. M. Rhee,  
 J. Ritchie,  M. A. Rohrdanz,  E. Rosta,  N. J. Russ,  H. F. Schaefer III,  
 M. W. Schmidt,  N. E. Schultz,  S. Sharma,  N. Shenvi,  C. D. Sherrill,  
 A. C. Simmonett,  A. Sodt,  T. Stein,  D. Stuck,  K. S. Thanthiriwatte,  
 V. Vanovschi,  L. Vogt,  Tao Wang,  A. Warshel,  M. A. Watson,  
 C. F. Williams,  Q. Wu,  X. Xu,  Jun Yang,  W. Zhang,  Yan Zhao

 Please cite Q-Chem as follows:
 Y. Shao et al., Mol. Phys. 113, 184-215 (2015)
 DOI: 10.1080/00268976.2014.952696

 Q-Chem 5.4.1 for Intel X86 EM64T Linux

 Parts of Q-Chem use Armadillo 9.800.1 (Horizon Scraper).
 http://arma.sourceforge.net/

 Q-Chem begins on Thu May 16 12:04:35 2024  

 Host: 
0

     Scratch files written to /scratch/ari.fischer/qChem2104979.hpc-mn1/qchem35708//
 Aug1521 |scratch|qcdevops|jenkins|workspace|build_RNUM 8249   
 Processing $rem in /usr/local/qchem-5.4.1/config/preferences:
 Processing $rem in /home/ari.fischer/.qchemrc:
 Symmetry turned off for PCM/SM12/SMD calculation


!!********************************************.
!!******************Warning*******************.
!!Desired Analytical derivatives not available.
!!Finite difference job might take a long time.
!!********************************************.
!!********************************************.


 2-order derivative to be evaluated numerically with 1-order analytical derivatives

 Checking the input file for inconsistencies... 	...done.

--------------------------------------------------------------
User input:
--------------------------------------------------------------
$molecule
0 2
O         5.3426432057    1.4426019749    3.6221436387
O         4.2178912959    1.0961950527    4.1842902379
C         4.3524453212    1.0745291041    5.6421328326
O         4.4558058391    2.3611291603    6.1412404909
H         3.4205024726    0.6315603924    5.9760879397
H         5.2186197102    0.4563593161    5.8629628243
H         5.3722897553    2.6530216996    6.0695486361
$end

$rem
BASIS = 6-311++G(2df,2p)
GUI = 2
JOB_TYPE = Frequency
METHOD = wB97M-V
SOLVENT_METHOD = SMD
SCF_ALGORITHM = DIIS_GDM
MAX_SCF_CYCLES = 400
SCF_CONVERGENCE = 7
THRESH = 12
$end
--------------------------------------------------------------
 ----------------------------------------------------------------
             Standard Nuclear Orientation (Angstroms)
    I     Atom           X                Y                Z
 ----------------------------------------------------------------
    1      O       5.3426432057     1.4426019749     3.6221436387
    2      O       4.2178912959     1.0961950527     4.1842902379
    3      C       4.3524453212     1.0745291041     5.6421328326
    4      O       4.4558058391     2.3611291603     6.1412404909
    5      H       3.4205024726     0.6315603924     5.9760879397
    6      H       5.2186197102     0.4563593161     5.8629628243
    7      H       5.3722897553     2.6530216996     6.0695486361
 ----------------------------------------------------------------
 Nuclear Repulsion Energy =         126.35401314 hartrees
 There are       17 alpha and       16 beta electrons
 Requested basis set is 6-311++G(2df,2p)
 There are 50 shells and 166 basis functions

 Total QAlloc Memory Limit 288000 MB
 Mega-Array Size       188 MB
 MEM_STATIC part       192 MB
 
 Citation of the SMD model:
 Marenich, A.V.; Cramer, C.J.; Truhlar, D.G.
 J. Phys. Chem. B 2009, 113, 6378-6396.
 iSolventCode=           1
 Solvent: water                                                           
 
 vradii
            1           2           3           4           5           6
    1   1.5200000   1.5200000   1.8500000   1.5200000   1.2000000   1.2000000
            7
    1   1.2000000
 Changing PCM_VDW_RADII to SMD_RADIUS
 Discretize the solute cavity surface with Lebedev spheres
	Using 110 Lebedev grid points for each H atom
	Using 194 Lebedev grid points for other atoms
	Atomic van der Waals radii will be scaled by 1.20
 Remove points where switching function is < 1.0e-08
 Keep 638 surface tesserae and discard 468 interior tesserae
 Molecular Surface Area = 78.535 Angst**2

                       Distance Matrix (Angstroms)
             O (  1)   O (  2)   C (  3)   O (  4)   H (  5)   H (  6)
   O (  2)  1.304252
   C (  3)  2.279545  1.464199
   O (  4)  2.824185  2.342289  1.383883
   H (  5)  3.145388  2.015503  1.084557  2.022507
   H (  6)  2.451393  2.056402  1.086811  2.070621  1.810171
   H (  7)  2.730529  2.703802  1.927279  0.964512  2.811497  2.211700

 
 A cutoff of  1.0D-12 yielded   1252 shell pairs
 There are     13965 function pairs (     17599 Cartesian)
 Smallest overlap matrix eigenvalue = 5.52E-04
 Guess from superposition of atomic densities
 Warning:  Energy on first SCF cycle will be non-variational
 SAD guess density has 33.000000 electrons

 -----------------------------------------------------------------------
  General SCF calculation program by
  Eric Jon Sundstrom, Paul Horn, Yuezhi Mao, Dmitri Zuev, Alec White,
  David Stuck, Shaama M.S., Shane Yost, Joonho Lee, David Small,
  Daniel Levine, Susi Lehtola, Hugh Burton, Evgeny Epifanovsky,
  Bang C. Huynh
 -----------------------------------------------------------------------
 Exchange:     0.1500 Hartree-Fock + 1.0000 wB97M-V + LR-HF
 Correlation:  1.0000 wB97M-V
 Using SG-2 standard quadrature grid
 Nonlocal Correlation:  VV10 with C = 0.0100 and b = 6.00 and scale = 1.00000
 Grid used for NLC:  SG-1 standard quadrature
 using 16 threads for integral computing
 -------------------------------------------------------
 OpenMP Integral computing Module                
 Release: version 1.0, May 2013, Q-Chem Inc. Pittsburgh 
 -------------------------------------------------------
 
 Citation of the SMD model:
 Marenich, A.V.; Cramer, C.J.; Truhlar, D.G.
 J. Phys. Chem. B 2009, 113, 6378-6396.
 iSolventCode=           1
 Solvent: water                                                           
 
 vradii
            1           2           3           4           5           6
    1   1.5200000   1.5200000   1.8500000   1.5200000   1.2000000   1.2000000
            7
    1   1.2000000
 -------------------------------------------------------
 OpenMP BLAS3 based DFT computing Module                
 Release: version 1.0, May 2013, Q-Chem Inc. Pittsburgh 
 -------------------------------------------------------
 A unrestricted SCF calculation will be
 performed using DIIS, GDM
 SCF converges when RMS gradient is below 1.0e-07
 ---------------------------------------
  Cycle       Energy         DIIS error
 ---------------------------------------
    1    -265.8999513243      1.80e-02  
    2    -265.3930570693      2.58e-03  Done DIIS. Switching to GDM
 ---------------------------------------
  Cycle       Energy        RMS Gradient
 ---------------------------------------
    1    -265.3930570693      1.01e-01   Descent step
    2    -265.4487143034      4.18e-02   Normal BFGS step
    3    -265.4634504779      2.59e-02   Normal BFGS step
    4    -265.4647352360      5.55e-03   Normal BFGS step
    5    -265.4654896629      5.43e-03   Normal BFGS step
    6    -265.4656065169      3.24e-03   Normal BFGS step
    7    -265.4656559605      1.36e-03   Normal BFGS step
    8    -265.4656652090      3.98e-04   Normal BFGS step
    9    -265.4656661671      2.10e-04   Normal BFGS step
   10    -265.4656663616      1.97e-04   Normal BFGS step
   11    -265.4656664444      1.69e-04   Normal BFGS step
   12    -265.4656665190      1.20e-04   Normal BFGS step
   13    -265.4656665895      4.37e-05   Normal BFGS step
   14    -265.4656666118      1.74e-05   Normal BFGS step
   15    -265.4656666172      6.28e-06   Normal BFGS step
   16    -265.4656666177      1.90e-06   Normal BFGS step
   17    -265.4656666178      6.09e-07   Normal BFGS step
   18    -265.4656666178      1.97e-07   Normal BFGS step
   19    -265.4656666178      5.77e-08  Convergence criterion met
 ---------------------------------------
 SCF time:   CPU 278.81s  wall 18.00s 
<S^2> =          0.753855015
(3)  G-ENP(liq) elect-nuc-pol free energy of system     -265.465666618 a.u.
(4)  G-CDS(liq) cavity-dispersion-solvent structure 
     free energy                                                1.8356 kcal/mol
(6)  G-S(liq) free energy of system                     -265.462741418 a.u.
 SCF   energy in the final basis set =     -265.4627414177
 Total energy in the final basis set =     -265.4627414177
 
 --------------------------------------------------------------
 
                    Orbital Energies (a.u.)
 --------------------------------------------------------------
 
 Alpha MOs
 -- Occupied --
-19.4607 -19.4201 -19.3613 -10.4495  -1.3459  -1.1873  -1.0083  -0.7985
 -0.6769  -0.6498  -0.6361  -0.5877  -0.5459  -0.4731  -0.4504  -0.4028
 -0.4017
 -- Virtual --
  0.0323   0.0497   0.0611   0.0805   0.1079   0.1279   0.1529   0.1617
  0.2013   0.2114   0.2211   0.2359   0.2477   0.2678   0.2723   0.2761
  0.2832   0.2950   0.3010   0.3157   0.3480   0.3584   0.3773   0.4084
  0.4275   0.5482   0.5825   0.6006   0.6336   0.6462   0.6792   0.7283
  0.7970   0.8275   0.8491   0.9556   1.0238   1.0360   1.0498   1.0655
  1.0812   1.1118   1.1240   1.1557   1.1659   1.1872   1.2060   1.2205
  1.3067   1.3465   1.3705   1.3893   1.4654   1.4977   1.5122   1.5456
  1.5582   1.5782   1.5985   1.6735   1.6945   1.8204   1.8383   2.0145
  2.0717   2.0980   2.1527   2.2484   2.3049   2.3288   2.3595   2.3897
  2.5726   2.6444   2.6631   2.8209   3.0951   3.1395   3.1846   3.2648
  3.3062   3.3584   3.4200   3.4728   3.4848   3.5274   3.6769   3.7346
  3.7982   3.8327   3.9013   3.9537   4.1319   4.2110   4.2293   4.3080
  4.3862   4.4482   4.5575   4.6906   4.8233   4.8357   4.9637   5.0361
  5.0659   5.0758   5.0784   5.1389   5.1565   5.1830   5.2308   5.2509
  5.2659   5.3049   5.3379   5.4009   5.4914   5.5697   5.6126   5.6552
  5.7179   5.8012   6.0190   6.0855   6.3613   6.4613   6.5704   6.6427
  6.8018   6.8667   6.9300   7.0379   7.0775   7.1456   7.1954   7.2671
  7.2760   7.3371   7.3955   7.4465   7.6091   7.7206   7.7885   7.9724
  8.0551  24.7169  50.4002  50.4739  50.5688
 
 Beta MOs
 -- Occupied --
-19.4507 -19.4010 -19.3610 -10.4499  -1.3201  -1.1853  -0.9740  -0.7883
 -0.6692  -0.6295  -0.6189  -0.5482  -0.5210  -0.4617  -0.4460  -0.3845
 -- Virtual --
 -0.0336   0.0328   0.0498   0.0614   0.0813   0.1090   0.1311   0.1541
  0.1640   0.2036   0.2161   0.2225   0.2392   0.2533   0.2703   0.2740
  0.2777   0.2901   0.2981   0.3029   0.3218   0.3506   0.3612   0.3792
  0.4086   0.4289   0.5487   0.5832   0.6011   0.6335   0.6463   0.6794
  0.7293   0.8003   0.8296   0.8497   0.9581   1.0260   1.0387   1.0521
  1.0780   1.1003   1.1197   1.1286   1.1621   1.1866   1.1918   1.2136
  1.2274   1.3100   1.3506   1.3731   1.3927   1.4766   1.5043   1.5210
  1.5516   1.5729   1.5862   1.6193   1.6790   1.7188   1.8344   1.8473
  2.0190   2.0766   2.1105   2.1597   2.2583   2.3229   2.3327   2.3610
  2.3968   2.5757   2.6485   2.6698   2.8222   3.0958   3.1397   3.1851
  3.2653   3.3062   3.3611   3.4200   3.4733   3.4851   3.5274   3.6784
  3.7367   3.7983   3.8330   3.9017   3.9536   4.1321   4.2117   4.2309
  4.3091   4.3885   4.4496   4.5937   4.7099   4.8409   4.8541   4.9814
  5.0725   5.1184   5.1231   5.1377   5.1679   5.1937   5.2157   5.2457
  5.2598   5.2789   5.3230   5.3612   5.4102   5.5037   5.5805   5.6170
  5.6684   5.7294   5.8108   6.0233   6.0916   6.3726   6.5087   6.5819
  6.6492   6.8864   6.9494   6.9898   7.0446   7.1159   7.1749   7.2211
  7.2729   7.2796   7.3679   7.4179   7.4794   7.6121   7.7269   7.7968
  7.9838   8.0773  24.7166  50.4128  50.4826  50.5700
 --------------------------------------------------------------
 
          Ground-State Mulliken Net Atomic Charges

     Atom                 Charge (a.u.)    Spin (a.u.)
  --------------------------------------------------------
      1 O                    -0.235812       0.686562
      2 O                     0.014146       0.307077
      3 C                    -0.125433      -0.005279
      4 O                    -0.412201       0.002753
      5 H                     0.190343      -0.000085
      6 H                     0.222991       0.007858
      7 H                     0.345967       0.001114
  --------------------------------------------------------
  Sum of atomic charges =    -0.000000
  Sum of spin   charges =     1.000000

 -----------------------------------------------------------------
                    Cartesian Multipole Moments
 -----------------------------------------------------------------
    Charge (ESU x 10^10)
                -0.0000
    Dipole Moment (Debye)
         X       0.8422      Y      -1.3203      Z       2.7506
       Tot       3.1651
    Quadrupole Moments (Debye-Ang)
        XX     -14.3173     XY      -2.1840     YY     -26.0609
        XZ      19.3454     YZ      -4.4085     ZZ       0.1456
    Octopole Moments (Debye-Ang^2)
       XXX    -251.6821    XXY     -24.6731    XYY    -106.6947
       YYY    -107.5442    XXZ      14.1939    XYZ       6.3248
       YYZ    -128.2844    XZZ      47.2045    YZZ     -53.4992
       ZZZ    -199.1837
    Hexadecapole Moments (Debye-Ang^3)
      XXXX   -2538.1500   XXXY    -331.3508   XXYY    -495.6954
      XYYY    -457.7788   YYYY    -376.9463   XXXZ    -750.0475
      XXYZ     -10.1146   XYYZ    -499.3962   YYYZ    -551.5612
      XXZZ    -109.7694   XYZZ     -73.7997   YYZZ    -736.6461
      XZZZ    -591.9868   YZZZ    -651.1660   ZZZZ   -2821.0207
 -----------------------------------------------------------------
 Calculating analytic gradient of the SCF energy
 Gradient of CDS energy
            1           2           3           4           5           6
    1  -0.0000664   0.0002319  -0.0001826  -0.0003925  -0.0001384   0.0002692
    2  -0.0000587   0.0002387   0.0044254  -0.0053115   0.0001218   0.0002120
    3  -0.0001070  -0.0001859   0.0031813  -0.0024685  -0.0002262  -0.0003601
            7
    1   0.0002788
    2   0.0003723
    3   0.0001665
 Gradient of SCF Energy
            1           2           3           4           5           6
    1   0.0007110  -0.0010129   0.0001729  -0.0163136  -0.0078116   0.0095873
    2  -0.0004343  -0.0006693   0.0129636  -0.0020130  -0.0054896  -0.0067063
    3  -0.0025129   0.0009469  -0.0078363   0.0011950   0.0035161   0.0041366
            7
    1   0.0146668
    2   0.0023490
    3   0.0005547
 Max gradient component =       1.631E-02
 RMS gradient           =       6.862E-03
 Computing fast CPCM-SWIG gradient
 Updating gradient with PCM contributions...
 -- total gradient after adding PCM contribution --
---------------------------------------------------
  Atom         X              Y              Z     
---------------------------------------------------
   1      -0.000014      -0.000047      -0.000022
   2       0.000011       0.000025       0.000031
   3      -0.000015      -0.000046      -0.000017
   4      -0.000039       0.000036       0.000005
   5      -0.000014       0.000024       0.000039
   6       0.000005       0.000004       0.000008
   7       0.000067       0.000005      -0.000044
---------------------------------------------------
 Number of fixed atoms: 0
 Gradient time:  CPU 31.07 s  wall 3.58 s
 ######################################################
 ######################################################
 # Starting finite difference calculation for IDERIV  #
 Finite diff step size:  1.88973e-03 a.u.
 ----------------------------------------------------------------
             Standard Nuclear Orientation (Angstroms)
    I     Atom           X                Y                Z
 ----------------------------------------------------------------
    1      O       5.3436432057     1.4426019749     3.6221436387
    2      O       4.2178912959     1.0961950527     4.1842902379
    3      C       4.3524453212     1.0745291041     5.6421328326
    4      O       4.4558058391     2.3611291603     6.1412404909
    5      H       3.4205024726     0.6315603924     5.9760879397
    6      H       5.2186197102     0.4563593161     5.8629628243
    7      H       5.3722897553     2.6530216996     6.0695486361
 ----------------------------------------------------------------
 Nuclear Repulsion Energy =         126.33310431 hartrees
 There are       17 alpha and       16 beta electrons
 Discretize the solute cavity surface with Lebedev spheres
	Using 110 Lebedev grid points for each H atom
	Using 194 Lebedev grid points for other atoms
	Atomic van der Waals radii will be scaled by 1.20
 Remove points where switching function is < 1.0e-08
 Keep 638 surface tesserae and discard 468 interior tesserae
 Molecular Surface Area = 78.543 Angst**2

                       Distance Matrix (Angstroms)
             O (  1)   O (  2)   C (  3)   O (  4)   H (  5)   H (  6)
   O (  2)  1.305115
   C (  3)  2.279980  1.464199
   O (  4)  2.824499  2.342289  1.383883
   H (  5)  3.145999  2.015503  1.084557  2.022507
   H (  6)  2.451444  2.056402  1.086811  2.070621  1.810171
   H (  7)  2.730518  2.703802  1.927279  0.964512  2.811497  2.211700

 
 Requested basis set is 6-311++G(2df,2p)
 There are 50 shells and 166 basis functions
 A cutoff of  1.0D-12 yielded   1252 shell pairs
 There are     13965 function pairs (     17599 Cartesian)
 Smallest overlap matrix eigenvalue = 5.53E-04
 Guess MOs from SCF MO coefficient file

 -----------------------------------------------------------------------
  General SCF calculation program by
  Eric Jon Sundstrom, Paul Horn, Yuezhi Mao, Dmitri Zuev, Alec White,
  David Stuck, Shaama M.S., Shane Yost, Joonho Lee, David Small,
  Daniel Levine, Susi Lehtola, Hugh Burton, Evgeny Epifanovsky,
  Bang C. Huynh
 -----------------------------------------------------------------------
 Exchange:     0.1500 Hartree-Fock + 1.0000 wB97M-V + LR-HF
 Correlation:  1.0000 wB97M-V
 Using SG-2 standard quadrature grid
 Nonlocal Correlation:  VV10 with C = 0.0100 and b = 6.00 and scale = 1.00000
 Grid used for NLC:  SG-1 standard quadrature
 
 Citation of the SMD model:
 Marenich, A.V.; Cramer, C.J.; Truhlar, D.G.
 J. Phys. Chem. B 2009, 113, 6378-6396.
 iSolventCode=           1
 Solvent: water                                                           
 
 vradii
            1           2           3           4           5           6
    1   1.5200000   1.5200000   1.8500000   1.5200000   1.2000000   1.2000000
            7
    1   1.2000000
 -------------------------------------------------------
 OpenMP BLAS3 based DFT computing Module                
 Release: version 1.0, May 2013, Q-Chem Inc. Pittsburgh 
 -------------------------------------------------------
 A unrestricted SCF calculation will be
 performed using Roothaan-Hall, DIIS, GDM
 SCF converges when RMS gradient is below 1.0e-07
 ---------------------------------------
  Cycle       Energy         DIIS error
 ---------------------------------------
    1    -265.4465506806      3.44e-04  Roothaan Step
 ---------------------------------------
  Cycle       Energy         DIIS error
 ---------------------------------------
    1    -265.4629042833      3.66e-04  
    2    -265.4648409888      2.89e-04  Done DIIS. Switching to GDM
 ---------------------------------------
  Cycle       Energy        RMS Gradient
 ---------------------------------------
    1    -265.4648409888      8.50e-03   Normal BFGS step
    2    -265.4646654982      1.52e-02  Line search: overstep
    3    -265.4655846754      2.74e-03   Normal BFGS step
    4    -265.4656453251      7.82e-04   Normal BFGS step
    5    -265.4656625599      7.82e-04   Normal BFGS step
    6    -265.4656652744      1.77e-04   Normal BFGS step
    7    -265.4656656422      1.98e-04   Normal BFGS step
    8    -265.4656658144      1.10e-04   Normal BFGS step
    9    -265.4656658707      2.46e-05   Normal BFGS step
   10    -265.4656658750      4.52e-06   Normal BFGS step
   11    -265.4656658754      3.35e-06   Normal BFGS step
   12    -265.4656658754      2.88e-06   Normal BFGS step
   13    -265.4656658755      2.49e-06   Normal BFGS step
   14    -265.4656658755      1.45e-06   Normal BFGS step
   15    -265.4656658755      7.20e-07   Normal BFGS step
   16    -265.4656658755      2.40e-07   Normal BFGS step
   17    -265.4656658755      7.69e-08  Convergence criterion met
 ---------------------------------------
 SCF time:   CPU 261.94s  wall 17.00s 
<S^2> =          0.753859107
(3)  G-ENP(liq) elect-nuc-pol free energy of system     -265.465665875 a.u.
(4)  G-CDS(liq) cavity-dispersion-solvent structure 
     free energy                                                1.8355 kcal/mol
(6)  G-S(liq) free energy of system                     -265.462740801 a.u.
 SCF   energy in the final basis set =     -265.4627408009
 Total energy in the final basis set =     -265.4627408009
 
 --------------------------------------------------------------
 
                    Orbital Energies (a.u.)
 --------------------------------------------------------------
 
 Alpha MOs
 -- Occupied --
-19.4607 -19.4202 -19.3613 -10.4495  -1.3454  -1.1873  -1.0084  -0.7985
 -0.6768  -0.6496  -0.6360  -0.5875  -0.5459  -0.4731  -0.4504  -0.4030
 -0.4019
 -- Virtual --
  0.0323   0.0497   0.0611   0.0805   0.1079   0.1278   0.1529   0.1616
  0.2013   0.2114   0.2211   0.2358   0.2477   0.2678   0.2723   0.2760
  0.2830   0.2950   0.3010   0.3156   0.3480   0.3583   0.3773   0.4084
  0.4276   0.5482   0.5825   0.6006   0.6336   0.6462   0.6792   0.7283
  0.7970   0.8275   0.8491   0.9557   1.0239   1.0360   1.0498   1.0654
  1.0812   1.1118   1.1241   1.1557   1.1659   1.1872   1.2061   1.2206
  1.3067   1.3465   1.3705   1.3893   1.4653   1.4978   1.5123   1.5456
  1.5582   1.5782   1.5985   1.6734   1.6944   1.8203   1.8383   2.0145
  2.0715   2.0977   2.1525   2.2478   2.3043   2.3285   2.3595   2.3894
  2.5726   2.6444   2.6632   2.8209   3.0951   3.1395   3.1846   3.2648
  3.3062   3.3584   3.4199   3.4726   3.4848   3.5273   3.6769   3.7347
  3.7982   3.8327   3.9013   3.9537   4.1319   4.2110   4.2293   4.3079
  4.3861   4.4482   4.5573   4.6905   4.8232   4.8347   4.9636   5.0361
  5.0658   5.0759   5.0785   5.1389   5.1564   5.1831   5.2306   5.2508
  5.2661   5.3048   5.3375   5.4009   5.4912   5.5692   5.6123   5.6546
  5.7173   5.8009   6.0189   6.0853   6.3614   6.4579   6.5673   6.6426
  6.8016   6.8665   6.9292   7.0378   7.0771   7.1454   7.1948   7.2669
  7.2759   7.3370   7.3954   7.4463   7.6091   7.7204   7.7884   7.9717
  8.0530  24.7168  50.3992  50.4734  50.5688
 
 Beta MOs
 -- Occupied --
-19.4506 -19.4011 -19.3610 -10.4499  -1.3196  -1.1853  -0.9741  -0.7883
 -0.6692  -0.6295  -0.6188  -0.5481  -0.5208  -0.4616  -0.4460  -0.3847
 -- Virtual --
 -0.0338   0.0328   0.0498   0.0615   0.0813   0.1090   0.1310   0.1541
  0.1639   0.2036   0.2161   0.2225   0.2391   0.2532   0.2702   0.2740
  0.2777   0.2898   0.2981   0.3029   0.3215   0.3506   0.3611   0.3792
  0.4085   0.4289   0.5487   0.5832   0.6011   0.6335   0.6463   0.6794
  0.7293   0.8003   0.8296   0.8497   0.9581   1.0260   1.0387   1.0521
  1.0780   1.1002   1.1197   1.1286   1.1621   1.1867   1.1918   1.2137
  1.2275   1.3100   1.3506   1.3731   1.3927   1.4765   1.5043   1.5210
  1.5516   1.5729   1.5862   1.6193   1.6788   1.7187   1.8343   1.8472
  2.0190   2.0764   2.1102   2.1596   2.2577   2.3224   2.3324   2.3610
  2.3965   2.5757   2.6484   2.6699   2.8222   3.0957   3.1397   3.1851
  3.2653   3.3062   3.3611   3.4200   3.4731   3.4851   3.5274   3.6783
  3.7368   3.7983   3.8330   3.9017   3.9537   4.1321   4.2117   4.2309
  4.3091   4.3885   4.4496   4.5935   4.7098   4.8397   4.8543   4.9813
  5.0723   5.1185   5.1233   5.1378   5.1679   5.1937   5.2157   5.2454
  5.2597   5.2790   5.3228   5.3607   5.4102   5.5035   5.5801   5.6169
  5.6677   5.7288   5.8104   6.0232   6.0914   6.3727   6.5052   6.5788
  6.6490   6.8863   6.9492   6.9891   7.0445   7.1155   7.1747   7.2206
  7.2728   7.2795   7.3678   7.4179   7.4793   7.6121   7.7268   7.7967
  7.9830   8.0752  24.7165  50.4118  50.4821  50.5700
 --------------------------------------------------------------
 
          Ground-State Mulliken Net Atomic Charges

     Atom                 Charge (a.u.)    Spin (a.u.)
  --------------------------------------------------------
      1 O                    -0.235456       0.686984
      2 O                     0.013728       0.306672
      3 C                    -0.125416      -0.005271
      4 O                    -0.412210       0.002746
      5 H                     0.190362      -0.000090
      6 H                     0.223021       0.007844
      7 H                     0.345970       0.001116
  --------------------------------------------------------
  Sum of atomic charges =     0.000000
  Sum of spin   charges =     1.000000

 -----------------------------------------------------------------
                    Cartesian Multipole Moments
 -----------------------------------------------------------------
    Charge (ESU x 10^10)
                -0.0000
    Dipole Moment (Debye)
         X       0.8427      Y      -1.3199      Z       2.7501
       Tot       3.1647
    Quadrupole Moments (Debye-Ang)
        XX     -14.3115     XY      -2.1804     YY     -26.0608
        XZ      19.3443     YZ      -4.4082     ZZ       0.1413
    Octopole Moments (Debye-Ang^2)
       XXX    -251.6552    XXY     -24.6487    XYY    -106.6951
       YYY    -107.5447    XXZ      14.1961    XYZ       6.3318
       YYZ    -128.2866    XZZ      47.1792    YZZ     -53.5042
       ZZZ    -199.2115
    Hexadecapole Moments (Debye-Ang^3)
      XXXX   -2538.2090   XXXY    -331.2227   XXYY    -495.7096
      XYYY    -457.7942   YYYY    -376.9486   XXXZ    -750.0577
      XXYZ     -10.0563   XYYZ    -499.4103   YYYZ    -551.5699
      XXZZ    -109.9132   XYZZ     -73.8130   YYZZ    -736.6690
      XZZZ    -592.1980   YZZZ    -651.2183   ZZZZ   -2821.1860
 -----------------------------------------------------------------
 Calculating analytic gradient of the SCF energy
 Gradient of CDS energy
            1           2           3           4           5           6
    1  -0.0000664   0.0002319  -0.0001828  -0.0003925  -0.0001384   0.0002693
    2  -0.0000587   0.0002387   0.0044254  -0.0053116   0.0001218   0.0002121
    3  -0.0001070  -0.0001859   0.0031814  -0.0024686  -0.0002262  -0.0003601
            7
    1   0.0002788
    2   0.0003723
    3   0.0001665
 Gradient of SCF Energy
            1           2           3           4           5           6
    1   0.0013829  -0.0016797   0.0001520  -0.0163081  -0.0078066   0.0095926
    2  -0.0002261  -0.0008729   0.0129547  -0.0020128  -0.0054882  -0.0067052
    3  -0.0028426   0.0012354  -0.0077809   0.0011857   0.0035188   0.0041285
            7
    1   0.0146670
    2   0.0023505
    3   0.0005551
 Max gradient component =       1.631E-02
 RMS gradient           =       6.878E-03
 Computing fast CPCM-SWIG gradient
 Updating gradient with PCM contributions...
 -- total gradient after adding PCM contribution --
---------------------------------------------------
  Atom         X              Y              Z     
---------------------------------------------------
   1       0.000666       0.000165      -0.000362
   2      -0.000662      -0.000182       0.000329
   3      -0.000038      -0.000052       0.000036
   4      -0.000034       0.000036      -0.000003
   5      -0.000010       0.000025       0.000042
   6       0.000011       0.000003       0.000001
   7       0.000067       0.000006      -0.000044
---------------------------------------------------
 Number of fixed atoms: 0
 Gradient time:  CPU 31.41 s  wall 2.42 s
 ----------------------------------------------------------------
             Standard Nuclear Orientation (Angstroms)
    I     Atom           X                Y                Z
 ----------------------------------------------------------------
    1      O       5.3416432057     1.4426019749     3.6221436387
    2      O       4.2178912959     1.0961950527     4.1842902379
    3      C       4.3524453212     1.0745291041     5.6421328326
    4      O       4.4558058391     2.3611291603     6.1412404909
    5      H       3.4205024726     0.6315603924     5.9760879397
    6      H       5.2186197102     0.4563593161     5.8629628243
    7      H       5.3722897553     2.6530216996     6.0695486361
 ----------------------------------------------------------------
 Nuclear Repulsion Energy =         126.37493829 hartrees
 There are       17 alpha and       16 beta electrons
 Discretize the solute cavity surface with Lebedev spheres
	Using 110 Lebedev grid points for each H atom
	Using 194 Lebedev grid points for other atoms
	Atomic van der Waals radii will be scaled by 1.20
 Remove points where switching function is < 1.0e-08
 Keep 638 surface tesserae and discard 468 interior tesserae
 Molecular Surface Area = 78.527 Angst**2

                       Distance Matrix (Angstroms)
             O (  1)   O (  2)   C (  3)   O (  4)   H (  5)   H (  6)
   O (  2)  1.303390
   C (  3)  2.279111  1.464199
   O (  4)  2.823871  2.342289  1.383883
   H (  5)  3.144777  2.015503  1.084557  2.022507
   H (  6)  2.451342  2.056402  1.086811  2.070621  1.810171
   H (  7)  2.730540  2.703802  1.927279  0.964512  2.811497  2.211700

 
 Requested basis set is 6-311++G(2df,2p)
 There are 50 shells and 166 basis functions
 A cutoff of  1.0D-12 yielded   1252 shell pairs
 There are     13965 function pairs (     17599 Cartesian)
 Smallest overlap matrix eigenvalue = 5.50E-04
 Guess MOs from SCF MO coefficient file

 -----------------------------------------------------------------------
  General SCF calculation program by
  Eric Jon Sundstrom, Paul Horn, Yuezhi Mao, Dmitri Zuev, Alec White,
  David Stuck, Shaama M.S., Shane Yost, Joonho Lee, David Small,
  Daniel Levine, Susi Lehtola, Hugh Burton, Evgeny Epifanovsky,
  Bang C. Huynh
 -----------------------------------------------------------------------
 Exchange:     0.1500 Hartree-Fock + 1.0000 wB97M-V + LR-HF
 Correlation:  1.0000 wB97M-V
 Using SG-2 standard quadrature grid
 Nonlocal Correlation:  VV10 with C = 0.0100 and b = 6.00 and scale = 1.00000
 Grid used for NLC:  SG-1 standard quadrature
 
 Citation of the SMD model:
 Marenich, A.V.; Cramer, C.J.; Truhlar, D.G.
 J. Phys. Chem. B 2009, 113, 6378-6396.
 iSolventCode=           1
 Solvent: water                                                           
 
 vradii
            1           2           3           4           5           6
    1   1.5200000   1.5200000   1.8500000   1.5200000   1.2000000   1.2000000
            7
    1   1.2000000
 -------------------------------------------------------
 OpenMP BLAS3 based DFT computing Module                
 Release: version 1.0, May 2013, Q-Chem Inc. Pittsburgh 
 -------------------------------------------------------
 A unrestricted SCF calculation will be
 performed using Roothaan-Hall, DIIS, GDM
 SCF converges when RMS gradient is below 1.0e-07
 ---------------------------------------
  Cycle       Energy         DIIS error
 ---------------------------------------
    1    -265.4465486311      3.44e-04  Roothaan Step
 ---------------------------------------
  Cycle       Energy         DIIS error
 ---------------------------------------
    1    -265.4629093274      3.65e-04  
    2    -265.4648463302      2.88e-04  Done DIIS. Switching to GDM
 ---------------------------------------
  Cycle       Energy        RMS Gradient
 ---------------------------------------
    1    -265.4648463302      8.32e-03   Normal BFGS step
    2    -265.4646748331      1.50e-02  Line search: overstep
    3    -265.4655845669      2.79e-03   Normal BFGS step
    4    -265.4656455330      7.77e-04   Normal BFGS step
    5    -265.4656625818      8.12e-04   Normal BFGS step
    6    -265.4656654175      1.94e-04   Normal BFGS step
    7    -265.4656658149      2.07e-04   Normal BFGS step
    8    -265.4656660083      1.09e-04   Normal BFGS step
    9    -265.4656660682      2.01e-05   Normal BFGS step
   10    -265.4656660717      5.34e-06   Normal BFGS step
   11    -265.4656660720      4.85e-06   Normal BFGS step
   12    -265.4656660721      4.40e-06   Normal BFGS step
   13    -265.4656660721      3.65e-06   Normal BFGS step
   14    -265.4656660722      1.81e-06   Normal BFGS step
   15    -265.4656660722      6.79e-07   Normal BFGS step
   16    -265.4656660722      1.96e-07   Normal BFGS step
   17    -265.4656660722      7.09e-08  Convergence criterion met
 ---------------------------------------
 SCF time:   CPU 256.61s  wall 17.00s 
<S^2> =          0.753850931
(3)  G-ENP(liq) elect-nuc-pol free energy of system     -265.465666072 a.u.
(4)  G-CDS(liq) cavity-dispersion-solvent structure 
     free energy                                                1.8357 kcal/mol
(6)  G-S(liq) free energy of system                     -265.462740746 a.u.
 SCF   energy in the final basis set =     -265.4627407465
 Total energy in the final basis set =     -265.4627407465
 
 --------------------------------------------------------------
 
                    Orbital Energies (a.u.)
 --------------------------------------------------------------
 
 Alpha MOs
 -- Occupied --
-19.4607 -19.4199 -19.3613 -10.4495  -1.3465  -1.1873  -1.0081  -0.7984
 -0.6770  -0.6499  -0.6362  -0.5878  -0.5460  -0.4731  -0.4504  -0.4026
 -0.4015
 -- Virtual --
  0.0323   0.0497   0.0611   0.0805   0.1079   0.1280   0.1529   0.1617
  0.2014   0.2114   0.2211   0.2361   0.2477   0.2679   0.2724   0.2761
  0.2835   0.2950   0.3010   0.3158   0.3480   0.3585   0.3773   0.4084
  0.4275   0.5482   0.5825   0.6006   0.6336   0.6462   0.6792   0.7283
  0.7969   0.8276   0.8491   0.9556   1.0238   1.0360   1.0498   1.0656
  1.0811   1.1118   1.1240   1.1557   1.1659   1.1872   1.2060   1.2205
  1.3067   1.3465   1.3705   1.3893   1.4655   1.4977   1.5122   1.5456
  1.5582   1.5782   1.5985   1.6737   1.6946   1.8205   1.8384   2.0146
  2.0719   2.0984   2.1528   2.2490   2.3054   2.3291   2.3595   2.3899
  2.5726   2.6444   2.6630   2.8209   3.0951   3.1396   3.1846   3.2648
  3.3063   3.3585   3.4200   3.4730   3.4848   3.5274   3.6769   3.7345
  3.7982   3.8327   3.9013   3.9537   4.1319   4.2110   4.2293   4.3080
  4.3862   4.4482   4.5576   4.6907   4.8233   4.8368   4.9638   5.0361
  5.0661   5.0757   5.0782   5.1389   5.1567   5.1829   5.2311   5.2510
  5.2658   5.3050   5.3383   5.4009   5.4916   5.5702   5.6128   5.6557
  5.7185   5.8015   6.0190   6.0856   6.3612   6.4647   6.5735   6.6429
  6.8020   6.8670   6.9307   7.0380   7.0780   7.1457   7.1959   7.2672
  7.2760   7.3372   7.3955   7.4467   7.6091   7.7207   7.7886   7.9731
  8.0571  24.7169  50.4011  50.4744  50.5688
 
 Beta MOs
 -- Occupied --
-19.4507 -19.4009 -19.3610 -10.4498  -1.3206  -1.1853  -0.9740  -0.7882
 -0.6693  -0.6296  -0.6190  -0.5483  -0.5211  -0.4617  -0.4460  -0.3844
 -- Virtual --
 -0.0334   0.0328   0.0498   0.0614   0.0813   0.1090   0.1312   0.1542
  0.1640   0.2037   0.2161   0.2225   0.2392   0.2533   0.2703   0.2740
  0.2777   0.2903   0.2982   0.3029   0.3220   0.3506   0.3613   0.3792
  0.4086   0.4288   0.5487   0.5832   0.6011   0.6336   0.6463   0.6794
  0.7293   0.8003   0.8296   0.8497   0.9581   1.0259   1.0386   1.0521
  1.0779   1.1003   1.1197   1.1285   1.1620   1.1866   1.1919   1.2136
  1.2274   1.3100   1.3507   1.3731   1.3927   1.4767   1.5043   1.5210
  1.5516   1.5729   1.5861   1.6193   1.6791   1.7189   1.8345   1.8473
  2.0191   2.0768   2.1109   2.1599   2.2589   2.3234   2.3330   2.3610
  2.3971   2.5757   2.6485   2.6697   2.8222   3.0958   3.1398   3.1851
  3.2653   3.3063   3.3612   3.4201   3.4735   3.4851   3.5275   3.6784
  3.7366   3.7983   3.8330   3.9017   3.9536   4.1321   4.2117   4.2309
  4.3091   4.3885   4.4496   4.5939   4.7100   4.8420   4.8540   4.9815
  5.0726   5.1182   5.1229   5.1376   5.1679   5.1938   5.2157   5.2459
  5.2599   5.2787   5.3232   5.3616   5.4102   5.5039   5.5809   5.6172
  5.6691   5.7300   5.8112   6.0234   6.0917   6.3724   6.5121   6.5850
  6.6494   6.8865   6.9496   6.9905   7.0447   7.1164   7.1752   7.2215
  7.2730   7.2797   7.3680   7.4180   7.4796   7.6121   7.7270   7.7968
  7.9845   8.0793  24.7166  50.4137  50.4831  50.5700
 --------------------------------------------------------------
 
          Ground-State Mulliken Net Atomic Charges

     Atom                 Charge (a.u.)    Spin (a.u.)
  --------------------------------------------------------
      1 O                    -0.236167       0.686141
      2 O                     0.014564       0.307481
      3 C                    -0.125451      -0.005286
      4 O                    -0.412193       0.002760
      5 H                     0.190323      -0.000080
      6 H                     0.222960       0.007872
      7 H                     0.345964       0.001113
  --------------------------------------------------------
  Sum of atomic charges =    -0.000000
  Sum of spin   charges =     1.000000

 -----------------------------------------------------------------
                    Cartesian Multipole Moments
 -----------------------------------------------------------------
    Charge (ESU x 10^10)
                 0.0000
    Dipole Moment (Debye)
         X       0.8416      Y      -1.3207      Z       2.7511
       Tot       3.1656
    Quadrupole Moments (Debye-Ang)
        XX     -14.3230     XY      -2.1875     YY     -26.0611
        XZ      19.3465     YZ      -4.4088     ZZ       0.1499
    Octopole Moments (Debye-Ang^2)
       XXX    -251.7086    XXY     -24.6974    XYY    -106.6942
       YYY    -107.5436    XXZ      14.1918    XYZ       6.3177
       YYZ    -128.2823    XZZ      47.2297    YZZ     -53.4943
       ZZZ    -199.1561
    Hexadecapole Moments (Debye-Ang^3)
      XXXX   -2538.0884   XXXY    -331.4785   XXYY    -495.6810
      XYYY    -457.7634   YYYY    -376.9439   XXXZ    -750.0363
      XXYZ     -10.1728   XYYZ    -499.3822   YYYZ    -551.5525
      XXZZ    -109.6259   XYZZ     -73.7864   YYZZ    -736.6234
      XZZZ    -591.7769   YZZZ    -651.1140   ZZZZ   -2820.8577
 -----------------------------------------------------------------
 Calculating analytic gradient of the SCF energy
 Gradient of CDS energy
            1           2           3           4           5           6
    1  -0.0000665   0.0002319  -0.0001825  -0.0003925  -0.0001384   0.0002691
    2  -0.0000587   0.0002387   0.0044254  -0.0053115   0.0001218   0.0002119
    3  -0.0001070  -0.0001859   0.0031812  -0.0024685  -0.0002262  -0.0003600
            7
    1   0.0002788
    2   0.0003724
    3   0.0001665
 Gradient of SCF Energy
            1           2           3           4           5           6
    1   0.0000357  -0.0003427   0.0001938  -0.0163190  -0.0078165   0.0095820
    2  -0.0006440  -0.0004644   0.0129725  -0.0020132  -0.0054910  -0.0067074
    3  -0.0021810   0.0006562  -0.0078918   0.0012043   0.0035133   0.0041446
            7
    1   0.0146667
    2   0.0023475
    3   0.0005543
 Max gradient component =       1.632E-02
 RMS gradient           =       6.855E-03
 Computing fast CPCM-SWIG gradient
 Updating gradient with PCM contributions...
 -- total gradient after adding PCM contribution --
---------------------------------------------------
  Atom         X              Y              Z     
---------------------------------------------------
   1      -0.000697      -0.000260       0.000319
   2       0.000688       0.000233      -0.000269
   3       0.000007      -0.000039      -0.000070
   4      -0.000045       0.000035       0.000014
   5      -0.000019       0.000022       0.000036
   6      -0.000002       0.000004       0.000015
   7       0.000067       0.000003      -0.000045
---------------------------------------------------
 Number of fixed atoms: 0
 Gradient time:  CPU 31.48 s  wall 2.42 s
 ----------------------------------------------------------------
             Standard Nuclear Orientation (Angstroms)
    I     Atom           X                Y                Z
 ----------------------------------------------------------------
    1      O       5.3426432057     1.4436019749     3.6221436387
    2      O       4.2178912959     1.0961950527     4.1842902379
    3      C       4.3524453212     1.0745291041     5.6421328326
    4      O       4.4558058391     2.3611291603     6.1412404909
    5      H       3.4205024726     0.6315603924     5.9760879397
    6      H       5.2186197102     0.4563593161     5.8629628243
    7      H       5.3722897553     2.6530216996     6.0695486361
 ----------------------------------------------------------------
 Nuclear Repulsion Energy =         126.34916722 hartrees
 There are       17 alpha and       16 beta electrons
 Discretize the solute cavity surface with Lebedev spheres
	Using 110 Lebedev grid points for each H atom
	Using 194 Lebedev grid points for other atoms
	Atomic van der Waals radii will be scaled by 1.20
 Remove points where switching function is < 1.0e-08
 Keep 638 surface tesserae and discard 468 interior tesserae
 Molecular Surface Area = 78.537 Angst**2

                       Distance Matrix (Angstroms)
             O (  1)   O (  2)   C (  3)   O (  4)   H (  5)   H (  6)
   O (  2)  1.304518
   C (  3)  2.279707  1.464199
   O (  4)  2.823860  2.342289  1.383883
   H (  5)  3.145646  2.015503  1.084557  2.022507
   H (  6)  2.451795  2.056402  1.086811  2.070621  1.810171
   H (  7)  2.730085  2.703802  1.927279  0.964512  2.811497  2.211700

 
 Requested basis set is 6-311++G(2df,2p)
 There are 50 shells and 166 basis functions
 A cutoff of  1.0D-12 yielded   1252 shell pairs
 There are     13965 function pairs (     17599 Cartesian)
 Smallest overlap matrix eigenvalue = 5.52E-04
 Guess MOs from SCF MO coefficient file

 -----------------------------------------------------------------------
  General SCF calculation program by
  Eric Jon Sundstrom, Paul Horn, Yuezhi Mao, Dmitri Zuev, Alec White,
  David Stuck, Shaama M.S., Shane Yost, Joonho Lee, David Small,
  Daniel Levine, Susi Lehtola, Hugh Burton, Evgeny Epifanovsky,
  Bang C. Huynh
 -----------------------------------------------------------------------
 Exchange:     0.1500 Hartree-Fock + 1.0000 wB97M-V + LR-HF
 Correlation:  1.0000 wB97M-V
 Using SG-2 standard quadrature grid
 Nonlocal Correlation:  VV10 with C = 0.0100 and b = 6.00 and scale = 1.00000
 Grid used for NLC:  SG-1 standard quadrature
 
 Citation of the SMD model:
 Marenich, A.V.; Cramer, C.J.; Truhlar, D.G.
 J. Phys. Chem. B 2009, 113, 6378-6396.
 iSolventCode=           1
 Solvent: water                                                           
 
 vradii
            1           2           3           4           5           6
    1   1.5200000   1.5200000   1.8500000   1.5200000   1.2000000   1.2000000
            7
    1   1.2000000
 -------------------------------------------------------
 OpenMP BLAS3 based DFT computing Module                
 Release: version 1.0, May 2013, Q-Chem Inc. Pittsburgh 
 -------------------------------------------------------
 A unrestricted SCF calculation will be
 performed using Roothaan-Hall, DIIS, GDM
 SCF converges when RMS gradient is below 1.0e-07
 ---------------------------------------
  Cycle       Energy         DIIS error
 ---------------------------------------
    1    -265.4465474675      3.44e-04  Roothaan Step
 ---------------------------------------
  Cycle       Energy         DIIS error
 ---------------------------------------
    1    -265.4629035108      3.66e-04  
    2    -265.4648403269      2.89e-04  Done DIIS. Switching to GDM
 ---------------------------------------
  Cycle       Energy        RMS Gradient
 ---------------------------------------
    1    -265.4648403269      8.54e-03   Normal BFGS step
    2    -265.4646646167      1.51e-02  Line search: overstep
    3    -265.4655853404      2.71e-03   Normal BFGS step
    4    -265.4656460025      7.83e-04   Normal BFGS step
    5    -265.4656632241      7.73e-04   Normal BFGS step
    6    -265.4656659315      1.71e-04   Normal BFGS step
    7    -265.4656662973      1.94e-04   Normal BFGS step
    8    -265.4656664684      1.08e-04   Normal BFGS step
    9    -265.4656665243      2.47e-05   Normal BFGS step
   10    -265.4656665287      4.83e-06   Normal BFGS step
   11    -265.4656665291      4.08e-06   Normal BFGS step
   12    -265.4656665291      3.74e-06   Normal BFGS step
   13    -265.4656665292      3.22e-06   Normal BFGS step
   14    -265.4656665292      1.75e-06   Normal BFGS step
   15    -265.4656665292      7.80e-07   Normal BFGS step
   16    -265.4656665292      1.90e-07   Normal BFGS step
   17    -265.4656665292      7.45e-08  Convergence criterion met
 ---------------------------------------
 SCF time:   CPU 256.61s  wall 17.00s 
<S^2> =          0.753856224
(3)  G-ENP(liq) elect-nuc-pol free energy of system     -265.465666529 a.u.
(4)  G-CDS(liq) cavity-dispersion-solvent structure 
     free energy                                                1.8355 kcal/mol
(6)  G-S(liq) free energy of system                     -265.462741440 a.u.
 SCF   energy in the final basis set =     -265.4627414400
 Total energy in the final basis set =     -265.4627414400
 
 --------------------------------------------------------------
 
                    Orbital Energies (a.u.)
 --------------------------------------------------------------
 
 Alpha MOs
 -- Occupied --
-19.4607 -19.4201 -19.3613 -10.4495  -1.3458  -1.1873  -1.0083  -0.7985
 -0.6769  -0.6497  -0.6360  -0.5877  -0.5459  -0.4731  -0.4504  -0.4029
 -0.4018
 -- Virtual --
  0.0323   0.0497   0.0611   0.0805   0.1079   0.1279   0.1529   0.1617
  0.2013   0.2114   0.2211   0.2359   0.2477   0.2678   0.2723   0.2760
  0.2831   0.2950   0.3010   0.3157   0.3480   0.3584   0.3773   0.4084
  0.4275   0.5482   0.5825   0.6006   0.6336   0.6462   0.6792   0.7283
  0.7970   0.8276   0.8491   0.9557   1.0238   1.0360   1.0498   1.0655
  1.0812   1.1118   1.1240   1.1557   1.1659   1.1872   1.2060   1.2205
  1.3067   1.3465   1.3705   1.3892   1.4654   1.4977   1.5123   1.5456
  1.5582   1.5782   1.5985   1.6735   1.6944   1.8203   1.8383   2.0145
  2.0716   2.0979   2.1526   2.2482   2.3047   2.3286   2.3595   2.3896
  2.5726   2.6444   2.6632   2.8210   3.0951   3.1395   3.1847   3.2648
  3.3063   3.3585   3.4199   3.4726   3.4848   3.5274   3.6769   3.7346
  3.7982   3.8327   3.9012   3.9537   4.1319   4.2110   4.2293   4.3080
  4.3861   4.4482   4.5574   4.6906   4.8233   4.8354   4.9637   5.0361
  5.0659   5.0759   5.0784   5.1389   5.1565   5.1830   5.2308   5.2508
  5.2660   5.3049   5.3379   5.4009   5.4914   5.5695   5.6125   5.6549
  5.7177   5.8011   6.0190   6.0854   6.3613   6.4603   6.5695   6.6427
  6.8018   6.8667   6.9298   7.0379   7.0774   7.1455   7.1952   7.2670
  7.2760   7.3371   7.3955   7.4464   7.6091   7.7206   7.7885   7.9722
  8.0544  24.7168  50.3999  50.4737  50.5688
 
 Beta MOs
 -- Occupied --
-19.4506 -19.4010 -19.3610 -10.4499  -1.3200  -1.1853  -0.9741  -0.7883
 -0.6692  -0.6295  -0.6189  -0.5482  -0.5209  -0.4616  -0.4460  -0.3846
 -- Virtual --
 -0.0337   0.0328   0.0498   0.0614   0.0813   0.1090   0.1311   0.1541
  0.1640   0.2036   0.2161   0.2225   0.2392   0.2533   0.2703   0.2740
  0.2777   0.2900   0.2981   0.3029   0.3217   0.3506   0.3612   0.3792
  0.4086   0.4288   0.5487   0.5832   0.6011   0.6335   0.6463   0.6794
  0.7293   0.8003   0.8296   0.8497   0.9582   1.0260   1.0387   1.0521
  1.0780   1.1002   1.1197   1.1285   1.1621   1.1866   1.1918   1.2136
  1.2274   1.3100   1.3506   1.3731   1.3927   1.4766   1.5043   1.5210
  1.5516   1.5729   1.5862   1.6193   1.6790   1.7187   1.8343   1.8472
  2.0191   2.0765   2.1104   2.1597   2.2580   2.3228   2.3326   2.3610
  2.3967   2.5757   2.6485   2.6700   2.8222   3.0957   3.1397   3.1852
  3.2652   3.3063   3.3612   3.4200   3.4732   3.4850   3.5274   3.6784
  3.7367   3.7983   3.8330   3.9016   3.9537   4.1321   4.2117   4.2309
  4.3091   4.3884   4.4496   4.5937   4.7099   4.8405   4.8541   4.9814
  5.0724   5.1184   5.1231   5.1377   5.1679   5.1937   5.2157   5.2456
  5.2597   5.2789   5.3229   5.3611   5.4102   5.5036   5.5804   5.6170
  5.6681   5.7292   5.8107   6.0233   6.0915   6.3726   6.5076   6.5810
  6.6491   6.8863   6.9493   6.9896   7.0446   7.1158   7.1748   7.2209
  7.2729   7.2796   7.3679   7.4179   7.4793   7.6121   7.7269   7.7967
  7.9835   8.0766  24.7166  50.4125  50.4825  50.5700
 --------------------------------------------------------------
 
          Ground-State Mulliken Net Atomic Charges

     Atom                 Charge (a.u.)    Spin (a.u.)
  --------------------------------------------------------
      1 O                    -0.235677       0.686677
      2 O                     0.013974       0.306959
      3 C                    -0.125440      -0.005270
      4 O                    -0.412181       0.002742
      5 H                     0.190363      -0.000087
      6 H                     0.222999       0.007865
      7 H                     0.345963       0.001113
  --------------------------------------------------------
  Sum of atomic charges =    -0.000000
  Sum of spin   charges =     1.000000

 -----------------------------------------------------------------
                    Cartesian Multipole Moments
 -----------------------------------------------------------------
    Charge (ESU x 10^10)
                -0.0000
    Dipole Moment (Debye)
         X       0.8426      Y      -1.3212      Z       2.7505
       Tot       3.1656
    Quadrupole Moments (Debye-Ang)
        XX     -14.3117     XY      -2.1891     YY     -26.0645
        XZ      19.3462     YZ      -4.4124     ZZ       0.1448
    Octopole Moments (Debye-Ang^2)
       XXX    -251.6346    XXY     -24.7046    XYY    -106.7137
       YYY    -107.5691    XXZ      14.2085    XYZ       6.3037
       YYZ    -128.2985    XZZ      47.2035    YZZ     -53.5215
       ZZZ    -199.1887
    Hexadecapole Moments (Debye-Ang^3)
      XXXX   -2537.7937   XXXY    -331.5702   XXYY    -495.8124
      XYYY    -457.9125   YYYY    -377.0591   XXXZ    -749.9062
      XXYZ     -10.2451   XYYZ    -499.4722   YYYZ    -551.6546
      XXZZ    -109.7423   XYZZ     -73.9204   YYZZ    -736.7199
      XZZZ    -592.0110   YZZZ    -651.3014   ZZZZ   -2821.0490
 -----------------------------------------------------------------
 Calculating analytic gradient of the SCF energy
 Gradient of CDS energy
            1           2           3           4           5           6
    1  -0.0000665   0.0002319  -0.0001827  -0.0003924  -0.0001384   0.0002692
    2  -0.0000587   0.0002387   0.0044252  -0.0053113   0.0001218   0.0002120
    3  -0.0001070  -0.0001859   0.0031812  -0.0024685  -0.0002262  -0.0003601
            7
    1   0.0002788
    2   0.0003723
    3   0.0001665
 Gradient of SCF Energy
            1           2           3           4           5           6
    1   0.0009190  -0.0012114   0.0001574  -0.0163087  -0.0078112   0.0095891
    2  -0.0003632  -0.0007350   0.0129544  -0.0020101  -0.0054871  -0.0067076
    3  -0.0026233   0.0010457  -0.0078202   0.0011888   0.0035199   0.0041328
            7
    1   0.0146657
    2   0.0023486
    3   0.0005563
 Max gradient component =       1.631E-02
 RMS gradient           =       6.865E-03
 Computing fast CPCM-SWIG gradient
 Updating gradient with PCM contributions...
 -- total gradient after adding PCM contribution --
---------------------------------------------------
  Atom         X              Y              Z     
---------------------------------------------------
   1       0.000198       0.000023      -0.000136
   2      -0.000191      -0.000040       0.000134
   3      -0.000029      -0.000057      -0.000001
   4      -0.000038       0.000038       0.000001
   5      -0.000014       0.000026       0.000043
   6       0.000005       0.000003       0.000005
   7       0.000068       0.000006      -0.000044
---------------------------------------------------
 Number of fixed atoms: 0
 Gradient time:  CPU 29.52 s  wall 2.23 s
 ----------------------------------------------------------------
             Standard Nuclear Orientation (Angstroms)
    I     Atom           X                Y                Z
 ----------------------------------------------------------------
    1      O       5.3426432057     1.4416019749     3.6221436387
    2      O       4.2178912959     1.0961950527     4.1842902379
    3      C       4.3524453212     1.0745291041     5.6421328326
    4      O       4.4558058391     2.3611291603     6.1412404909
    5      H       3.4205024726     0.6315603924     5.9760879397
    6      H       5.2186197102     0.4563593161     5.8629628243
    7      H       5.3722897553     2.6530216996     6.0695486361
 ----------------------------------------------------------------
 Nuclear Repulsion Energy =         126.35884368 hartrees
 There are       17 alpha and       16 beta electrons
 Discretize the solute cavity surface with Lebedev spheres
	Using 110 Lebedev grid points for each H atom
	Using 194 Lebedev grid points for other atoms
	Atomic van der Waals radii will be scaled by 1.20
 Remove points where switching function is < 1.0e-08
 Keep 638 surface tesserae and discard 468 interior tesserae
 Molecular Surface Area = 78.533 Angst**2

                       Distance Matrix (Angstroms)
             O (  1)   O (  2)   C (  3)   O (  4)   H (  5)   H (  6)
   O (  2)  1.303987
   C (  3)  2.279384  1.464199
   O (  4)  2.824511  2.342289  1.383883
   H (  5)  3.145131  2.015503  1.084557  2.022507
   H (  6)  2.450991  2.056402  1.086811  2.070621  1.810171
   H (  7)  2.730972  2.703802  1.927279  0.964512  2.811497  2.211700

 
 Requested basis set is 6-311++G(2df,2p)
 There are 50 shells and 166 basis functions
 A cutoff of  1.0D-12 yielded   1252 shell pairs
 There are     13965 function pairs (     17599 Cartesian)
 Smallest overlap matrix eigenvalue = 5.51E-04
 Guess MOs from SCF MO coefficient file

 -----------------------------------------------------------------------
  General SCF calculation program by
  Eric Jon Sundstrom, Paul Horn, Yuezhi Mao, Dmitri Zuev, Alec White,
  David Stuck, Shaama M.S., Shane Yost, Joonho Lee, David Small,
  Daniel Levine, Susi Lehtola, Hugh Burton, Evgeny Epifanovsky,
  Bang C. Huynh
 -----------------------------------------------------------------------
 Exchange:     0.1500 Hartree-Fock + 1.0000 wB97M-V + LR-HF
 Correlation:  1.0000 wB97M-V
 Using SG-2 standard quadrature grid
 Nonlocal Correlation:  VV10 with C = 0.0100 and b = 6.00 and scale = 1.00000
 Grid used for NLC:  SG-1 standard quadrature
 
 Citation of the SMD model:
 Marenich, A.V.; Cramer, C.J.; Truhlar, D.G.
 J. Phys. Chem. B 2009, 113, 6378-6396.
 iSolventCode=           1
 Solvent: water                                                           
 
 vradii
            1           2           3           4           5           6
    1   1.5200000   1.5200000   1.8500000   1.5200000   1.2000000   1.2000000
            7
    1   1.2000000
 -------------------------------------------------------
 OpenMP BLAS3 based DFT computing Module                
 Release: version 1.0, May 2013, Q-Chem Inc. Pittsburgh 
 -------------------------------------------------------
 A unrestricted SCF calculation will be
 performed using Roothaan-Hall, DIIS, GDM
 SCF converges when RMS gradient is below 1.0e-07
 ---------------------------------------
  Cycle       Energy         DIIS error
 ---------------------------------------
    1    -265.4465490373      3.44e-04  Roothaan Step
 ---------------------------------------
  Cycle       Energy         DIIS error
 ---------------------------------------
    1    -265.4629076993      3.66e-04  
    2    -265.4648446003      2.88e-04  Done DIIS. Switching to GDM
 ---------------------------------------
  Cycle       Energy        RMS Gradient
 ---------------------------------------
    1    -265.4648446003      8.33e-03   Normal BFGS step
    2    -265.4646715341      1.51e-02  Line search: overstep
    3    -265.4655852257      2.82e-03   Normal BFGS step
    4    -265.4656460528      7.81e-04   Normal BFGS step
    5    -265.4656631629      8.11e-04   Normal BFGS step
    6    -265.4656659427      1.95e-04   Normal BFGS step
    7    -265.4656663247      2.08e-04   Normal BFGS step
    8    -265.4656665079      1.12e-04   Normal BFGS step
    9    -265.4656665670      2.16e-05   Normal BFGS step
   10    -265.4656665714      1.76e-05   Normal BFGS step
   11    -265.4656665721      1.48e-05   Normal BFGS step
   12    -265.4656665725      1.18e-05   Normal BFGS step
   13    -265.4656665731      5.98e-06   Normal BFGS step
   14    -265.4656665734      2.16e-06   Normal BFGS step
   15    -265.4656665735      9.54e-07   Normal BFGS step
   16    -265.4656665735      3.85e-07   Normal BFGS step
   17    -265.4656665735      1.07e-07   Normal BFGS step
   18    -265.4656665735      3.75e-08  Convergence criterion met
 ---------------------------------------
 SCF time:   CPU 272.14s  wall 18.00s 
<S^2> =          0.753853809
(3)  G-ENP(liq) elect-nuc-pol free energy of system     -265.465666573 a.u.
(4)  G-CDS(liq) cavity-dispersion-solvent structure 
     free energy                                                1.8357 kcal/mol
(6)  G-S(liq) free energy of system                     -265.462741263 a.u.
 SCF   energy in the final basis set =     -265.4627412625
 Total energy in the final basis set =     -265.4627412625
 
 --------------------------------------------------------------
 
                    Orbital Energies (a.u.)
 --------------------------------------------------------------
 
 Alpha MOs
 -- Occupied --
-19.4607 -19.4200 -19.3613 -10.4495  -1.3461  -1.1873  -1.0082  -0.7985
 -0.6769  -0.6498  -0.6361  -0.5877  -0.5459  -0.4731  -0.4504  -0.4028
 -0.4017
 -- Virtual --
  0.0323   0.0497   0.0611   0.0805   0.1079   0.1279   0.1529   0.1617
  0.2014   0.2114   0.2211   0.2360   0.2477   0.2678   0.2724   0.2761
  0.2833   0.2950   0.3010   0.3157   0.3480   0.3584   0.3773   0.4084
  0.4276   0.5483   0.5825   0.6006   0.6336   0.6462   0.6792   0.7283
  0.7969   0.8275   0.8491   0.9556   1.0238   1.0360   1.0498   1.0655
  1.0812   1.1118   1.1241   1.1557   1.1659   1.1872   1.2060   1.2205
  1.3067   1.3466   1.3705   1.3893   1.4654   1.4977   1.5122   1.5455
  1.5582   1.5782   1.5985   1.6735   1.6946   1.8204   1.8384   2.0145
  2.0718   2.0981   2.1527   2.2486   2.3051   2.3289   2.3595   2.3898
  2.5726   2.6444   2.6629   2.8209   3.0951   3.1396   3.1846   3.2649
  3.3062   3.3584   3.4200   3.4729   3.4848   3.5274   3.6769   3.7346
  3.7982   3.8327   3.9013   3.9537   4.1320   4.2110   4.2293   4.3080
  4.3862   4.4481   4.5575   4.6907   4.8233   4.8360   4.9637   5.0361
  5.0660   5.0758   5.0783   5.1389   5.1566   5.1830   5.2309   5.2509
  5.2659   5.3049   5.3379   5.4010   5.4914   5.5698   5.6126   5.6554
  5.7181   5.8013   6.0189   6.0855   6.3613   6.4623   6.5713   6.6428
  6.8019   6.8668   6.9302   7.0380   7.0776   7.1456   7.1956   7.2671
  7.2759   7.3371   7.3955   7.4466   7.6092   7.7206   7.7885   7.9726
  8.0557  24.7169  50.4005  50.4740  50.5688
 
 Beta MOs
 -- Occupied --
-19.4507 -19.4010 -19.3610 -10.4499  -1.3203  -1.1853  -0.9740  -0.7882
 -0.6692  -0.6296  -0.6189  -0.5483  -0.5210  -0.4617  -0.4460  -0.3845
 -- Virtual --
 -0.0336   0.0328   0.0498   0.0614   0.0813   0.1090   0.1311   0.1542
  0.1640   0.2037   0.2161   0.2225   0.2392   0.2533   0.2703   0.2740
  0.2777   0.2902   0.2981   0.3029   0.3218   0.3506   0.3613   0.3792
  0.4086   0.4289   0.5487   0.5832   0.6011   0.6336   0.6463   0.6794
  0.7293   0.8003   0.8296   0.8497   0.9581   1.0260   1.0387   1.0521
  1.0779   1.1003   1.1197   1.1286   1.1621   1.1866   1.1919   1.2136
  1.2274   1.3100   1.3507   1.3731   1.3928   1.4766   1.5043   1.5210
  1.5516   1.5729   1.5862   1.6193   1.6790   1.7189   1.8345   1.8474
  2.0190   2.0767   2.1106   2.1598   2.2585   2.3231   2.3328   2.3610
  2.3970   2.5757   2.6485   2.6697   2.8222   3.0958   3.1398   3.1851
  3.2653   3.3061   3.3611   3.4200   3.4735   3.4851   3.5274   3.6784
  3.7367   3.7983   3.8330   3.9017   3.9536   4.1321   4.2116   4.2309
  4.3091   4.3885   4.4496   4.5938   4.7100   4.8413   4.8541   4.9814
  5.0725   5.1183   5.1230   5.1377   5.1679   5.1938   5.2157   5.2457
  5.2598   5.2788   5.3230   5.3612   5.4102   5.5037   5.5806   5.6171
  5.6687   5.7296   5.8109   6.0233   6.0916   6.3725   6.5097   6.5828
  6.6493   6.8864   6.9494   6.9900   7.0447   7.1160   7.1750   7.2212
  7.2729   7.2796   7.3679   7.4179   7.4795   7.6122   7.7269   7.7968
  7.9840   8.0779  24.7166  50.4131  50.4827  50.5700
 --------------------------------------------------------------
 
          Ground-State Mulliken Net Atomic Charges

     Atom                 Charge (a.u.)    Spin (a.u.)
  --------------------------------------------------------
      1 O                    -0.235946       0.686447
      2 O                     0.014318       0.307194
      3 C                    -0.125426      -0.005287
      4 O                    -0.412222       0.002764
      5 H                     0.190323      -0.000084
      6 H                     0.222983       0.007851
      7 H                     0.345971       0.001116
  --------------------------------------------------------
  Sum of atomic charges =     0.000000
  Sum of spin   charges =     1.000000

 -----------------------------------------------------------------
                    Cartesian Multipole Moments
 -----------------------------------------------------------------
    Charge (ESU x 10^10)
                -0.0000
    Dipole Moment (Debye)
         X       0.8417      Y      -1.3193      Z       2.7507
       Tot       3.1647
    Quadrupole Moments (Debye-Ang)
        XX     -14.3228     XY      -2.1789     YY     -26.0574
        XZ      19.3445     YZ      -4.4045     ZZ       0.1464
    Octopole Moments (Debye-Ang^2)
       XXX    -251.7295    XXY     -24.6414    XYY    -106.6756
       YYY    -107.5192    XXZ      14.1792    XYZ       6.3458
       YYZ    -128.2704    XZZ      47.2055    YZZ     -53.4769
       ZZZ    -199.1786
    Hexadecapole Moments (Debye-Ang^3)
      XXXX   -2538.5055   XXXY    -331.1309   XXYY    -495.5783
      XYYY    -457.6452   YYYY    -376.8335   XXXZ    -750.1883
      XXYZ      -9.9839   XYYZ    -499.3202   YYYZ    -551.4677
      XXZZ    -109.7965   XYZZ     -73.6789   YYZZ    -736.5724
      XZZZ    -591.9626   YZZZ    -651.0306   ZZZZ   -2820.9927
 -----------------------------------------------------------------
 Calculating analytic gradient of the SCF energy
 Gradient of CDS energy
            1           2           3           4           5           6
    1  -0.0000664   0.0002319  -0.0001826  -0.0003925  -0.0001384   0.0002692
    2  -0.0000587   0.0002387   0.0044256  -0.0053118   0.0001218   0.0002120
    3  -0.0001069  -0.0001859   0.0031814  -0.0024686  -0.0002262  -0.0003601
            7
    1   0.0002788
    2   0.0003724
    3   0.0001664
 Gradient of SCF Energy
            1           2           3           4           5           6
    1   0.0005031  -0.0008146   0.0001884  -0.0163184  -0.0078120   0.0095855
    2  -0.0005051  -0.0006041   0.0129727  -0.0020158  -0.0054921  -0.0067050
    3  -0.0024025   0.0008481  -0.0078524   0.0012012   0.0035122   0.0041404
            7
    1   0.0146680
    2   0.0023494
    3   0.0005531
 Max gradient component =       1.632E-02
 RMS gradient           =       6.860E-03
 Computing fast CPCM-SWIG gradient
 Updating gradient with PCM contributions...
 -- total gradient after adding PCM contribution --
---------------------------------------------------
  Atom         X              Y              Z     
---------------------------------------------------
   1      -0.000226      -0.000117       0.000091
   2       0.000213       0.000089      -0.000073
   3      -0.000002      -0.000035      -0.000032
   4      -0.000041       0.000034       0.000010
   5      -0.000014       0.000021       0.000036
   6       0.000004       0.000004       0.000011
   7       0.000066       0.000004      -0.000044
---------------------------------------------------
 Number of fixed atoms: 0
 Gradient time:  CPU 30.98 s  wall 2.39 s
 ----------------------------------------------------------------
             Standard Nuclear Orientation (Angstroms)
    I     Atom           X                Y                Z
 ----------------------------------------------------------------
    1      O       5.3426432057     1.4426019749     3.6231436387
    2      O       4.2178912959     1.0961950527     4.1842902379
    3      C       4.3524453212     1.0745291041     5.6421328326
    4      O       4.4558058391     2.3611291603     6.1412404909
    5      H       3.4205024726     0.6315603924     5.9760879397
    6      H       5.2186197102     0.4563593161     5.8629628243
    7      H       5.3722897553     2.6530216996     6.0695486361
 ----------------------------------------------------------------
 Nuclear Repulsion Energy =         126.37218597 hartrees
 There are       17 alpha and       16 beta electrons
 Discretize the solute cavity surface with Lebedev spheres
	Using 110 Lebedev grid points for each H atom
	Using 194 Lebedev grid points for other atoms
	Atomic van der Waals radii will be scaled by 1.20
 Remove points where switching function is < 1.0e-08
 Keep 638 surface tesserae and discard 468 interior tesserae
 Molecular Surface Area = 78.528 Angst**2

                       Distance Matrix (Angstroms)
             O (  1)   O (  2)   C (  3)   O (  4)   H (  5)   H (  6)
   O (  2)  1.303821
   C (  3)  2.278659  1.464199
   O (  4)  2.823293  2.342289  1.383883
   H (  5)  3.144640  2.015503  1.084557  2.022507
   H (  6)  2.450479  2.056402  1.086811  2.070621  1.810171
   H (  7)  2.729632  2.703802  1.927279  0.964512  2.811497  2.211700

 
 Requested basis set is 6-311++G(2df,2p)
 There are 50 shells and 166 basis functions
 A cutoff of  1.0D-12 yielded   1252 shell pairs
 There are     13965 function pairs (     17599 Cartesian)
 Smallest overlap matrix eigenvalue = 5.51E-04
 Guess MOs from SCF MO coefficient file

 -----------------------------------------------------------------------
  General SCF calculation program by
  Eric Jon Sundstrom, Paul Horn, Yuezhi Mao, Dmitri Zuev, Alec White,
  David Stuck, Shaama M.S., Shane Yost, Joonho Lee, David Small,
  Daniel Levine, Susi Lehtola, Hugh Burton, Evgeny Epifanovsky,
  Bang C. Huynh
 -----------------------------------------------------------------------
 Exchange:     0.1500 Hartree-Fock + 1.0000 wB97M-V + LR-HF
 Correlation:  1.0000 wB97M-V
 Using SG-2 standard quadrature grid
 Nonlocal Correlation:  VV10 with C = 0.0100 and b = 6.00 and scale = 1.00000
 Grid used for NLC:  SG-1 standard quadrature
 
 Citation of the SMD model:
 Marenich, A.V.; Cramer, C.J.; Truhlar, D.G.
 J. Phys. Chem. B 2009, 113, 6378-6396.
 iSolventCode=           1
 Solvent: water                                                           
 
 vradii
            1           2           3           4           5           6
    1   1.5200000   1.5200000   1.8500000   1.5200000   1.2000000   1.2000000
            7
    1   1.2000000
 -------------------------------------------------------
 OpenMP BLAS3 based DFT computing Module                
 Release: version 1.0, May 2013, Q-Chem Inc. Pittsburgh 
 -------------------------------------------------------
 A unrestricted SCF calculation will be
 performed using Roothaan-Hall, DIIS, GDM
 SCF converges when RMS gradient is below 1.0e-07
 ---------------------------------------
  Cycle       Energy         DIIS error
 ---------------------------------------
    1    -265.4465533707      3.44e-04  Roothaan Step
 ---------------------------------------
  Cycle       Energy         DIIS error
 ---------------------------------------
    1    -265.4629077486      3.66e-04  
    2    -265.4648444655      2.88e-04  Done DIIS. Switching to GDM
 ---------------------------------------
  Cycle       Energy        RMS Gradient
 ---------------------------------------
    1    -265.4648444655      8.43e-03   Normal BFGS step
    2    -265.4646721455      1.50e-02  Line search: overstep
    3    -265.4655849457      2.73e-03   Normal BFGS step
    4    -265.4656456979      7.79e-04   Normal BFGS step
    5    -265.4656627905      7.88e-04   Normal BFGS step
    6    -265.4656655582      1.78e-04   Normal BFGS step
    7    -265.4656659359      1.98e-04   Normal BFGS step
    8    -265.4656661160      1.08e-04   Normal BFGS step
    9    -265.4656661738      2.27e-05   Normal BFGS step
   10    -265.4656661778      7.43e-06   Normal BFGS step
   11    -265.4656661782      6.67e-06   Normal BFGS step
   12    -265.4656661783      5.97e-06   Normal BFGS step
   13    -265.4656661784      4.67e-06   Normal BFGS step
   14    -265.4656661785      2.07e-06   Normal BFGS step
   15    -265.4656661785      6.62e-07   Normal BFGS step
   16    -265.4656661785      1.91e-07   Normal BFGS step
   17    -265.4656661785      8.00e-08  Convergence criterion met
 ---------------------------------------
 SCF time:   CPU 258.23s  wall 17.00s 
<S^2> =          0.753852689
(3)  G-ENP(liq) elect-nuc-pol free energy of system     -265.465666179 a.u.
(4)  G-CDS(liq) cavity-dispersion-solvent structure 
     free energy                                                1.8355 kcal/mol
(6)  G-S(liq) free energy of system                     -265.462741181 a.u.
 SCF   energy in the final basis set =     -265.4627411805
 Total energy in the final basis set =     -265.4627411805
 
 --------------------------------------------------------------
 
                    Orbital Energies (a.u.)
 --------------------------------------------------------------
 
 Alpha MOs
 -- Occupied --
-19.4607 -19.4200 -19.3613 -10.4495  -1.3462  -1.1873  -1.0082  -0.7985
 -0.6769  -0.6499  -0.6361  -0.5878  -0.5460  -0.4731  -0.4504  -0.4027
 -0.4016
 -- Virtual --
  0.0323   0.0497   0.0611   0.0805   0.1079   0.1280   0.1529   0.1617
  0.2013   0.2114   0.2211   0.2360   0.2477   0.2679   0.2724   0.2761
  0.2833   0.2950   0.3010   0.3158   0.3480   0.3585   0.3773   0.4084
  0.4275   0.5483   0.5825   0.6006   0.6336   0.6462   0.6792   0.7283
  0.7970   0.8275   0.8491   0.9557   1.0238   1.0360   1.0498   1.0656
  1.0811   1.1118   1.1241   1.1557   1.1659   1.1872   1.2060   1.2205
  1.3066   1.3465   1.3705   1.3893   1.4654   1.4977   1.5123   1.5456
  1.5582   1.5782   1.5986   1.6736   1.6945   1.8206   1.8385   2.0147
  2.0719   2.0983   2.1529   2.2487   2.3051   2.3289   2.3595   2.3897
  2.5729   2.6443   2.6630   2.8211   3.0951   3.1396   3.1846   3.2649
  3.3063   3.3585   3.4200   3.4728   3.4848   3.5274   3.6770   3.7346
  3.7982   3.8327   3.9013   3.9538   4.1320   4.2110   4.2293   4.3080
  4.3862   4.4482   4.5575   4.6907   4.8232   4.8361   4.9637   5.0361
  5.0659   5.0758   5.0784   5.1390   5.1566   5.1830   5.2311   5.2509
  5.2659   5.3051   5.3382   5.4009   5.4916   5.5700   5.6127   5.6554
  5.7184   5.8015   6.0190   6.0856   6.3613   6.4629   6.5717   6.6429
  6.8020   6.8670   6.9304   7.0381   7.0778   7.1457   7.1958   7.2672
  7.2760   7.3373   7.3957   7.4465   7.6091   7.7205   7.7885   7.9727
  8.0562  24.7169  50.4007  50.4742  50.5689
 
 Beta MOs
 -- Occupied --
-19.4507 -19.4009 -19.3610 -10.4498  -1.3204  -1.1853  -0.9740  -0.7883
 -0.6693  -0.6296  -0.6189  -0.5483  -0.5210  -0.4617  -0.4460  -0.3845
 -- Virtual --
 -0.0335   0.0328   0.0498   0.0614   0.0813   0.1090   0.1312   0.1542
  0.1640   0.2036   0.2160   0.2225   0.2392   0.2533   0.2703   0.2740
  0.2777   0.2902   0.2981   0.3029   0.3218   0.3506   0.3613   0.3792
  0.4086   0.4288   0.5488   0.5832   0.6011   0.6336   0.6463   0.6794
  0.7293   0.8003   0.8296   0.8497   0.9582   1.0260   1.0386   1.0520
  1.0780   1.1003   1.1197   1.1286   1.1621   1.1866   1.1918   1.2136
  1.2274   1.3100   1.3506   1.3731   1.3928   1.4766   1.5043   1.5210
  1.5516   1.5729   1.5862   1.6194   1.6791   1.7189   1.8347   1.8474
  2.0193   2.0768   2.1108   2.1599   2.2586   2.3232   2.3328   2.3610
  2.3969   2.5759   2.6484   2.6697   2.8224   3.0957   3.1398   3.1851
  3.2653   3.3063   3.3612   3.4200   3.4734   3.4851   3.5275   3.6784
  3.7367   3.7983   3.8330   3.9017   3.9537   4.1321   4.2117   4.2309
  4.3091   4.3885   4.4496   4.5938   4.7100   4.8414   4.8540   4.9813
  5.0724   5.1183   5.1230   5.1377   5.1679   5.1938   5.2157   5.2459
  5.2599   5.2788   5.3232   5.3615   5.4102   5.5039   5.5807   5.6172
  5.6687   5.7299   5.8112   6.0233   6.0917   6.3725   6.5103   6.5831
  6.6494   6.8865   6.9496   6.9902   7.0448   7.1162   7.1751   7.2214
  7.2730   7.2797   7.3680   7.4182   7.4794   7.6121   7.7269   7.7967
  7.9841   8.0784  24.7166  50.4133  50.4829  50.5701
 --------------------------------------------------------------
 
          Ground-State Mulliken Net Atomic Charges

     Atom                 Charge (a.u.)    Spin (a.u.)
  --------------------------------------------------------
      1 O                    -0.235997       0.686394
      2 O                     0.014449       0.307251
      3 C                    -0.125549      -0.005284
      4 O                    -0.412197       0.002747
      5 H                     0.190309      -0.000082
      6 H                     0.223018       0.007858
      7 H                     0.345967       0.001116
  --------------------------------------------------------
  Sum of atomic charges =     0.000000
  Sum of spin   charges =     1.000000

 -----------------------------------------------------------------
                    Cartesian Multipole Moments
 -----------------------------------------------------------------
    Charge (ESU x 10^10)
                 0.0000
    Dipole Moment (Debye)
         X       0.8412      Y      -1.3205      Z       2.7492
       Tot       3.1638
    Quadrupole Moments (Debye-Ang)
        XX     -14.3272     XY      -2.1870     YY     -26.0611
        XZ      19.3358     YZ      -4.4109     ZZ       0.1340
    Octopole Moments (Debye-Ang^2)
       XXX    -251.7556    XXY     -24.6958    XYY    -106.6986
       YYY    -107.5440    XXZ      14.1256    XYZ       6.3070
       YYZ    -128.2920    XZZ      47.1424    YZZ     -53.5143
       ZZZ    -199.2784
    Hexadecapole Moments (Debye-Ang^3)
      XXXX   -2538.6341   XXXY    -331.5004   XXYY    -495.7288
      XYYY    -457.7840   YYYY    -376.9452   XXXZ    -750.5278
      XXYZ     -10.2390   XYYZ    -499.4471   YYYZ    -551.5853
      XXZZ    -110.1599   XYZZ     -73.8947   YYZZ    -736.7002
      XZZZ    -592.4410   YZZZ    -651.2753   ZZZZ   -2821.7523
[...]


     2 Order 1, Length 21
    Atom      X          Y          Z
     1   -3.571795118068247e-01  -1.066900321750337e-01   1.213089020558678e-01
     2    4.442368325639621e-01   1.193274820790243e-01  -9.269303535053117e-02
     3   -9.090666119335458e-02  -5.588281663634941e-03  -2.682441953447047e-02
     4    3.369012337895708e-03  -7.117887638605389e-03  -4.241387440056895e-03
     5    2.887803933450651e-03  -2.773965494191794e-03   3.218217812425872e-02
     6   -2.434378584295048e-03   2.987046210795982e-03  -2.789946586210599e-02
     7    2.707466514270110e-05  -1.439748542844549e-04  -1.831278950265380e-03

Order 1, Length 21
    Atom      X          Y          Z
     1   -1.098283312349509e-01  -3.428262393630507e-02   4.126175248221366e-02
     2    1.193274820790243e-01   8.441502870009830e-02  -4.255696836176606e-02
     3   -5.717639508551737e-03  -4.567662071444153e-02   1.346190467197235e-02
     4   -4.602444192624236e-03  -8.267833900723522e-03  -4.143938068367509e-02
     5    1.540831582474726e-03   3.150925108048798e-04   1.204951468266606e-02
     6   -8.938033358653815e-04   3.311158863697804e-03   1.812927790592414e-02
     7    1.756562078748981e-04   1.863384426187915e-04  -9.128851002279312e-04

Order 1, Length 21
    Atom      X          Y          Z
     1    1.582739717217307e-01   5.465990647551601e-02  -1.255247100521940e-01
     2   -9.269303535053117e-02  -4.255696836176606e-02   3.332155833175843e-01
     3   -5.899440538456269e-02   2.525885335074873e-02  -1.107741854567506e-01
     4   -5.447497350808008e-03  -4.502938580745204e-02  -4.441158328225313e-02
     5   -2.758923279541798e-03   3.610105276841365e-03  -1.784307604508590e-02
     6   -1.081772459017534e-03   3.425732216818317e-03  -3.384828665459508e-02
     7    2.701608835806911e-03   6.311694439035648e-04  -8.145653000780973e-04


     3 Order 1, Length 21
    Atom      X          Y          Z
     1   -1.208952608277917e-02  -7.285699616639912e-03   5.862371991043684e-02
     2   -9.090666119335458e-02  -5.717639508551737e-03  -5.899440538456269e-02
     3    7.272128836716937e-01   1.236300072367148e-02  -3.290184313140831e-02
     4   -1.065791775733708e-01   1.468534922961223e-02   1.681142287280033e-02
     5   -2.729881790450106e-01  -8.197085027513995e-02   6.791583332262816e-02
     6   -2.420966211294108e-01   1.128767462841640e-01  -3.531899227496821e-02
     7   -2.552201331180347e-03  -4.495074867796933e-02  -1.613718663419068e-02

Order 1, Length 21
    Atom      X          Y          Z
     1   -3.616061243266624e-03  -5.759251663687922e-03   1.841976706330811e-02
     2   -5.588281663634941e-03  -4.567662071444153e-02   2.525885335074873e-02
     3    1.236300072367148e-02   5.537773856511217e-01  -5.033455556995452e-02
     4   -3.446286531329346e-02  -2.534122149245293e-01  -5.649186979047713e-02
     5   -9.405040187984848e-02  -9.255771462350318e-02   3.796178500056321e-02
     6    1.237313247739300e-01  -1.327758585088437e-01   3.464523912694921e-02
     7    1.622350613493262e-03  -2.359541886545385e-02  -9.454895034182047e-03

Order 1, Length 21
    Atom      X          Y          Z
     1    2.816491437600262e-02   8.104854854963111e-03  -3.096620287116427e-02
     2   -2.682441953447047e-02   1.346190467197235e-02  -1.107741854567506e-01
     3   -3.290184313140831e-02  -5.033455556995452e-02   3.387489660358143e-01
     4    4.143510142128155e-04  -3.537948227029930e-02  -6.568041531259611e-02
     5    7.987804869055370e-02   3.247253184088628e-02  -7.457917642219078e-02
     6   -4.652467385337343e-02   3.097373681671723e-02  -5.425701209412183e-02
     7   -2.207211408050061e-03   7.003018602304669e-04  -2.491367136042400e-03


     4 Order 1, Length 21
    Atom      X          Y          Z
     1    3.010608712150052e-03   8.871127918564898e-04  -3.819973755158537e-04
     2    3.369012337895708e-03  -4.602444192624236e-03  -5.447497350808008e-03
     3   -1.065791775733708e-01  -3.446286531329346e-02   4.143510142128155e-04
     4    5.623240091503944e-01   1.489178859780971e-01  -3.988167715632798e-02
     5    2.230009121886986e-03  -3.478144995558587e-02  -1.495010745934036e-02
     6    1.016345096638279e-02   2.370630252284141e-02   8.863651240087821e-03
     7   -4.745175018236389e-01  -9.966433922527160e-02   5.138325869994377e-02

Order 1, Length 21
    Atom      X          Y          Z
     1    9.787187575975058e-05   1.140213411869879e-03   1.981210266078405e-03
     2   -7.117887638605389e-03  -8.267833900723522e-03  -4.502938580745204e-02
     3    1.468534922961223e-02  -2.534122149245293e-01  -3.537948227029930e-02
     4    1.489178859780971e-01   3.866049545975713e-01   1.057102445216646e-01
     5   -4.506655700902993e-03  -2.208290663603631e-02  -1.273053777687242e-02
     6   -3.523424702788328e-03  -3.284854610753348e-02  -1.793704026067224e-02
     7   -1.485526636065791e-01  -7.113171217552017e-02   3.385440355261179e-03

Order 1, Length 21
    Atom      X          Y          Z
     1   -4.266851229390152e-03  -2.569995419597381e-03   3.762601558239158e-03
     2   -4.241387440056895e-03  -4.143938068367509e-02  -4.441158328225313e-02
     3    1.681142287280033e-02  -5.649186979047713e-02  -6.568041531259611e-02
     4   -3.988167715632798e-02   1.057102445216646e-01   1.106530728961205e-01
     5   -3.067942781330327e-03   3.463268142918855e-03   3.745332672607444e-03
     6    3.008715228222145e-04  -1.590331713033942e-03   5.796018905114463e-03
     7    3.434565494990401e-02  -7.081297333308763e-03  -1.386412858760388e-02


     5 Order 1, Length 21
    Atom      X          Y          Z
     1    2.316997260424629e-03   6.723482110494718e-05  -6.863034200311883e-04
     2    2.887803933450651e-03   1.540831582474726e-03  -2.758923279541798e-03
     3   -2.729881790450106e-01  -9.405040187984848e-02   7.987804869055370e-02
     4    2.230009121886986e-03  -4.506655700902993e-03  -3.067942781330327e-03
     5    2.768716568716267e-01   1.054919162479978e-01  -8.156266871198606e-02
     6   -1.380133390478884e-02  -8.866837928912664e-03   7.281943795850218e-03
     7    2.482625564354531e-03   3.229651223001912e-04   9.157299034741365e-04

Order 1, Length 21
    Atom      X          Y          Z
     1    5.953376270965201e-04   1.479512920762697e-03  -6.289169527318303e-04
     2   -2.773965494191794e-03   3.150925108048798e-04   3.610105276841365e-03
     3   -8.197085027513995e-02  -9.255771462350318e-02   3.247253184088628e-02
     4   -3.478144995558587e-02  -2.208290663603631e-02   3.463268142918855e-03
     5    1.054919162479978e-01   1.082492885995480e-01  -3.256729418456739e-02
     6    1.282405911566991e-02   9.770338542909325e-03  -5.880982896593938e-03
     7    6.148234550979043e-04  -5.174025182174292e-03  -4.689704439939738e-04

Order 1, Length 21
    Atom      X          Y          Z
     1    1.495384949828215e-03   1.807452033303872e-03  -1.004459971829379e-02
     2    3.218217812425872e-02   1.204951468266606e-02  -1.784307604508590e-02
     3    6.791583332262816e-02   3.796178500056321e-02  -7.457917642219078e-02
     4   -1.495010745934036e-02  -1.273053777687242e-02   3.745332672607444e-03
     5   -8.156266871198606e-02  -3.256729418456739e-02   9.133819253999306e-02
     6   -5.772287678873301e-03  -3.310319077965227e-03   5.665931612452137e-03
     7    6.919614115493892e-04  -3.210228569264787e-03   1.717277432536076e-03


     6 Order 1, Length 21
    Atom      X          Y          Z
     1    3.283178002258662e-03   1.856036909509254e-04   1.556177130361582e-03
     2   -2.434378584295048e-03  -8.938033358653815e-04  -1.081772459017534e-03
     3   -2.420966211294108e-01   1.237313247739300e-01  -4.652467385337343e-02
     4    1.016345096638279e-02  -3.523424702788328e-03   3.008715228222145e-04
     5   -1.380133390478884e-02   1.282405911566991e-02  -5.772287678873301e-03
     6    2.430037695373864e-01  -1.323528032897973e-01   5.037846854209051e-02
     7    1.881984745547073e-03   2.935036827462119e-05   1.143423606669732e-03

Order 1, Length 21
    Atom      X          Y          Z
     1   -3.059104082425858e-04  -2.093967916273536e-04  -7.939957074682611e-04
     2    2.987046210795982e-03   3.311158863697804e-03   3.425732216818317e-03
     3    1.128767462841640e-01  -1.327758585088437e-01   3.097373681671723e-02
     4    2.370630252284141e-02  -3.284854610753348e-02  -1.590331713033942e-03
     5   -8.866837928912664e-03   9.770338542909325e-03  -3.310319077965227e-03
     6   -1.323528032897973e-01   1.505343753828214e-01  -2.851131311078935e-02
     7    1.955507260023480e-03   2.217314662830094e-03  -1.939290341117071e-04

Order 1, Length 21
    Atom      X          Y          Z
     1   -3.867216695402739e-03  -1.728125081315503e-03   5.470046731490021e-03
     2   -2.789946586210599e-02   1.812927790592414e-02  -3.384828665459508e-02
     3   -3.531899227496821e-02   3.464523912694921e-02  -5.425701209412183e-02
     4    8.863651240087821e-03  -1.793704026067224e-02   5.796018905114463e-03
     5    7.281943795850218e-03  -5.880982896593938e-03   5.665931612452137e-03
     6    5.037846854209051e-02  -2.851131311078935e-02   7.209726285193439e-02
     7    5.617764079787841e-04   1.283168119690119e-03  -9.242043823743453e-04


     7 Order 1, Length 21
    Atom      X          Y          Z
     1   -1.535010338283327e-05   5.018294232701545e-04  -1.816228123467824e-04
     2    2.707466514270110e-05   1.756562078748981e-04   2.701608835806911e-03
     3   -2.552201331180347e-03   1.622350613493262e-03  -2.207211408050061e-03
     4   -4.745175018236389e-01  -1.485526636065791e-01   3.434565494990401e-02
     5    2.482625564354531e-03   6.148234550979043e-04   6.919614115493892e-04
     6    1.881984745547073e-03   1.955507260023480e-03   5.617764079787841e-04
     7    4.726929555304373e-01   1.436825993693290e-01  -3.591173773909834e-02

Order 1, Length 21
    Atom      X          Y          Z
     1    7.240480310172510e-04   4.272066877955444e-04  -2.199848291789236e-05
     2   -1.439748542844549e-04   1.863384426187915e-04   6.311694439035648e-04
     3   -4.495074867796933e-02  -2.359541886545385e-02   7.003018602304669e-04
     4   -9.966433922527160e-02  -7.113171217552017e-02  -7.081297333308763e-03
     5    3.229651223001912e-04  -5.174025182174292e-03  -3.210228569264787e-03
     6    2.935036827462119e-05   2.217314662830094e-03   1.283168119690119e-03
     7    1.436825993693290e-01   9.707010510633816e-02   7.698915784225126e-03

Order 1, Length 21
    Atom      X          Y          Z
     1    4.378405886507918e-04  -5.371907367043257e-05   8.251721714747542e-04
     2   -1.831278950265380e-03  -9.128851002279312e-04  -8.145653000780973e-04
     3   -1.613718663419068e-02  -9.454895034182047e-03  -2.491367136042400e-03
     4    5.138325869994377e-02   3.385440355261179e-03  -1.386412858760388e-02
     5    9.157299034741365e-04  -4.689704439939738e-04   1.717277432536076e-03
     6    1.143423606669732e-03  -1.939290341117071e-04  -9.242043823743453e-04
     7   -3.591173773909834e-02   7.698915784225126e-03   1.555177612712784e-02




 # Finishing finite difference calculation for IDERIV #
 ######################################################
 ######################################################
 Requested basis set is 6-311++G(2df,2p)
 There are 50 shells and 166 basis functions
 **********************************************************************
 **                                                                  **
 **                       VIBRATIONAL ANALYSIS                       **
 **                       --------------------                       **
 **                                                                  **
 **        VIBRATIONAL FREQUENCIES (CM**-1) AND NORMAL MODES         **
 **     FORCE CONSTANTS (mDYN/ANGSTROM) AND REDUCED MASSES (AMU)     **
 **                  INFRARED INTENSITIES (KM/MOL)                   **
 **                                                                  **
 **********************************************************************
 

 Mode:                 1                      2                      3
 Frequency:       109.48                 338.62                 440.64
 Force Cnst:      0.0365                 0.1046                 0.2505
 Red. Mass:       5.1685                 1.5477                 2.1897
 IR Active:          YES                    YES                    YES
 IR Intens:       10.870                141.866                102.532
 Raman Active:       YES                    YES                    YES
               X      Y      Z        X      Y      Z        X      Y      Z
 O         -0.058  0.290  0.165   -0.024 -0.001 -0.134   -0.008 -0.014  0.130
 O          0.033 -0.262 -0.004    0.064 -0.067 -0.008   -0.083  0.088  0.037
 C         -0.173 -0.033  0.028   -0.026  0.053  0.030    0.094 -0.064 -0.032
 O          0.183  0.016 -0.191   -0.019  0.039  0.060   -0.018  0.002 -0.187
 H         -0.354  0.305 -0.030   -0.094  0.089 -0.109    0.217 -0.232  0.093
 H         -0.398 -0.270  0.256   -0.088  0.014  0.156    0.232  0.094 -0.151
 H          0.299 -0.322 -0.069    0.146 -0.285  0.894    0.155 -0.328  0.769
 TransDip  -0.048 -0.084  0.042    0.071 -0.065  0.369    0.123 -0.152  0.259

 Mode:                 4                      5                      6
 Frequency:       601.92                 854.44                1054.17
 Force Cnst:      1.0974                 2.7864                 0.9306
 Red. Mass:       5.1408                 6.4778                 1.4213
 IR Active:          YES                    YES                    YES
 IR Intens:       18.540                170.204                147.125
 Raman Active:       YES                    YES                    YES
               X      Y      Z        X      Y      Z        X      Y      Z
 O         -0.012  0.015 -0.198    0.102  0.028 -0.044   -0.028 -0.009  0.036
 O          0.152  0.214  0.240   -0.111  0.024 -0.359   -0.026  0.006 -0.047
 C         -0.065 -0.178  0.210   -0.024 -0.058  0.529    0.139  0.043  0.031
 O         -0.052 -0.068 -0.210    0.005  0.004 -0.038   -0.015 -0.071 -0.031
 H         -0.290  0.057 -0.088    0.091 -0.195  0.658   -0.159  0.537 -0.147
 H         -0.278 -0.370  0.541    0.214  0.121  0.053   -0.216 -0.406  0.185
 H         -0.037 -0.134 -0.286    0.047 -0.117 -0.021   -0.192  0.534  0.252
 TransDip  -0.028 -0.089  0.102   -0.031  0.035  0.415    0.027  0.326  0.210

 Mode:                 7                      8                      9
 Frequency:      1120.03                1233.86                1298.80
 Force Cnst:      3.8274                 2.2820                 1.6196
 Red. Mass:       5.1783                 2.5441                 1.6295
 IR Active:          YES                    YES                    YES
 IR Intens:      185.030                 15.258                 36.225
 Raman Active:       YES                    YES                    YES
               X      Y      Z        X      Y      Z        X      Y      Z
 O         -0.016 -0.007 -0.001    0.197  0.064 -0.114    0.097  0.028 -0.032
 O          0.057 -0.008  0.062   -0.150 -0.060  0.127   -0.151 -0.026  0.023
 C         -0.073  0.429  0.078   -0.056 -0.005 -0.044    0.081  0.029 -0.020
 O         -0.002 -0.340 -0.108    0.003 -0.020 -0.014   -0.011 -0.017  0.010
 H          0.117  0.069  0.135    0.098  0.210  0.695   -0.024 -0.042 -0.404
 H          0.189  0.690 -0.238   -0.125 -0.218 -0.375    0.025  0.236  0.780
 H         -0.046 -0.237 -0.080   -0.097  0.320  0.209    0.071 -0.304 -0.170
 TransDip  -0.030  0.383  0.206    0.080  0.089 -0.037    0.159 -0.038 -0.102

 Mode:                10                     11                     12
 Frequency:      1398.69                1422.32                1485.61
 Force Cnst:      1.4375                 1.4323                 1.4452
 Red. Mass:       1.2472                 1.2017                 1.1114
 IR Active:          YES                    YES                    YES
 IR Intens:       24.260                 27.280                  5.123
 Raman Active:       YES                    YES                    YES
               X      Y      Z        X      Y      Z        X      Y      Z
 O         -0.008 -0.003  0.001   -0.036 -0.010  0.015    0.008  0.003 -0.005
 O          0.009  0.013 -0.010    0.044  0.026 -0.037   -0.006 -0.002  0.013
 C         -0.100 -0.038 -0.028    0.011 -0.023 -0.089   -0.012 -0.093  0.010
 O          0.076 -0.025 -0.015   -0.025 -0.014  0.015    0.003 -0.002  0.003
 H          0.050 -0.345  0.022    0.140  0.352  0.737   -0.377  0.582 -0.128
 H          0.069  0.369  0.416   -0.033  0.115  0.483    0.451  0.505 -0.182
 H         -0.139  0.672  0.272    0.033 -0.215 -0.056   -0.009  0.031  0.021
 TransDip  -0.041  0.149  0.034    0.019 -0.128 -0.106   -0.002  0.014 -0.071

 Mode:                13                     14                     15
 Frequency:      3115.65                3202.85                3816.08
 Force Cnst:      6.0411                 6.7422                 9.1494
 Red. Mass:       1.0563                 1.1155                 1.0664
 IR Active:          YES                    YES                    YES
 IR Intens:       26.735                  8.138                149.840
 Raman Active:       YES                    YES                    YES
               X      Y      Z        X      Y      Z        X      Y      Z
 O         -0.000 -0.000  0.000    0.001  0.000 -0.001    0.000  0.000 -0.000
 O         -0.000 -0.000 -0.001   -0.001 -0.000  0.001    0.000  0.000  0.000
 C         -0.016  0.058 -0.028   -0.098 -0.003  0.013   -0.003  0.000  0.000
 O         -0.000  0.000  0.000    0.002  0.000 -0.001   -0.059 -0.020  0.004
 H         -0.476 -0.220  0.172    0.719  0.336 -0.261    0.014  0.007 -0.002
 H          0.669 -0.465  0.167    0.433 -0.303  0.109    0.005  0.002  0.002
 H          0.005 -0.001  0.001   -0.017  0.002  0.008    0.946  0.312 -0.064
 TransDip   0.001  0.159 -0.045   -0.091 -0.006  0.005    0.340  0.191  0.036

 STANDARD THERMODYNAMIC QUANTITIES AT   298.15 K  AND     1.00 ATM

   This Molecule has  0 Imaginary Frequencies
   Zero point vibrational energy:       30.726 kcal/mol

   Atom    1 Element O  Has Mass   15.99491
   Atom    2 Element O  Has Mass   15.99491
   Atom    3 Element C  Has Mass   12.00000
   Atom    4 Element O  Has Mass   15.99491
   Atom    5 Element H  Has Mass    1.00783
   Atom    6 Element H  Has Mass    1.00783
   Atom    7 Element H  Has Mass    1.00783
   Molecular Mass:    63.008220 amu
   Principal axes and moments of inertia in amu*Bohr^2:
                             1           2           3
    Eigenvalues --       89.81675   299.51154   350.14569
          X              -0.21830     0.63102     0.74442
          Y               0.28641     0.77065    -0.56926
          Z               0.93291    -0.08894     0.34896
   Rotational Symmetry Number is   1
   The Molecule is an Asymmetric Top
   Translational Enthalpy:        0.889 kcal/mol
   Rotational Enthalpy:           0.889 kcal/mol
   Vibrational Enthalpy:         31.783 kcal/mol
   gas constant (RT):             0.592 kcal/mol
   Translational Entropy:        38.341  cal/mol.K
   Rotational Entropy:           23.758  cal/mol.K
   Vibrational Entropy:           6.178  cal/mol.K

   Total Enthalpy:               34.153 kcal/mol
   Total Entropy:                68.277  cal/mol.K
 Total job time:  853.40s(wall), 12724.65s(cpu) 
 Thu May 16 12:18:48 2024

        *************************************************************
        *                                                           *
        *  Thank you very much for using Q-Chem.  Have a nice day.  *
        *                                                           *
        *************************************************************


