
Running Job 1 of 1 Q_in.in
qchem Q_in.in_415729.0 /scratch/ari.fischer/qChem2096781.hpc-mn1/qchem415729/ 0
/usr/local/qchem-5.4.1/exe/qcprog.exe_s Q_in.in_415729.0 /scratch/ari.fischer/qChem2096781.hpc-mn1/qchem415729/
                  Welcome to Q-Chem
     A Quantum Leap Into The Future Of Chemistry


 Q-Chem 5.4, Q-Chem, Inc., Pleasanton, CA (2021)

 License issued to: Nanyang Technological University (site)

 E. Epifanovsky,  A. T. B. Gilbert,  Xintian Feng,  Joonho Lee,  Yuezhi Mao,  
 N. Mardirossian,  P. Pokhilko,  A. White,  M. Wormit,  M. P. Coons,  
 A. L. Dempwolff,  Zhengting Gan,  D. Hait,  P. R. Horn,  L. D. Jacobson,  
 I. Kaliman,  J. Kussmann,  A. W. Lange,  Ka Un Lao,  D. S. Levine,  Jie Liu,  
 S. C. McKenzie,  A. F. Morrison,  K. Nanda,  F. Plasser,  D. R. Rehn,  
 M. L. Vidal,  Zhi-Qiang You,  Ying Zhu,  B. Alam,  B. Albrecht,  
 A. Aldossary,  E. Alguire,  J. H. Andersen,  D. Barton,  K. Begam,  A. Behn,  
 Y. A. Bernard,  E. J. Berquist,  H. Burton,  A. Carreras,  K. Carter-Fenk,  
 R. Chakraborty,  A. D. Chien,  K. D. Closser,  V. Cofer-Shabica,  
 S. Dasgupta,  Jia Deng,  M. de Wergifosse,  M. Diedenhofen,  Hainam Do,  
 S. Ehlert,  Po-Tung Fang,  S. Fatehi,  Qingguo Feng,  T. Friedhoff,  
 J. Gayvert,  Qinghui Ge,  G. Gidofalvi,  M. Goldey,  J. Gomes,  
 C. Gonzalez-Espinoza,  S. Gulania,  A. Gunina,  M. W. D. Hanson-Heine,  
 P. H. P. Harbach,  A. W. Hauser,  M. F. Herbst,  M. Hernandez Vera,  
 M. Hodecker,  Z. C. Holden,  S. Houck,  Xunkun Huang,  Kerwin Hui,  
 B. C. Huynh,  M. Ivanov,  Hyunjun Ji,  Hanjie Jiang,  B. Kaduk,  S. Kaehler,  
 K. Khistyaev,  Jaehoon Kim,  P. Klunzinger,  Z. Koczor-Benda,  
 Joong Hoon Koh,  D. Kosenkov,  L. Koulias,  T. Kowalczyk,  C. M. Krauter,  
 K. Kue,  A. Kunitsa,  T. Kus,  A. Landau,  K. V. Lawler,  D. Lefrancois,  
 S. Lehtola,  Rain Li,  Yi-Pei Li,  Jiashu Liang,  M. Liebenthal,  
 Hung-Hsuan Lin,  You-Sheng Lin,  Fenglai Liu,  Kuan-Yu Liu,  
 M. Loipersberger,  A. Luenser,  A. Manjanath,  P. Manohar,  E. Mansoor,  
 S. F. Manzer,  Shan-Ping Mao,  A. V. Marenich,  T. Markovich,  S. Mason,  
 S. A. Maurer,  P. F. McLaughlin,  M. F. S. J. Menger,  J.-M. Mewes,  
 S. A. Mewes,  P. Morgante,  J. W. Mullinax,  K. J. Oosterbaan,  G. Paran,  
 Alexander C. Paul,  Suranjan K. Paul,  F. Pavosevic,  Zheng Pei,  S. Prager,  
 E. I. Proynov,  E. Ramos,  B. Rana,  A. E. Rask,  A. Rettig,  R. M. Richard,  
 F. Rob,  E. Rossomme,  T. Scheele,  M. Scheurer,  M. Schneider,  
 N. Sergueev,  S. M. Sharada,  W. Skomorowski,  D. W. Small,  C. J. Stein,  
 Yu-Chuan Su,  E. J. Sundstrom,  Zhen Tao,  J. Thirman,  T. Tsuchimochi,  
 N. M. Tubman,  S. P. Veccham,  O. Vydrov,  J. Wenzel,  J. Witte,  A. Yamada,  
 Kun Yao,  S. Yeganeh,  S. R. Yost,  A. Zech,  Igor Ying Zhang,  Xing Zhang,  
 Yu Zhang,  D. Zuev,  A. Aspuru-Guzik,  A. T. Bell,  N. A. Besley,  
 K. B. Bravaya,  B. R. Brooks,  D. Casanova,  Jeng-Da Chai,  S. Coriani,  
 C. J. Cramer,  A. E. DePrince, III,  R. A. DiStasio Jr.,  A. Dreuw,  
 B. D. Dunietz,  T. R. Furlani,  W. A. Goddard III,  S. Grimme,  
 S. Hammes-Schiffer,  T. Head-Gordon,  W. J. Hehre,  Chao-Ping Hsu,  
 T.-C. Jagau,  Yousung Jung,  A. Klamt,  Jing Kong,  D. S. Lambrecht,  
 WanZhen Liang,  N. J. Mayhall,  C. W. McCurdy,  J. B. Neaton,  
 C. Ochsenfeld,  J. A. Parkhill,  R. Peverati,  V. A. Rassolov,  Yihan Shao,  
 L. V. Slipchenko,  T. Stauch,  R. P. Steele,  J. E. Subotnik,  
 A. J. W. Thom,  A. Tkatchenko,  D. G. Truhlar,  T. Van Voorhis,  
 T. A. Wesolowski,  K. B. Whaley,  H. L. Woodcock III,  P. M. Zimmerman,  
 S. Faraji,  P. M. W. Gill,  M. Head-Gordon,  J. M. Herbert,  A. I. Krylov

 Additional authors for Version 5.4.1: 
 S. Kotaru,  Shaozhi Li,  Xiangyuan Li,  F. Matz,  A. Molle,  Haisheng Ren,  
 Yingli Su,  Hung-Yi Tsai,  C. Utku,  Fang Wang

 Contributors to earlier versions of Q-Chem not listed above: 
 R. D. Adamson,  B. Austin,  R. Baer,  J. Baker,  G. J. O. Beran,  
 K. Brandhorst,  S. T. Brown,  E. F. C. Byrd,  A. K. Chakraborty,  
 G. K. L. Chan,  Chun-Min Chang,  Yunqing Chen,  C.-L. Cheng,  
 Siu Hung Chien,  D. M. Chipman,  D. L. Crittenden,  H. Dachsel,  
 R. J. Doerksen,  A. D. Dutoi,  R. G. Edgar,  J. Fosso-Tande,  
 L. Fusti-Molnar,  D. Ghosh,  A. Ghysels,  A. Golubeva-Zadorozhnaya,  
 J. Gonthier,  M. S. Gordon,  S. R. Gwaltney,  G. Hawkins,  J. E. Herr,  
 A. Heyden,  S. Hirata,  E. G. Hohenstein,  G. Kedziora,  F. J. Keil,  
 C. Kelley,  Jihan Kim,  R. A. King,  R. Z. Khaliullin,  P. P. Korambath,  
 W. Kurlancheek,  A. Laurent,  A. M. Lee,  M. S. Lee,  S. V. Levchenko,  
 Ching Yeh Lin,  D. Liotard,  E. Livshits,  R. C. Lochan,  I. Lotan,  
 L. A. Martinez-Martinez,  P. E. Maslen,  N. Nair,  D. P. O'Neill,  
 D. Neuhauser,  E. Neuscamman,  C. M. Oana,  R. Olivares-Amaya,  R. Olson,  
 T. M. Perrine,  B. Peters,  P. A. Pieniazek,  A. Prociuk,  Y. M. Rhee,  
 J. Ritchie,  M. A. Rohrdanz,  E. Rosta,  N. J. Russ,  H. F. Schaefer III,  
 M. W. Schmidt,  N. E. Schultz,  S. Sharma,  N. Shenvi,  C. D. Sherrill,  
 A. C. Simmonett,  A. Sodt,  T. Stein,  D. Stuck,  K. S. Thanthiriwatte,  
 V. Vanovschi,  L. Vogt,  Tao Wang,  A. Warshel,  M. A. Watson,  
 C. F. Williams,  Q. Wu,  X. Xu,  Jun Yang,  W. Zhang,  Yan Zhao

 Please cite Q-Chem as follows:
 Y. Shao et al., Mol. Phys. 113, 184-215 (2015)
 DOI: 10.1080/00268976.2014.952696

 Q-Chem 5.4.1 for Intel X86 EM64T Linux

 Parts of Q-Chem use Armadillo 9.800.1 (Horizon Scraper).
 http://arma.sourceforge.net/

 Q-Chem begins on Mon May 13 22:33:15 2024  

 Host: 
0

     Scratch files written to /scratch/ari.fischer/qChem2096781.hpc-mn1/qchem415729//
 Aug1521 |scratch|qcdevops|jenkins|workspace|build_RNUM 8249   
 Processing $rem in /usr/local/qchem-5.4.1/config/preferences:
 Processing $rem in /home/ari.fischer/.qchemrc:
 Symmetry turned off for PCM/SM12/SMD calculation

 Checking the input file for inconsistencies... 	...done.

--------------------------------------------------------------
User input:
--------------------------------------------------------------
$molecule
0 2
O         5.3484570170    1.4934840709    3.6483680442
O         4.2247100789    1.0790828452    4.1863631278
C         4.3500516881    1.0693750695    5.6478418296
O         4.4591071828    2.3571928332    6.1429942645
H         3.4094584795    0.6333950944    5.9814140107
H         5.2099845174    0.4369594777    5.8770033951
H         5.3784286363    2.6459073090    6.0144219282
$end

$rem
BASIS = 6-311++G(2df,2p)
GUI = 2
JOB_TYPE = Optimization
METHOD = wB97M-V
SCF_ALGORITHM = DIIS_GDM
MAX_SCF_CYCLES = 400
GEOM_OPT_MAX_CYCLES = 150
SCF_CONVERGENCE = 7
THRESH = 12
Solvent_method = SMD
$end
--------------------------------------------------------------
 ----------------------------------------------------------------
             Standard Nuclear Orientation (Angstroms)
    I     Atom           X                Y                Z
 ----------------------------------------------------------------
    1      O       5.3484570170     1.4934840709     3.6483680442
    2      O       4.2247100789     1.0790828452     4.1863631278
    3      C       4.3500516881     1.0693750695     5.6478418296
    4      O       4.4591071828     2.3571928332     6.1429942645
    5      H       3.4094584795     0.6333950944     5.9814140107
    6      H       5.2099845174     0.4369594777     5.8770033951
    7      H       5.3784286363     2.6459073090     6.0144219282
 ----------------------------------------------------------------
 Nuclear Repulsion Energy =         126.28503618 hartrees
 There are       17 alpha and       16 beta electrons
 Requested basis set is 6-311++G(2df,2p)
 There are 50 shells and 166 basis functions

 Total QAlloc Memory Limit 288000 MB
 Mega-Array Size       188 MB
 MEM_STATIC part       192 MB
 
 Citation of the SMD model:
 Marenich, A.V.; Cramer, C.J.; Truhlar, D.G.
 J. Phys. Chem. B 2009, 113, 6378-6396.
 iSolventCode=           1
 Solvent: water                                                           
 
 vradii
            1           2           3           4           5           6
    1   1.5200000   1.5200000   1.8500000   1.5200000   1.2000000   1.2000000
            7
    1   1.2000000
 Changing PCM_VDW_RADII to SMD_RADIUS
 Discretize the solute cavity surface with Lebedev spheres
	Using 110 Lebedev grid points for each H atom
	Using 194 Lebedev grid points for other atoms
	Atomic van der Waals radii will be scaled by 1.20
 Remove points where switching function is < 1.0e-08
 Keep 642 surface tesserae and discard 464 interior tesserae
 Molecular Surface Area = 78.440 Angst**2
 A cutoff of  1.0D-12 yielded   1254 shell pairs
 There are     13971 function pairs (     17605 Cartesian)
 Smallest overlap matrix eigenvalue = 5.79E-04

 Scale SEOQF with 1.000000e-02/1.000000e-01/1.000000e-02

 Standard Electronic Orientation quadrupole field applied
 Nucleus-field energy     =    -0.0000000004 hartrees
 Guess from superposition of atomic densities
 Warning:  Energy on first SCF cycle will be non-variational
 SAD guess density has 33.000000 electrons

 -----------------------------------------------------------------------
  General SCF calculation program by
  Eric Jon Sundstrom, Paul Horn, Yuezhi Mao, Dmitri Zuev, Alec White,
  David Stuck, Shaama M.S., Shane Yost, Joonho Lee, David Small,
  Daniel Levine, Susi Lehtola, Hugh Burton, Evgeny Epifanovsky,
  Bang C. Huynh
 -----------------------------------------------------------------------
 Exchange:     0.1500 Hartree-Fock + 1.0000 wB97M-V + LR-HF
 Correlation:  1.0000 wB97M-V
 Using SG-2 standard quadrature grid
 Nonlocal Correlation:  VV10 with C = 0.0100 and b = 6.00 and scale = 1.00000
 Grid used for NLC:  SG-1 standard quadrature
 
 Citation of the SMD model:
 Marenich, A.V.; Cramer, C.J.; Truhlar, D.G.
 J. Phys. Chem. B 2009, 113, 6378-6396.
 iSolventCode=           1
 Solvent: water                                                           
 
 vradii
            1           2           3           4           5           6
    1   1.5200000   1.5200000   1.8500000   1.5200000   1.2000000   1.2000000
            7
    1   1.2000000
 using 16 threads for integral computing
 -------------------------------------------------------
 OpenMP Integral computing Module                
 Release: version 1.0, May 2013, Q-Chem Inc. Pittsburgh 
 -------------------------------------------------------
 -------------------------------------------------------
 OpenMP BLAS3 based DFT computing Module                
 Release: version 1.0, May 2013, Q-Chem Inc. Pittsburgh 
 -------------------------------------------------------
 A unrestricted SCF calculation will be
 performed using DIIS, GDM
 SCF converges when RMS gradient is below 1.0e-07
 ---------------------------------------
  Cycle       Energy         DIIS error
 ---------------------------------------
    1    -265.8711795406      1.78e-02  
    2    -265.3922697136      2.58e-03  Done DIIS. Switching to GDM
 ---------------------------------------
  Cycle       Energy        RMS Gradient
 ---------------------------------------
    1    -265.3922697136      1.09e-01   Descent step
    2    -265.4482141330      4.13e-02   Normal BFGS step
    3    -265.4629957499      2.55e-02   Normal BFGS step
    4    -265.4643535003      5.84e-03   Normal BFGS step
    5    -265.4651574147      5.82e-03   Normal BFGS step
    6    -265.4652860206      3.27e-03   Normal BFGS step
    7    -265.4653426733      1.41e-03   Normal BFGS step
    8    -265.4653529549      4.25e-04   Normal BFGS step
    9    -265.4653540003      1.72e-04   Normal BFGS step
   10    -265.4653541827      1.44e-04   Normal BFGS step
   11    -265.4653542354      1.24e-04   Normal BFGS step
   12    -265.4653542672      9.85e-05   Normal BFGS step
   13    -265.4653543095      4.17e-05   Normal BFGS step
   14    -265.4653543245      1.87e-05   Normal BFGS step
   15    -265.4653543303      6.86e-06   Normal BFGS step
   16    -265.4653543309      2.09e-06   Normal BFGS step
   17    -265.4653543310      8.01e-07   Normal BFGS step
   18    -265.4653543310      2.44e-07   Normal BFGS step
   19    -265.4653543310      7.04e-08  Convergence criterion met
 ---------------------------------------
 SCF time:   CPU 376.00s  wall 31.00s 
<S^2> =          0.753897574
(3)  G-ENP(liq) elect-nuc-pol free energy of system     -265.465354331 a.u.
(4)  G-CDS(liq) cavity-dispersion-solvent structure 
     free energy                                                1.8134 kcal/mol
(6)  G-S(liq) free energy of system                     -265.462464544 a.u.
 SCF   energy in the final basis set =     -265.4624645436
 Total energy in the final basis set =     -265.4624645436
 
 --------------------------------------------------------------
 
                    Orbital Energies (a.u.)
 --------------------------------------------------------------
 
 Alpha MOs
 -- Occupied --
-19.4610 -19.4214 -19.3625 -10.4503  -1.3413  -1.1864  -1.0086  -0.7969
 -0.6753  -0.6483  -0.6339  -0.5858  -0.5447  -0.4756  -0.4484  -0.4044
 -0.4041
 -- Virtual --
  0.0323   0.0495   0.0610   0.0804   0.1078   0.1273   0.1532   0.1611
  0.2005   0.2113   0.2210   0.2333   0.2469   0.2689   0.2698   0.2744
  0.2803   0.2946   0.3008   0.3141   0.3457   0.3587   0.3776   0.4076
  0.4254   0.5462   0.5792   0.5971   0.6312   0.6457   0.6795   0.7291
  0.7880   0.8305   0.8470   0.9605   1.0264   1.0338   1.0477   1.0698
  1.0792   1.1159   1.1244   1.1552   1.1670   1.1862   1.2015   1.2208
  1.3057   1.3418   1.3703   1.3858   1.4668   1.4900   1.5148   1.5374
  1.5580   1.5753   1.6017   1.6802   1.6887   1.8183   1.8357   2.0209
  2.0701   2.0955   2.1535   2.2414   2.2955   2.3181   2.3625   2.3876
  2.5811   2.6378   2.6720   2.8311   3.0906   3.1361   3.1826   3.2571
  3.3173   3.3610   3.4157   3.4635   3.4811   3.5255   3.6753   3.7308
  3.7935   3.8287   3.8844   3.9557   4.1249   4.2112   4.2218   4.2962
  4.3746   4.4387   4.5553   4.6883   4.8123   4.8275   4.9570   5.0354
  5.0576   5.0766   5.0803   5.1399   5.1515   5.1833   5.2215   5.2480
  5.2725   5.3027   5.3375   5.4067   5.4918   5.5686   5.5989   5.6275
  5.7158   5.7917   6.0120   6.0686   6.3515   6.4258   6.5344   6.6386
  6.8017   6.8651   6.9228   7.0351   7.0738   7.1431   7.1910   7.2388
  7.2712   7.3418   7.3992   7.4336   7.5949   7.7186   7.7854   7.9658
  8.0358  24.6997  50.3915  50.4706  50.5623
 
 Beta MOs
 -- Occupied --
-19.4511 -19.4022 -19.3623 -10.4507  -1.3156  -1.1844  -0.9738  -0.7870
 -0.6678  -0.6279  -0.6172  -0.5462  -0.5212  -0.4625  -0.4438  -0.3867
 -- Virtual --
 -0.0357   0.0328   0.0497   0.0613   0.0812   0.1089   0.1308   0.1545
  0.1635   0.2028   0.2162   0.2219   0.2365   0.2530   0.2716   0.2729
  0.2760   0.2860   0.2977   0.3026   0.3192   0.3483   0.3612   0.3795
  0.4078   0.4265   0.5467   0.5798   0.5977   0.6312   0.6458   0.6796
  0.7303   0.7915   0.8323   0.8476   0.9632   1.0286   1.0370   1.0500
  1.0786   1.1012   1.1228   1.1286   1.1640   1.1873   1.1886   1.2101
  1.2287   1.3088   1.3463   1.3729   1.3892   1.4763   1.4970   1.5218
  1.5449   1.5731   1.5826   1.6232   1.6874   1.7127   1.8305   1.8458
  2.0259   2.0751   2.1076   2.1604   2.2512   2.3152   2.3224   2.3644
  2.3924   2.5839   2.6422   2.6785   2.8325   3.0913   3.1363   3.1831
  3.2577   3.3174   3.3634   3.4157   3.4640   3.4813   3.5255   3.6767
  3.7328   3.7936   3.8289   3.8849   3.9557   4.1251   4.2116   4.2236
  4.2972   4.3771   4.4402   4.5912   4.7072   4.8244   4.8512   4.9752
  5.0625   5.1191   5.1250   5.1375   5.1694   5.1903   5.2140   5.2391
  5.2603   5.2828   5.3207   5.3603   5.4148   5.5045   5.5800   5.6042
  5.6397   5.7260   5.8015   6.0150   6.0758   6.3625   6.4725   6.5456
  6.6446   6.8869   6.9477   6.9838   7.0417   7.1114   7.1721   7.2140
  7.2441   7.2788   7.3706   7.4214   7.4685   7.5979   7.7259   7.7929
  7.9770   8.0579  24.6994  50.4040  50.4793  50.5635
 --------------------------------------------------------------
 
          Ground-State Mulliken Net Atomic Charges

     Atom                 Charge (a.u.)    Spin (a.u.)
  --------------------------------------------------------
      1 O                    -0.228350       0.689847
      2 O                     0.006342       0.303802
      3 C                    -0.130172      -0.004934
      4 O                    -0.408645       0.002149
      5 H                     0.190164      -0.000039
      6 H                     0.223470       0.008395
      7 H                     0.347192       0.000780
  --------------------------------------------------------
  Sum of atomic charges =     0.000000
  Sum of spin   charges =     1.000000

 -----------------------------------------------------------------
                    Cartesian Multipole Moments
 -----------------------------------------------------------------
    Charge (ESU x 10^10)
                 0.0000
    Dipole Moment (Debye)
         X       0.8129      Y      -1.3662      Z       2.6122
       Tot       3.0579
    Quadrupole Moments (Debye-Ang)
        XX     -14.5184     XY      -2.5431     YY     -26.2354
        XZ      18.3824     YZ      -4.9504     ZZ      -1.3748
    Octopole Moments (Debye-Ang^2)
       XXX    -252.7815    XXY     -27.0956    XYY    -107.9585
       YYY    -108.3727    XXZ       8.2850    XYZ       2.7310
       YYZ    -130.0834    XZZ      37.3486    YZZ     -58.4947
       ZZZ    -212.7473
    Hexadecapole Moments (Debye-Ang^3)
      XXXX   -2544.2182   XXXY    -347.5517   XXYY    -504.1064
      XYYY    -463.7089   YYYY    -380.6584   XXXZ    -785.0794
      XXYZ     -32.2759   XYYZ    -510.8980   YYYZ    -557.3428
      XXZZ    -169.5014   XYZZ    -105.3169   YYZZ    -752.2442
      XZZZ    -677.1316   YZZZ    -691.9359   ZZZZ   -2931.2247
 -----------------------------------------------------------------
 Calculating analytic gradient of the SCF energy
 Gradient of CDS energy
            1           2           3           4           5           6
    1  -0.0000689   0.0002377  -0.0001505  -0.0004297  -0.0001471   0.0002771
    2  -0.0000632   0.0002307   0.0045082  -0.0053539   0.0001208   0.0001865
    3  -0.0001081  -0.0001864   0.0031872  -0.0024590  -0.0002193  -0.0003685
            7
    1   0.0002814
    2   0.0003709
    3   0.0001542
 Gradient of SCF Energy
            1           2           3           4           5           6
    1   0.0072967  -0.0089411   0.0039287  -0.0240810  -0.0103200   0.0113844
    2   0.0021876  -0.0044167   0.0177353  -0.0019983  -0.0064286  -0.0095040
    3  -0.0039798   0.0013445  -0.0092275   0.0050595   0.0044007   0.0046104
            7
    1   0.0207323
    2   0.0024246
    3  -0.0022078
 Max gradient component =       2.408E-02
 RMS gradient           =       9.877E-03
 Computing fast CPCM-SWIG gradient
 Updating gradient with PCM contributions...
 -- total gradient after adding PCM contribution --
---------------------------------------------------
  Atom         X              Y              Z     
---------------------------------------------------
   1       0.006775       0.002722      -0.001544
   2      -0.008040      -0.003681       0.000668
   3       0.003564       0.004459      -0.001314
   4      -0.008486      -0.000208       0.002894
   5      -0.002544      -0.001012       0.000958
   6       0.002018      -0.002550       0.000555
   7       0.006711       0.000269      -0.002217
---------------------------------------------------
 Number of fixed atoms: 0
 Gradient time:  CPU 31.60 s  wall 3.02 s
 Geometry Optimization Parameters
   NAtoms,    NIC,     NZ,  NCons,   NDum,   NFix, NCnnct, MaxDiis
        7      34       0       0       0       0       0       0


** GEOMETRY OPTIMIZATION IN DELOCALIZED INTERNAL COORDINATES **
   Searching for a Minimum

   Optimization Cycle:   1

                       Coordinates (Angstroms)
     ATOM                X               Y               Z
      1  O         5.3484570170    1.4934840709    3.6483680442
      2  O         4.2247100789    1.0790828452    4.1863631278
      3  C         4.3500516881    1.0693750695    5.6478418296
      4  O         4.4591071828    2.3571928332    6.1429942645
      5  H         3.4094584795    0.6333950944    5.9814140107
      6  H         5.2099845174    0.4369594777    5.8770033951
      7  H         5.3784286363    2.6459073090    6.0144219282
   Point Group: c1    Number of degrees of freedom:    15


   Energy is   -265.462464544


 Attempting to generate delocalized internal coordinates
 Initial Hessian constructed with Jon Baker's OPTIMIZE code

 15 Hessian modes will be used to form the next step
  Hessian Eigenvalues:
     0.006799    0.017758    0.081106    0.096141    0.121054    0.143975
     0.160000    0.223715    0.250000    0.346096    0.349208    0.361168
     0.483726    0.529439    0.637078

 Minimum search - taking simple RFO step
 Searching for Lamda that Minimizes Along All modes
 Value Taken    Lamda =  -0.00042941
 Step Taken.  Stepsize is  0.072121

                             Maximum     Tolerance    Cnvgd?
         Gradient           0.007609      0.000300      NO
         Displacement       0.047990      0.001200      NO
         Energy change     *********      0.000001      NO


 New Cartesian Coordinates Obtained by Inverse Iteration

 Displacement from previous Coordinates is:  0.084007
 ----------------------------------------------------------------
             Standard Nuclear Orientation (Angstroms)
    I     Atom           X                Y                Z
 ----------------------------------------------------------------
    1      O       5.3454423657     1.4675243766     3.6322876509
    2      O       4.2238709248     1.0891995109     4.1863898542
    3      C       4.3506824773     1.0696366945     5.6462105068
    4      O       4.4621864198     2.3552460096     6.1460651233
    5      H       3.4147976000     0.6324772761     5.9771955542
    6      H       5.2103861544     0.4437985729     5.8711176611
    7      H       5.3728316580     2.6575142594     6.0391402496
 ----------------------------------------------------------------
 Nuclear Repulsion Energy =         126.34161257 hartrees
 There are       17 alpha and       16 beta electrons
 Discretize the solute cavity surface with Lebedev spheres
	Using 110 Lebedev grid points for each H atom
	Using 194 Lebedev grid points for other atoms
	Atomic van der Waals radii will be scaled by 1.20
 Remove points where switching function is < 1.0e-08
 Keep 638 surface tesserae and discard 468 interior tesserae
 Molecular Surface Area = 78.506 Angst**2
 Applying Cartesian multipole field
    Component          Value
    ---------          -----
     (2,0,0)        1.00000E-12
     (0,2,0)        2.00000E-11
     (0,0,2)       -3.00000E-12
 Nucleus-field energy     =    -0.0000000004 hartrees
 Requested basis set is 6-311++G(2df,2p)
 There are 50 shells and 166 basis functions
 A cutoff of  1.0D-12 yielded   1254 shell pairs
 There are     13971 function pairs (     17605 Cartesian)
 Smallest overlap matrix eigenvalue = 5.61E-04
 Guess MOs from SCF MO coefficient file

 -----------------------------------------------------------------------
  General SCF calculation program by
  Eric Jon Sundstrom, Paul Horn, Yuezhi Mao, Dmitri Zuev, Alec White,
  David Stuck, Shaama M.S., Shane Yost, Joonho Lee, David Small,
  Daniel Levine, Susi Lehtola, Hugh Burton, Evgeny Epifanovsky,
  Bang C. Huynh
 -----------------------------------------------------------------------
 Exchange:     0.1500 Hartree-Fock + 1.0000 wB97M-V + LR-HF
 Correlation:  1.0000 wB97M-V
 Using SG-2 standard quadrature grid
 Nonlocal Correlation:  VV10 with C = 0.0100 and b = 6.00 and scale = 1.00000
 Grid used for NLC:  SG-1 standard quadrature
 
 Citation of the SMD model:
 Marenich, A.V.; Cramer, C.J.; Truhlar, D.G.
 J. Phys. Chem. B 2009, 113, 6378-6396.
 iSolventCode=           1
 Solvent: water                                                           
 
 vradii
            1           2           3           4           5           6
    1   1.5200000   1.5200000   1.8500000   1.5200000   1.2000000   1.2000000
            7
    1   1.2000000
 -------------------------------------------------------
 OpenMP BLAS3 based DFT computing Module                
 Release: version 1.0, May 2013, Q-Chem Inc. Pittsburgh 
 -------------------------------------------------------
 A unrestricted SCF calculation will be
 performed using Roothaan-Hall, DIIS, GDM
 SCF converges when RMS gradient is below 1.0e-07
 ---------------------------------------
  Cycle       Energy         DIIS error
 ---------------------------------------
    1    -265.4461619359      3.85e-04  Roothaan Step
 ---------------------------------------
  Cycle       Energy         DIIS error
 ---------------------------------------
    1    -265.4628090374      3.63e-04  
    2    -265.4647877975      2.86e-04  Done DIIS. Switching to GDM
 ---------------------------------------
  Cycle       Energy        RMS Gradient
 ---------------------------------------
    1    -265.4647877975      7.22e-03   Normal BFGS step
    2    -265.4646235256      1.59e-02  Line search: overstep
    3    -265.4655220711      3.78e-03   Normal BFGS step
    4    -265.4655921941      9.91e-04   Normal BFGS step
    5    -265.4656125183      1.02e-03   Normal BFGS step
    6    -265.4656168682      8.39e-04   Normal BFGS step
    7    -265.4656184675      7.20e-04   Normal BFGS step
    8    -265.4656201080      4.99e-04   Normal BFGS step
    9    -265.4656210430      3.05e-04   Normal BFGS step
   10    -265.4656214918      2.66e-04   Normal BFGS step
   11    -265.4656217806      1.12e-04   Normal BFGS step
   12    -265.4656218368      2.82e-05   Normal BFGS step
   13    -265.4656218452      1.53e-05   Normal BFGS step
   14    -265.4656218466      8.12e-06   Normal BFGS step
   15    -265.4656218470      3.09e-06   Normal BFGS step
   16    -265.4656218470      4.43e-07   Normal BFGS step
   17    -265.4656218470      1.35e-07   Normal BFGS step
   18    -265.4656218471      5.50e-08  Convergence criterion met
 ---------------------------------------
 SCF time:   CPU 364.60s  wall 29.00s 
<S^2> =          0.753869271
(3)  G-ENP(liq) elect-nuc-pol free energy of system     -265.465621847 a.u.
(4)  G-CDS(liq) cavity-dispersion-solvent structure 
     free energy                                                1.8292 kcal/mol
(6)  G-S(liq) free energy of system                     -265.462706774 a.u.
 SCF   energy in the final basis set =     -265.4627067737
 Total energy in the final basis set =     -265.4627067737
 
 --------------------------------------------------------------
 
                    Orbital Energies (a.u.)
 --------------------------------------------------------------
 
 Alpha MOs
 -- Occupied --
-19.4608 -19.4205 -19.3614 -10.4497  -1.3444  -1.1870  -1.0085  -0.7985
 -0.6767  -0.6496  -0.6353  -0.5870  -0.5456  -0.4750  -0.4489  -0.4030
 -0.4025
 -- Virtual --
  0.0323   0.0496   0.0611   0.0805   0.1079   0.1277   0.1530   0.1616
  0.2014   0.2116   0.2213   0.2347   0.2474   0.2689   0.2714   0.2748
  0.2826   0.2948   0.3012   0.3150   0.3468   0.3595   0.3774   0.4078
  0.4262   0.5478   0.5817   0.5998   0.6330   0.6465   0.6797   0.7304
  0.7930   0.8284   0.8462   0.9572   1.0254   1.0354   1.0484   1.0669
  1.0806   1.1144   1.1247   1.1559   1.1664   1.1870   1.2038   1.2207
  1.3063   1.3449   1.3696   1.3885   1.4669   1.4940   1.5137   1.5425
  1.5579   1.5780   1.5994   1.6783   1.6910   1.8208   1.8354   2.0172
  2.0708   2.0960   2.1518   2.2459   2.3018   2.3230   2.3596   2.3890
  2.5747   2.6409   2.6678   2.8278   3.0936   3.1376   3.1849   3.2622
  3.3132   3.3589   3.4151   3.4705   3.4831   3.5277   3.6756   3.7323
  3.7973   3.8315   3.8973   3.9573   4.1294   4.2147   4.2332   4.3074
  4.3842   4.4478   4.5574   4.6898   4.8210   4.8325   4.9613   5.0358
  5.0647   5.0758   5.0788   5.1390   5.1543   5.1827   5.2239   5.2496
  5.2690   5.3046   5.3384   5.4072   5.4906   5.5694   5.6083   5.6456
  5.7158   5.8014   6.0249   6.0771   6.3580   6.4507   6.5606   6.6418
  6.8014   6.8659   6.9278   7.0368   7.0772   7.1451   7.1949   7.2640
  7.2710   7.3386   7.3962   7.4407   7.6087   7.7217   7.7856   7.9702
  8.0490  24.7149  50.3971  50.4727  50.5671
 
 Beta MOs
 -- Occupied --
-19.4508 -19.4015 -19.3611 -10.4501  -1.3186  -1.1850  -0.9741  -0.7884
 -0.6690  -0.6291  -0.6185  -0.5469  -0.5220  -0.4625  -0.4445  -0.3851
 -- Virtual --
 -0.0343   0.0328   0.0498   0.0614   0.0813   0.1090   0.1310   0.1543
  0.1640   0.2037   0.2164   0.2224   0.2378   0.2533   0.2713   0.2735
  0.2767   0.2888   0.2979   0.3032   0.3209   0.3495   0.3621   0.3793
  0.4079   0.4275   0.5483   0.5824   0.6004   0.6329   0.6466   0.6798
  0.7315   0.7964   0.8302   0.8469   0.9598   1.0278   1.0382   1.0507
  1.0778   1.1010   1.1219   1.1291   1.1632   1.1871   1.1903   1.2118
  1.2282   1.3095   1.3492   1.3722   1.3919   1.4777   1.5003   1.5223
  1.5490   1.5724   1.5855   1.6205   1.6846   1.7154   1.8348   1.8441
  2.0219   2.0755   2.1083   2.1586   2.2559   2.3208   2.3270   2.3611
  2.3952   2.5777   2.6450   2.6746   2.8290   3.0943   3.1377   3.1855
  3.2628   3.3132   3.3615   3.4151   3.4710   3.4835   3.5277   3.6770
  3.7343   3.7974   3.8318   3.8978   3.9573   4.1295   4.2152   4.2351
  4.3084   4.3867   4.4493   4.5934   4.7090   4.8365   4.8530   4.9790
  5.0709   5.1187   5.1235   5.1368   5.1679   5.1917   5.2147   5.2400
  5.2605   5.2806   5.3229   5.3615   5.4159   5.5029   5.5815   5.6123
  5.6583   5.7272   5.8106   6.0292   6.0833   6.3692   6.4978   6.5721
  6.6480   6.8861   6.9484   6.9881   7.0436   7.1151   7.1745   7.2206
  7.2691   7.2754   7.3683   7.4186   7.4748   7.6117   7.7281   7.7938
  7.9815   8.0712  24.7146  50.4097  50.4815  50.5682
 --------------------------------------------------------------
 
          Ground-State Mulliken Net Atomic Charges

     Atom                 Charge (a.u.)    Spin (a.u.)
  --------------------------------------------------------
      1 O                    -0.232351       0.687079
      2 O                     0.010151       0.306433
      3 C                    -0.127527      -0.005128
      4 O                    -0.410950       0.002536
      5 H                     0.191217      -0.000044
      6 H                     0.223378       0.008204
      7 H                     0.346082       0.000920
  --------------------------------------------------------
  Sum of atomic charges =     0.000000
  Sum of spin   charges =     1.000000

 -----------------------------------------------------------------
                    Cartesian Multipole Moments
 -----------------------------------------------------------------
    Charge (ESU x 10^10)
                 0.0000
    Dipole Moment (Debye)
         X       0.8062      Y      -1.3287      Z       2.6685
       Tot       3.0881
    Quadrupole Moments (Debye-Ang)
        XX     -14.6242     XY      -2.3117     YY     -26.0276
        XZ      18.6752     YZ      -4.6295     ZZ      -0.7917
    Octopole Moments (Debye-Ang^2)
       XXX    -253.8695    XXY     -25.7094    XYY    -106.7858
       YYY    -107.3455    XXZ       9.7043    XYZ       4.6571
       YYZ    -128.5912    XZZ      40.6264    YZZ     -55.9428
       ZZZ    -207.7614
    Hexadecapole Moments (Debye-Ang^3)
      XXXX   -2553.3010   XXXY    -339.1603   XXYY    -497.3544
      XYYY    -457.9345   YYYY    -376.1630   XXXZ    -778.7458
      XXYZ     -21.0499   XYYZ    -502.4934   YYYZ    -551.1888
      XXZZ    -151.6206   XYZZ     -90.0696   YYZZ    -741.6917
      XZZZ    -648.3849   YZZZ    -672.8410   ZZZZ   -2892.6519
 -----------------------------------------------------------------
 Calculating analytic gradient of the SCF energy
 Gradient of CDS energy
            1           2           3           4           5           6
    1  -0.0000683   0.0002368  -0.0001426  -0.0004326  -0.0001351   0.0002642
    2  -0.0000615   0.0002350   0.0044476  -0.0053120   0.0001201   0.0001958
    3  -0.0001092  -0.0001859   0.0032008  -0.0024727  -0.0002264  -0.0003667
            7
    1   0.0002776
    2   0.0003750
    3   0.0001601
 Gradient of SCF Energy
            1           2           3           4           5           6
    1   0.0028869  -0.0028914  -0.0001908  -0.0158974  -0.0078870   0.0091616
    2   0.0004148  -0.0016933   0.0131512  -0.0023467  -0.0057526  -0.0069329
    3  -0.0036637   0.0013745  -0.0075263   0.0024239   0.0035214   0.0041295
            7
    1   0.0148180
    2   0.0031594
    3  -0.0002594
 Max gradient component =       1.590E-02
 RMS gradient           =       6.953E-03
 Computing fast CPCM-SWIG gradient
 Updating gradient with PCM contributions...
 -- total gradient after adding PCM contribution --
---------------------------------------------------
  Atom         X              Y              Z     
---------------------------------------------------
   1       0.002215       0.000874      -0.001182
   2      -0.001915      -0.000998       0.000583
   3      -0.000529       0.000063       0.000327
   4      -0.000116      -0.000183       0.000586
   5      -0.000061      -0.000252       0.000067
   6      -0.000227      -0.000123       0.000058
   7       0.000633       0.000619      -0.000440
---------------------------------------------------
 Number of fixed atoms: 0
 Gradient time:  CPU 31.84 s  wall 3.12 s
 Geometry Optimization Parameters
   NAtoms,    NIC,     NZ,  NCons,   NDum,   NFix, NCnnct, MaxDiis
        7      34       0       0       0       0       0       0

 Cartesian Hessian Update
 Hessian updated using BFGS update


** GEOMETRY OPTIMIZATION IN DELOCALIZED INTERNAL COORDINATES **
   Searching for a Minimum

   Optimization Cycle:   2

                       Coordinates (Angstroms)
     ATOM                X               Y               Z
      1  O         5.3454423657    1.4675243766    3.6322876509
      2  O         4.2238709248    1.0891995109    4.1863898542
      3  C         4.3506824773    1.0696366945    5.6462105068
      4  O         4.4621864198    2.3552460096    6.1460651233
      5  H         3.4147976000    0.6324772761    5.9771955542
      6  H         5.2103861544    0.4437985729    5.8711176611
      7  H         5.3728316580    2.6575142594    6.0391402496
   Point Group: c1    Number of degrees of freedom:    15


   Energy is   -265.462706774

 Hessian updated using BFGS update

 15 Hessian modes will be used to form the next step
  Hessian Eigenvalues:
     0.006450    0.016830    0.082019    0.095485    0.120599    0.143933
     0.172206    0.223921    0.257732    0.346027    0.348619    0.362750
     0.479387    0.501627    0.595515

 Minimum search - taking simple RFO step
 Searching for Lamda that Minimizes Along All modes
 Value Taken    Lamda =  -0.00004626
 Step Taken.  Stepsize is  0.050909

                             Maximum     Tolerance    Cnvgd?
         Gradient           0.002167      0.000300      NO
         Displacement       0.029658      0.001200      NO
         Energy change     -0.000242      0.000001      NO


 New Cartesian Coordinates Obtained by Inverse Iteration

 Displacement from previous Coordinates is:  0.048653
 ----------------------------------------------------------------
             Standard Nuclear Orientation (Angstroms)
    I     Atom           X                Y                Z
 ----------------------------------------------------------------
    1      O       5.3436906633     1.4517684844     3.6276275781
    2      O       4.2205577739     1.0951468595     4.1857125568
    3      C       4.3528665767     1.0722349496     5.6439137209
    4      O       4.4589175676     2.3566702168     6.1462136458
    5      H       3.4185176546     0.6335986918     5.9750421692
    6      H       5.2152555153     0.4497056369     5.8664190219
    7      H       5.3703918485     2.6562718610     6.0534779075
 ----------------------------------------------------------------
 Nuclear Repulsion Energy =         126.41415475 hartrees
 There are       17 alpha and       16 beta electrons
 Discretize the solute cavity surface with Lebedev spheres
	Using 110 Lebedev grid points for each H atom
	Using 194 Lebedev grid points for other atoms
	Atomic van der Waals radii will be scaled by 1.20
 Remove points where switching function is < 1.0e-08
 Keep 637 surface tesserae and discard 469 interior tesserae
 Molecular Surface Area = 78.493 Angst**2
 Applying Cartesian multipole field
    Component          Value
    ---------          -----
     (2,0,0)        1.00000E-12
     (0,2,0)        2.00000E-11
     (0,0,2)       -3.00000E-12
 Nucleus-field energy     =    -0.0000000004 hartrees
 Requested basis set is 6-311++G(2df,2p)
 There are 50 shells and 166 basis functions
 A cutoff of  1.0D-12 yielded   1253 shell pairs
 There are     13968 function pairs (     17602 Cartesian)
 Smallest overlap matrix eigenvalue = 5.51E-04
 Guess MOs from SCF MO coefficient file

 -----------------------------------------------------------------------
  General SCF calculation program by
  Eric Jon Sundstrom, Paul Horn, Yuezhi Mao, Dmitri Zuev, Alec White,
  David Stuck, Shaama M.S., Shane Yost, Joonho Lee, David Small,
  Daniel Levine, Susi Lehtola, Hugh Burton, Evgeny Epifanovsky,
  Bang C. Huynh
 -----------------------------------------------------------------------
 Exchange:     0.1500 Hartree-Fock + 1.0000 wB97M-V + LR-HF
 Correlation:  1.0000 wB97M-V
 Using SG-2 standard quadrature grid
 Nonlocal Correlation:  VV10 with C = 0.0100 and b = 6.00 and scale = 1.00000
 Grid used for NLC:  SG-1 standard quadrature
 
 Citation of the SMD model:
 Marenich, A.V.; Cramer, C.J.; Truhlar, D.G.
 J. Phys. Chem. B 2009, 113, 6378-6396.
 iSolventCode=           1
 Solvent: water                                                           
 
 vradii
            1           2           3           4           5           6
    1   1.5200000   1.5200000   1.8500000   1.5200000   1.2000000   1.2000000
            7
    1   1.2000000
 -------------------------------------------------------
 OpenMP BLAS3 based DFT computing Module                
 Release: version 1.0, May 2013, Q-Chem Inc. Pittsburgh 
 -------------------------------------------------------
 A unrestricted SCF calculation will be
 performed using Roothaan-Hall, DIIS, GDM
 SCF converges when RMS gradient is below 1.0e-07
 ---------------------------------------
  Cycle       Energy         DIIS error
 ---------------------------------------
    1    -265.4464754874      3.58e-04  Roothaan Step
 ---------------------------------------
  Cycle       Energy         DIIS error
 ---------------------------------------
    1    -265.4629099626      3.63e-04  
    2    -265.4648330521      2.87e-04  Done DIIS. Switching to GDM
 ---------------------------------------
  Cycle       Energy        RMS Gradient
 ---------------------------------------
    1    -265.4648330521      7.78e-03   Normal BFGS step
    2    -265.4646527223      1.57e-02  Line search: overstep
    3    -265.4655697042      3.34e-03   Normal BFGS step
    4    -265.4656330379      7.87e-04   Normal BFGS step
    5    -265.4656510261      9.13e-04   Normal BFGS step
    6    -265.4656542993      5.26e-04   Normal BFGS step
    7    -265.4656550773      4.66e-04   Normal BFGS step
    8    -265.4656557369      3.67e-04   Normal BFGS step
    9    -265.4656561925      2.16e-04   Normal BFGS step
   10    -265.4656563668      1.79e-04   Normal BFGS step
   11    -265.4656565422      1.02e-04   Normal BFGS step
   12    -265.4656565802      3.04e-05   Normal BFGS step
   13    -265.4656565876      1.09e-05   Normal BFGS step
   14    -265.4656565886      5.58e-06   Normal BFGS step
   15    -265.4656565888      2.49e-06   Normal BFGS step
   16    -265.4656565888      5.34e-07   Normal BFGS step
   17    -265.4656565888      1.30e-07   Normal BFGS step
   18    -265.4656565888      4.19e-08  Convergence criterion met
 ---------------------------------------
 SCF time:   CPU 365.43s  wall 29.00s 
<S^2> =          0.753853065
(3)  G-ENP(liq) elect-nuc-pol free energy of system     -265.465656589 a.u.
(4)  G-CDS(liq) cavity-dispersion-solvent structure 
     free energy                                                1.8353 kcal/mol
(6)  G-S(liq) free energy of system                     -265.462731850 a.u.
 SCF   energy in the final basis set =     -265.4627318500
 Total energy in the final basis set =     -265.4627318500
 
 --------------------------------------------------------------
 
                    Orbital Energies (a.u.)
 --------------------------------------------------------------
 
 Alpha MOs
 -- Occupied --
-19.4608 -19.4200 -19.3612 -10.4494  -1.3463  -1.1876  -1.0082  -0.7987
 -0.6772  -0.6501  -0.6360  -0.5875  -0.5460  -0.4743  -0.4495  -0.4027
 -0.4018
 -- Virtual --
  0.0323   0.0497   0.0611   0.0806   0.1079   0.1280   0.1530   0.1618
  0.2015   0.2115   0.2213   0.2357   0.2476   0.2685   0.2723   0.2754
  0.2835   0.2949   0.3011   0.3155   0.3476   0.3593   0.3774   0.4081
  0.4275   0.5484   0.5822   0.6007   0.6337   0.6466   0.6796   0.7297
  0.7944   0.8286   0.8475   0.9557   1.0247   1.0357   1.0490   1.0662
  1.0810   1.1132   1.1247   1.1557   1.1662   1.1874   1.2053   1.2206
  1.3069   1.3459   1.3703   1.3896   1.4662   1.4961   1.5134   1.5441
  1.5577   1.5783   1.5987   1.6769   1.6931   1.8217   1.8372   2.0166
  2.0722   2.0975   2.1526   2.2489   2.3049   2.3271   2.3594   2.3901
  2.5738   2.6428   2.6642   2.8266   3.0941   3.1398   3.1847   3.2647
  3.3106   3.3589   3.4160   3.4732   3.4845   3.5279   3.6764   3.7338
  3.7978   3.8330   3.8998   3.9565   4.1329   4.2129   4.2328   4.3082
  4.3870   4.4488   4.5577   4.6904   4.8227   4.8362   4.9632   5.0360
  5.0660   5.0757   5.0784   5.1390   5.1560   5.1826   5.2276   5.2513
  5.2674   5.3050   5.3386   5.4060   5.4920   5.5714   5.6125   5.6527
  5.7192   5.8036   6.0239   6.0840   6.3611   6.4627   6.5716   6.6446
  6.8021   6.8670   6.9304   7.0381   7.0781   7.1462   7.1972   7.2659
  7.2782   7.3379   7.3963   7.4446   7.6101   7.7218   7.7872   7.9726
  8.0565  24.7189  50.4006  50.4745  50.5692
 
 Beta MOs
 -- Occupied --
-19.4508 -19.4010 -19.3610 -10.4498  -1.3205  -1.1856  -0.9740  -0.7885
 -0.6695  -0.6296  -0.6188  -0.5480  -0.5216  -0.4626  -0.4452  -0.3845
 -- Virtual --
 -0.0336   0.0328   0.0499   0.0614   0.0814   0.1090   0.1312   0.1543
  0.1642   0.2037   0.2162   0.2226   0.2387   0.2534   0.2709   0.2740
  0.2772   0.2900   0.2980   0.3031   0.3216   0.3503   0.3621   0.3793
  0.4082   0.4287   0.5489   0.5828   0.6013   0.6336   0.6467   0.6798
  0.7308   0.7977   0.8305   0.8481   0.9582   1.0270   1.0384   1.0513
  1.0777   1.1012   1.1209   1.1291   1.1625   1.1872   1.1912   1.2129
  1.2279   1.3101   1.3501   1.3729   1.3930   1.4773   1.5025   1.5222
  1.5503   1.5723   1.5860   1.6195   1.6827   1.7175   1.8358   1.8461
  2.0212   2.0770   2.1099   2.1597   2.2588   2.3234   2.3309   2.3609
  2.3971   2.5769   2.6467   2.6711   2.8278   3.0947   3.1400   3.1853
  3.2652   3.3106   3.3616   3.4160   3.4738   3.4848   3.5279   3.6778
  3.7359   3.7980   3.8333   3.9002   3.9565   4.1331   4.2135   4.2346
  4.3093   4.3893   4.4503   4.5938   4.7097   4.8413   4.8536   4.9808
  5.0725   5.1183   5.1230   5.1372   5.1679   5.1928   5.2154   5.2432
  5.2612   5.2793   5.3235   5.3619   5.4149   5.5043   5.5826   5.6167
  5.6659   5.7307   5.8130   6.0282   6.0902   6.3723   6.5101   6.5831
  6.6511   6.8865   6.9495   6.9903   7.0448   7.1164   7.1758   7.2228
  7.2723   7.2811   7.3684   7.4187   7.4779   7.6131   7.7282   7.7954
  7.9839   8.0787  24.7186  50.4132  50.4832  50.5703
 --------------------------------------------------------------
 
          Ground-State Mulliken Net Atomic Charges

     Atom                 Charge (a.u.)    Spin (a.u.)
  --------------------------------------------------------
      1 O                    -0.234838       0.686254
      2 O                     0.013302       0.307335
      3 C                    -0.126775      -0.005242
      4 O                    -0.411026       0.002728
      5 H                     0.190437      -0.000050
      6 H                     0.223271       0.007954
      7 H                     0.345629       0.001022
  --------------------------------------------------------
  Sum of atomic charges =     0.000000
  Sum of spin   charges =     1.000000

 -----------------------------------------------------------------
                    Cartesian Multipole Moments
 -----------------------------------------------------------------
    Charge (ESU x 10^10)
                 0.0000
    Dipole Moment (Debye)
         X       0.8214      Y      -1.3141      Z       2.6973
       Tot       3.1108
    Quadrupole Moments (Debye-Ang)
        XX     -14.5128     XY      -2.2063     YY     -25.9931
        XZ      18.9444     YZ      -4.4822     ZZ      -0.4660
    Octopole Moments (Debye-Ang^2)
       XXX    -253.1969    XXY     -25.0369    XYY    -106.5167
       YYY    -107.2240    XXZ      11.4963    XYZ       5.6166
       YYZ    -128.2208    XZZ      43.2165    YZZ     -54.6385
       ZZZ    -204.7915
    Hexadecapole Moments (Debye-Ang^3)
      XXXX   -2549.2246   XXXY    -334.7275   XXYY    -495.5247
      XYYY    -456.8011   YYYY    -375.5687   XXXZ    -767.7667
      XXYZ     -15.3100   XYYZ    -500.0521   YYYZ    -550.4049
      XXZZ    -134.7847   XYZZ     -81.8509   YYZZ    -738.2961
      XZZZ    -626.5064   YZZZ    -662.4344   ZZZZ   -2868.0408
 -----------------------------------------------------------------
 Calculating analytic gradient of the SCF energy
 Gradient of CDS energy
            1           2           3           4           5           6
    1  -0.0000675   0.0002324  -0.0001540  -0.0004149  -0.0001385   0.0002650
    2  -0.0000605   0.0002376   0.0044381  -0.0053194   0.0001268   0.0002034
    3  -0.0001085  -0.0001854   0.0032047  -0.0024847  -0.0002251  -0.0003629
            7
    1   0.0002774
    2   0.0003741
    3   0.0001618
 Gradient of SCF Energy
            1           2           3           4           5           6
    1   0.0004106  -0.0009431   0.0006464  -0.0154409  -0.0075969   0.0092200
    2  -0.0005374  -0.0007655   0.0132056  -0.0024457  -0.0051407  -0.0067342
    3  -0.0022280   0.0006170  -0.0078035   0.0018364   0.0032300   0.0042418
            7
    1   0.0137038
    2   0.0024178
    3   0.0001062
 Max gradient component =       1.544E-02
 RMS gradient           =       6.645E-03
 Computing fast CPCM-SWIG gradient
 Updating gradient with PCM contributions...
 -- total gradient after adding PCM contribution --
---------------------------------------------------
  Atom         X              Y              Z     
---------------------------------------------------
   1      -0.000325      -0.000106       0.000284
   2       0.000096      -0.000075      -0.000264
   3       0.000353       0.000194       0.000027
   4       0.000582      -0.000276       0.000226
   5       0.000206       0.000322      -0.000203
   6      -0.000248       0.000029       0.000141
   7      -0.000665      -0.000088      -0.000211
---------------------------------------------------
 Number of fixed atoms: 0
 Gradient time:  CPU 31.89 s  wall 2.99 s
 Geometry Optimization Parameters
   NAtoms,    NIC,     NZ,  NCons,   NDum,   NFix, NCnnct, MaxDiis
        7      34       0       0       0       0       0       0

 Cartesian Hessian Update
 Hessian updated using BFGS update


** GEOMETRY OPTIMIZATION IN DELOCALIZED INTERNAL COORDINATES **
   Searching for a Minimum

   Optimization Cycle:   3

                       Coordinates (Angstroms)
     ATOM                X               Y               Z
      1  O         5.3436906633    1.4517684844    3.6276275781
      2  O         4.2205577739    1.0951468595    4.1857125568
      3  C         4.3528665767    1.0722349496    5.6439137209
      4  O         4.4589175676    2.3566702168    6.1462136458
      5  H         3.4185176546    0.6335986918    5.9750421692
      6  H         5.2152555153    0.4497056369    5.8664190219
      7  H         5.3703918485    2.6562718610    6.0534779075
   Point Group: c1    Number of degrees of freedom:    15


   Energy is   -265.462731850

 Hessian updated using BFGS update

 15 Hessian modes will be used to form the next step
  Hessian Eigenvalues:
     0.005537    0.012945    0.087071    0.097330    0.121485    0.144116
     0.171588    0.224690    0.258415    0.348473    0.356619    0.361550
     0.489997    0.551762    0.657767

 Minimum search - taking simple RFO step
 Searching for Lamda that Minimizes Along All modes
 Value Taken    Lamda =  -0.00001002
 Step Taken.  Stepsize is  0.029074

                             Maximum     Tolerance    Cnvgd?
         Gradient           0.000667      0.000300      NO
         Displacement       0.021602      0.001200      NO
         Energy change     -0.000025      0.000001      NO


 New Cartesian Coordinates Obtained by Inverse Iteration

 Displacement from previous Coordinates is:  0.023684
 ----------------------------------------------------------------
             Standard Nuclear Orientation (Angstroms)
    I     Atom           X                Y                Z
 ----------------------------------------------------------------
    1      O       5.3435534559     1.4454811445     3.6246523384
    2      O       4.2194378728     1.0971169074     4.1852349156
    3      C       4.3523741932     1.0734866648     5.6431362654
    4      O       4.4572333819     2.3586277998     6.1446422569
    5      H       3.4193075722     0.6321386672     5.9756774517
    6      H       5.2172887988     0.4534475567     5.8637409362
    7      H       5.3710023252     2.6550979596     6.0613224359
 ----------------------------------------------------------------
 Nuclear Repulsion Energy =         126.39038586 hartrees
 There are       17 alpha and       16 beta electrons
 Discretize the solute cavity surface with Lebedev spheres
	Using 110 Lebedev grid points for each H atom
	Using 194 Lebedev grid points for other atoms
	Atomic van der Waals radii will be scaled by 1.20
 Remove points where switching function is < 1.0e-08
 Keep 638 surface tesserae and discard 468 interior tesserae
 Molecular Surface Area = 78.517 Angst**2
 Applying Cartesian multipole field
    Component          Value
    ---------          -----
     (2,0,0)        1.00000E-12
     (0,2,0)        2.00000E-11
     (0,0,2)       -3.00000E-12
 Nucleus-field energy     =    -0.0000000004 hartrees
 Requested basis set is 6-311++G(2df,2p)
 There are 50 shells and 166 basis functions
 A cutoff of  1.0D-12 yielded   1253 shell pairs
 There are     13968 function pairs (     17602 Cartesian)
 Smallest overlap matrix eigenvalue = 5.50E-04
 Guess MOs from SCF MO coefficient file

 -----------------------------------------------------------------------
  General SCF calculation program by
  Eric Jon Sundstrom, Paul Horn, Yuezhi Mao, Dmitri Zuev, Alec White,
  David Stuck, Shaama M.S., Shane Yost, Joonho Lee, David Small,
  Daniel Levine, Susi Lehtola, Hugh Burton, Evgeny Epifanovsky,
  Bang C. Huynh
 -----------------------------------------------------------------------
 Exchange:     0.1500 Hartree-Fock + 1.0000 wB97M-V + LR-HF
 Correlation:  1.0000 wB97M-V
 Using SG-2 standard quadrature grid
 Nonlocal Correlation:  VV10 with C = 0.0100 and b = 6.00 and scale = 1.00000
 Grid used for NLC:  SG-1 standard quadrature
 
 Citation of the SMD model:
 Marenich, A.V.; Cramer, C.J.; Truhlar, D.G.
 J. Phys. Chem. B 2009, 113, 6378-6396.
 iSolventCode=           1
 Solvent: water                                                           
 
 vradii
            1           2           3           4           5           6
    1   1.5200000   1.5200000   1.8500000   1.5200000   1.2000000   1.2000000
            7
    1   1.2000000
 -------------------------------------------------------
 OpenMP BLAS3 based DFT computing Module                
 Release: version 1.0, May 2013, Q-Chem Inc. Pittsburgh 
 -------------------------------------------------------
 A unrestricted SCF calculation will be
 performed using Roothaan-Hall, DIIS, GDM
 SCF converges when RMS gradient is below 1.0e-07
 ---------------------------------------
  Cycle       Energy         DIIS error
 ---------------------------------------
    1    -265.4466029099      3.45e-04  Roothaan Step
 ---------------------------------------
  Cycle       Energy         DIIS error
 ---------------------------------------
    1    -265.4629240356      3.65e-04  
    2    -265.4648412183      2.89e-04  Done DIIS. Switching to GDM
 ---------------------------------------
  Cycle       Energy        RMS Gradient
 ---------------------------------------
    1    -265.4648412183      8.18e-03   Normal BFGS step
    2    -265.4646612297      1.53e-02  Line search: overstep
    3    -265.4655841392      2.96e-03   Normal BFGS step
    4    -265.4656448089      7.75e-04   Normal BFGS step
    5    -265.4656619176      8.36e-04   Normal BFGS step
    6    -265.4656647072      2.20e-04   Normal BFGS step
    7    -265.4656651191      2.20e-04   Normal BFGS step
    8    -265.4656653357      1.40e-04   Normal BFGS step
    9    -265.4656654318      1.06e-04   Normal BFGS step
   10    -265.4656654532      8.39e-05   Normal BFGS step
   11    -265.4656654771      4.77e-05   Normal BFGS step
   12    -265.4656654922      3.06e-05   Normal BFGS step
   13    -265.4656654992      8.45e-06   Normal BFGS step
   14    -265.4656655004      3.77e-06   Normal BFGS step
   15    -265.4656655005      2.05e-06   Normal BFGS step
   16    -265.4656655005      8.10e-07   Normal BFGS step
   17    -265.4656655005      1.67e-07   Normal BFGS step
   18    -265.4656655005      5.63e-08  Convergence criterion met
 ---------------------------------------
 SCF time:   CPU 375.77s  wall 30.00s 
<S^2> =          0.753852119
(3)  G-ENP(liq) elect-nuc-pol free energy of system     -265.465665501 a.u.
(4)  G-CDS(liq) cavity-dispersion-solvent structure 
     free energy                                                1.8367 kcal/mol
(6)  G-S(liq) free energy of system                     -265.462738524 a.u.
 SCF   energy in the final basis set =     -265.4627385241
 Total energy in the final basis set =     -265.4627385241
 
 --------------------------------------------------------------
 
                    Orbital Energies (a.u.)
 --------------------------------------------------------------
 
 Alpha MOs
 -- Occupied --
-19.4608 -19.4200 -19.3612 -10.4495  -1.3464  -1.1874  -1.0082  -0.7985
 -0.6771  -0.6500  -0.6361  -0.5876  -0.5460  -0.4738  -0.4499  -0.4026
 -0.4016
 -- Virtual --
  0.0323   0.0497   0.0611   0.0805   0.1079   0.1280   0.1529   0.1618
  0.2014   0.2114   0.2212   0.2359   0.2477   0.2681   0.2723   0.2757
  0.2836   0.2949   0.3011   0.3156   0.3479   0.3590   0.3773   0.4082
  0.4277   0.5484   0.5823   0.6007   0.6336   0.6463   0.6795   0.7291
  0.7956   0.8281   0.8482   0.9555   1.0243   1.0358   1.0494   1.0657
  1.0812   1.1125   1.1245   1.1557   1.1661   1.1872   1.2056   1.2206
  1.3068   1.3465   1.3704   1.3896   1.4656   1.4969   1.5128   1.5446
  1.5578   1.5782   1.5984   1.6752   1.6940   1.8213   1.8379   2.0154
  2.0721   2.0978   2.1523   2.2492   2.3053   2.3284   2.3595   2.3905
  2.5732   2.6436   2.6635   2.8238   3.0945   3.1398   3.1847   3.2651
  3.3083   3.3583   3.4180   3.4735   3.4847   3.5276   3.6766   3.7343
  3.7980   3.8329   3.9004   3.9547   4.1324   4.2115   4.2308   4.3080
  4.3866   4.4484   4.5576   4.6906   4.8233   4.8367   4.9635   5.0361
  5.0662   5.0757   5.0783   5.1389   5.1565   5.1826   5.2291   5.2513
  5.2667   5.3049   5.3381   5.4038   5.4917   5.5706   5.6121   5.6546
  5.7188   5.8024   6.0217   6.0846   6.3613   6.4641   6.5731   6.6439
  6.8019   6.8670   6.9306   7.0381   7.0779   7.1461   7.1967   7.2663
  7.2767   7.3372   7.3958   7.4460   7.6099   7.7213   7.7880   7.9729
  8.0569  24.7178  50.4009  50.4745  50.5691
 
 Beta MOs
 -- Occupied --
-19.4507 -19.4009 -19.3610 -10.4498  -1.3206  -1.1855  -0.9740  -0.7883
 -0.6694  -0.6296  -0.6189  -0.5482  -0.5213  -0.4622  -0.4456  -0.3844
 -- Virtual --
 -0.0335   0.0328   0.0498   0.0614   0.0813   0.1090   0.1312   0.1542
  0.1641   0.2037   0.2162   0.2225   0.2390   0.2534   0.2706   0.2740
  0.2774   0.2902   0.2981   0.3031   0.3218   0.3505   0.3618   0.3792
  0.4084   0.4290   0.5489   0.5830   0.6012   0.6336   0.6465   0.6797
  0.7301   0.7990   0.8301   0.8487   0.9580   1.0265   1.0384   1.0517
  1.0776   1.1009   1.1203   1.1290   1.1622   1.1869   1.1915   1.2132
  1.2276   1.3101   1.3507   1.3730   1.3930   1.4768   1.5033   1.5215
  1.5507   1.5724   1.5861   1.6192   1.6807   1.7184   1.8353   1.8468
  2.0200   2.0769   2.1102   2.1594   2.2591   2.3235   2.3322   2.3609
  2.3976   2.5763   2.6476   2.6703   2.8250   3.0952   3.1399   3.1852
  3.2655   3.3083   3.3610   3.4181   3.4741   3.4850   3.5276   3.6781
  3.7364   3.7981   3.8332   3.9008   3.9546   4.1325   4.2121   4.2325
  4.3091   4.3889   4.4499   4.5939   4.7099   4.8419   4.8541   4.9811
  5.0728   5.1183   5.1229   5.1374   5.1677   5.1932   5.2156   5.2444
  5.2606   5.2791   5.3233   5.3615   5.4128   5.5040   5.5815   5.6163
  5.6679   5.7304   5.8120   6.0261   6.0907   6.3725   6.5115   6.5846
  6.6504   6.8864   6.9495   6.9904   7.0448   7.1163   7.1757   7.2223
  7.2726   7.2799   7.3679   7.4182   7.4791   7.6129   7.7277   7.7963
  7.9843   8.0792  24.7176  50.4135  50.4832  50.5703
 --------------------------------------------------------------
 
          Ground-State Mulliken Net Atomic Charges

     Atom                 Charge (a.u.)    Spin (a.u.)
  --------------------------------------------------------
      1 O                    -0.235571       0.686122
      2 O                     0.014057       0.307475
      3 C                    -0.126059      -0.005290
      4 O                    -0.411720       0.002801
      5 H                     0.190400      -0.000067
      6 H                     0.223047       0.007890
      7 H                     0.345846       0.001069
  --------------------------------------------------------
  Sum of atomic charges =    -0.000000
  Sum of spin   charges =     1.000000

 -----------------------------------------------------------------
                    Cartesian Multipole Moments
 -----------------------------------------------------------------
    Charge (ESU x 10^10)
                 0.0000
    Dipole Moment (Debye)
         X       0.8291      Y      -1.3146      Z       2.7211
       Tot       3.1337
    Quadrupole Moments (Debye-Ang)
        XX     -14.4430     XY      -2.1805     YY     -26.0137
        XZ      19.1174     YZ      -4.4380     ZZ      -0.1982
    Octopole Moments (Debye-Ang^2)
       XXX    -252.6692    XXY     -24.7794    XYY    -106.5340
       YYY    -107.3287    XXZ      12.6331    XYZ       6.0149
       YYZ    -128.2056    XZZ      44.9521    YZZ     -54.0759
       ZZZ    -202.3732
    Hexadecapole Moments (Debye-Ang^3)
      XXXX   -2545.4283   XXXY    -332.6480   XXYY    -495.2299
      XYYY    -456.9744   YYYY    -376.0119   XXXZ    -760.4051
      XXYZ     -12.4950   XYYZ    -499.4522   YYYZ    -550.7858
      XXZZ    -123.9862   XYZZ     -77.8103   YYZZ    -737.3666
      XZZZ    -611.5199   YZZZ    -657.2193   ZZZZ   -2848.0983
 -----------------------------------------------------------------
 Calculating analytic gradient of the SCF energy
 Gradient of CDS energy
            1           2           3           4           5           6
    1  -0.0000668   0.0002329  -0.0001688  -0.0004046  -0.0001383   0.0002673
    2  -0.0000597   0.0002382   0.0044317  -0.0053154   0.0001240   0.0002082
    3  -0.0001075  -0.0001855   0.0031968  -0.0024805  -0.0002251  -0.0003620
            7
    1   0.0002783
    2   0.0003730
    3   0.0001638
 Gradient of SCF Energy
            1           2           3           4           5           6
    1   0.0001774  -0.0003735   0.0001202  -0.0158386  -0.0078082   0.0094991
    2  -0.0006164  -0.0005322   0.0131107  -0.0023436  -0.0053820  -0.0066851
    3  -0.0023141   0.0007919  -0.0078147   0.0014892   0.0034415   0.0041100
            7
    1   0.0142236
    2   0.0024486
    3   0.0002963
 Max gradient component =       1.584E-02
 RMS gradient           =       6.762E-03
 Computing fast CPCM-SWIG gradient
 Updating gradient with PCM contributions...
 -- total gradient after adding PCM contribution --
---------------------------------------------------
  Atom         X              Y              Z     
---------------------------------------------------
   1      -0.000568      -0.000204       0.000199
   2       0.000661       0.000155      -0.000119
   3      -0.000118       0.000113      -0.000004
   4       0.000309      -0.000216       0.000060
   5       0.000002       0.000113      -0.000016
   6      -0.000025       0.000035       0.000015
   7      -0.000260       0.000004      -0.000135
---------------------------------------------------
 Number of fixed atoms: 0
 Gradient time:  CPU 31.36 s  wall 3.13 s
 Geometry Optimization Parameters
   NAtoms,    NIC,     NZ,  NCons,   NDum,   NFix, NCnnct, MaxDiis
        7      34       0       0       0       0       0       0

 Cartesian Hessian Update
 Hessian updated using BFGS update


** GEOMETRY OPTIMIZATION IN DELOCALIZED INTERNAL COORDINATES **
   Searching for a Minimum

   Optimization Cycle:   4

                       Coordinates (Angstroms)
     ATOM                X               Y               Z
      1  O         5.3435534559    1.4454811445    3.6246523384
      2  O         4.2194378728    1.0971169074    4.1852349156
      3  C         4.3523741932    1.0734866648    5.6431362654
      4  O         4.4572333819    2.3586277998    6.1446422569
      5  H         3.4193075722    0.6321386672    5.9756774517
      6  H         5.2172887988    0.4534475567    5.8637409362
      7  H         5.3710023252    2.6550979596    6.0613224359
   Point Group: c1    Number of degrees of freedom:    15


   Energy is   -265.462738524

 Hessian updated using BFGS update

 15 Hessian modes will be used to form the next step
  Hessian Eigenvalues:
     0.004562    0.009427    0.093594    0.096991    0.121082    0.144924
     0.171147    0.224327    0.286876    0.348662    0.358545    0.363932
     0.486328    0.532698    0.635067

 Minimum search - taking simple RFO step
 Searching for Lamda that Minimizes Along All modes
 Value Taken    Lamda =  -0.00000441
 Step Taken.  Stepsize is  0.023636

                             Maximum     Tolerance    Cnvgd?
         Gradient           0.000464      0.000300      NO
         Displacement       0.019179      0.001200      NO
         Energy change     -0.000007      0.000001      NO


 New Cartesian Coordinates Obtained by Inverse Iteration

 Displacement from previous Coordinates is:  0.018627
 ----------------------------------------------------------------
             Standard Nuclear Orientation (Angstroms)
    I     Atom           X                Y                Z
 ----------------------------------------------------------------
    1      O       5.3430157582     1.4416958391     3.6224201299
    2      O       4.2179326984     1.0972526390     4.1844373885
    3      C       4.3524693446     1.0744752909     5.6422521467
    4      O       4.4559214772     2.3606268105     6.1425564856
    5      H       3.4203987889     0.6314534528     5.9758558994
    6      H       5.2186325229     0.4559403470     5.8625191743
    7      H       5.3718270098     2.6539523205     6.0683653757
 ----------------------------------------------------------------
 Nuclear Repulsion Energy =         126.35523816 hartrees
 There are       17 alpha and       16 beta electrons
 Discretize the solute cavity surface with Lebedev spheres
	Using 110 Lebedev grid points for each H atom
	Using 194 Lebedev grid points for other atoms
	Atomic van der Waals radii will be scaled by 1.20
 Remove points where switching function is < 1.0e-08
 Keep 638 surface tesserae and discard 468 interior tesserae
 Molecular Surface Area = 78.536 Angst**2
 Applying Cartesian multipole field
    Component          Value
    ---------          -----
     (2,0,0)        1.00000E-12
     (0,2,0)        2.00000E-11
     (0,0,2)       -3.00000E-12
 Nucleus-field energy     =    -0.0000000004 hartrees
 Requested basis set is 6-311++G(2df,2p)
 There are 50 shells and 166 basis functions
 A cutoff of  1.0D-12 yielded   1252 shell pairs
 There are     13965 function pairs (     17599 Cartesian)
 Smallest overlap matrix eigenvalue = 5.51E-04
 Guess MOs from SCF MO coefficient file

 -----------------------------------------------------------------------
  General SCF calculation program by
  Eric Jon Sundstrom, Paul Horn, Yuezhi Mao, Dmitri Zuev, Alec White,
  David Stuck, Shaama M.S., Shane Yost, Joonho Lee, David Small,
  Daniel Levine, Susi Lehtola, Hugh Burton, Evgeny Epifanovsky,
  Bang C. Huynh
 -----------------------------------------------------------------------
 Exchange:     0.1500 Hartree-Fock + 1.0000 wB97M-V + LR-HF
 Correlation:  1.0000 wB97M-V
 Using SG-2 standard quadrature grid
 Nonlocal Correlation:  VV10 with C = 0.0100 and b = 6.00 and scale = 1.00000
 Grid used for NLC:  SG-1 standard quadrature
 
 Citation of the SMD model:
 Marenich, A.V.; Cramer, C.J.; Truhlar, D.G.
 J. Phys. Chem. B 2009, 113, 6378-6396.
 iSolventCode=           1
 Solvent: water                                                           
 
 vradii
            1           2           3           4           5           6
    1   1.5200000   1.5200000   1.8500000   1.5200000   1.2000000   1.2000000
            7
    1   1.2000000
 -------------------------------------------------------
 OpenMP BLAS3 based DFT computing Module                
 Release: version 1.0, May 2013, Q-Chem Inc. Pittsburgh 
 -------------------------------------------------------
 A unrestricted SCF calculation will be
 performed using Roothaan-Hall, DIIS, GDM
 SCF converges when RMS gradient is below 1.0e-07
 ---------------------------------------
  Cycle       Energy         DIIS error
 ---------------------------------------
    1    -265.4465487878      3.45e-04  Roothaan Step
 ---------------------------------------
  Cycle       Energy         DIIS error
 ---------------------------------------
    1    -265.4629073944      3.66e-04  
    2    -265.4648365054      2.90e-04  Done DIIS. Switching to GDM
 ---------------------------------------
  Cycle       Energy        RMS Gradient
 ---------------------------------------
    1    -265.4648365054      8.40e-03   Normal BFGS step
    2    -265.4646554156      1.53e-02  Line search: overstep
    3    -265.4655849815      2.84e-03   Normal BFGS step
    4    -265.4656456176      7.83e-04   Normal BFGS step
    5    -265.4656627517      8.06e-04   Normal BFGS step
    6    -265.4656654764      1.95e-04   Normal BFGS step
    7    -265.4656658468      2.09e-04   Normal BFGS step
    8    -265.4656660227      1.14e-04   Normal BFGS step
    9    -265.4656660829      4.17e-05   Normal BFGS step
   10    -265.4656660892      3.43e-05   Normal BFGS step
   11    -265.4656660916      2.77e-05   Normal BFGS step
   12    -265.4656660938      1.79e-05   Normal BFGS step
   13    -265.4656660957      6.05e-06   Normal BFGS step
   14    -265.4656660965      2.98e-06   Normal BFGS step
   15    -265.4656660966      1.24e-06   Normal BFGS step
   16    -265.4656660966      5.97e-07   Normal BFGS step
   17    -265.4656660966      1.63e-07   Normal BFGS step
   18    -265.4656660966      4.61e-08  Convergence criterion met
 ---------------------------------------
 SCF time:   CPU 380.19s  wall 30.00s 
<S^2> =          0.753853891
(3)  G-ENP(liq) elect-nuc-pol free energy of system     -265.465666097 a.u.
(4)  G-CDS(liq) cavity-dispersion-solvent structure 
     free energy                                                1.8355 kcal/mol
(6)  G-S(liq) free energy of system                     -265.462741102 a.u.
 SCF   energy in the final basis set =     -265.4627411021
 Total energy in the final basis set =     -265.4627411021
 
 --------------------------------------------------------------
 
                    Orbital Energies (a.u.)
 --------------------------------------------------------------
 
 Alpha MOs
 -- Occupied --
-19.4607 -19.4200 -19.3613 -10.4495  -1.3461  -1.1873  -1.0082  -0.7985
 -0.6769  -0.6498  -0.6361  -0.5877  -0.5460  -0.4732  -0.4503  -0.4028
 -0.4016
 -- Virtual --
  0.0323   0.0497   0.0611   0.0805   0.1079   0.1279   0.1529   0.1617
  0.2014   0.2114   0.2211   0.2359   0.2477   0.2678   0.2724   0.2760
  0.2834   0.2949   0.3010   0.3157   0.3480   0.3585   0.3773   0.4083
  0.4277   0.5483   0.5825   0.6006   0.6336   0.6462   0.6793   0.7284
  0.7966   0.8276   0.8489   0.9555   1.0239   1.0360   1.0497   1.0654
  1.0812   1.1119   1.1242   1.1557   1.1660   1.1871   1.2061   1.2205
  1.3067   1.3466   1.3704   1.3894   1.4653   1.4976   1.5123   1.5452
  1.5580   1.5781   1.5984   1.6738   1.6945   1.8207   1.8383   2.0146
  2.0719   2.0980   2.1525   2.2488   2.3051   2.3288   2.3595   2.3900
  2.5727   2.6442   2.6628   2.8214   3.0950   3.1396   3.1846   3.2650
  3.3064   3.3581   3.4195   3.4732   3.4848   3.5274   3.6768   3.7346
  3.7981   3.8327   3.9010   3.9537   4.1319   4.2108   4.2294   4.3078
  4.3862   4.4481   4.5575   4.6906   4.8234   4.8361   4.9637   5.0361
  5.0660   5.0758   5.0783   5.1389   5.1566   5.1829   5.2304   5.2510
  5.2660   5.3048   5.3378   5.4015   5.4913   5.5697   5.6122   5.6552
  5.7180   5.8013   6.0193   6.0852   6.3612   6.4624   6.5714   6.6428
  6.8018   6.8668   6.9302   7.0380   7.0776   7.1457   7.1957   7.2668
  7.2755   7.3370   7.3954   7.4466   7.6094   7.7206   7.7885   7.9726
  8.0558  24.7167  50.4005  50.4740  50.5688
 
 Beta MOs
 -- Occupied --
-19.4507 -19.4010 -19.3610 -10.4499  -1.3203  -1.1853  -0.9740  -0.7883
 -0.6693  -0.6296  -0.6189  -0.5483  -0.5210  -0.4618  -0.4459  -0.3845
 -- Virtual --
 -0.0336   0.0328   0.0498   0.0614   0.0813   0.1090   0.1311   0.1542
  0.1640   0.2037   0.2161   0.2225   0.2391   0.2533   0.2703   0.2740
  0.2776   0.2902   0.2981   0.3029   0.3218   0.3506   0.3614   0.3792
  0.4085   0.4290   0.5488   0.5832   0.6011   0.6336   0.6463   0.6794
  0.7295   0.8000   0.8296   0.8494   0.9579   1.0261   1.0386   1.0520
  1.0777   1.1005   1.1198   1.1288   1.1621   1.1867   1.1918   1.2136
  1.2275   1.3101   1.3507   1.3730   1.3928   1.4765   1.5041   1.5210
  1.5513   1.5727   1.5861   1.6192   1.6792   1.7189   1.8347   1.8473
  2.0191   2.0767   2.1104   2.1596   2.2586   2.3232   2.3327   2.3609
  2.3972   2.5758   2.6483   2.6696   2.8226   3.0956   3.1398   3.1851
  3.2654   3.3064   3.3608   3.4196   3.4737   3.4851   3.5275   3.6783
  3.7367   3.7982   3.8330   3.9014   3.9536   4.1321   4.2115   4.2310
  4.3089   4.3885   4.4495   4.5937   4.7100   4.8413   4.8542   4.9813
  5.0725   5.1183   5.1230   5.1377   5.1678   5.1936   5.2157   5.2454
  5.2599   5.2788   5.3230   5.3611   5.4108   5.5035   5.5805   5.6166
  5.6686   5.7295   5.8109   6.0237   6.0913   6.3725   6.5098   6.5829
  6.6492   6.8864   6.9494   6.9900   7.0447   7.1160   7.1752   7.2214
  7.2726   7.2791   7.3678   7.4179   7.4795   7.6124   7.7270   7.7967
  7.9839   8.0780  24.7164  50.4131  50.4827  50.5700
 --------------------------------------------------------------
 
          Ground-State Mulliken Net Atomic Charges

     Atom                 Charge (a.u.)    Spin (a.u.)
  --------------------------------------------------------
      1 O                    -0.235882       0.686445
      2 O                     0.014326       0.307200
      3 C                    -0.125492      -0.005303
      4 O                    -0.412269       0.002795
      5 H                     0.190322      -0.000082
      6 H                     0.222995       0.007835
      7 H                     0.346001       0.001109
  --------------------------------------------------------
  Sum of atomic charges =     0.000000
  Sum of spin   charges =     1.000000

 -----------------------------------------------------------------
                    Cartesian Multipole Moments
 -----------------------------------------------------------------
    Charge (ESU x 10^10)
                 0.0000
    Dipole Moment (Debye)
         X       0.8396      Y      -1.3169      Z       2.7433
       Tot       3.1568
    Quadrupole Moments (Debye-Ang)
        XX     -14.3451     XY      -2.1687     YY     -26.0409
        XZ      19.2960     YZ      -4.4053     ZZ       0.0589
    Octopole Moments (Debye-Ang^2)
       XXX    -251.9204    XXY     -24.6079    XYY    -106.5987
       YYY    -107.4578    XXZ      13.8571    XYZ       6.3295
       YYZ    -128.2199    XZZ      46.6956    YZZ     -53.5802
       ZZZ    -200.0007
    Hexadecapole Moments (Debye-Ang^3)
      XXXX   -2540.0093   XXXY    -331.0982   XXYY    -495.2337
      XYYY    -457.3483   YYYY    -376.5864   XXXZ    -752.3313
      XXYZ     -10.1906   XYYZ    -499.0963   YYYZ    -551.2284
      XXZZ    -112.8829   XYZZ     -74.2886   YYZZ    -736.5669
      XZZZ    -596.5104   YZZZ    -652.3296   ZZZZ   -2828.0911
 -----------------------------------------------------------------
 Calculating analytic gradient of the SCF energy
 Gradient of CDS energy
            1           2           3           4           5           6
    1  -0.0000664   0.0002320  -0.0001802  -0.0003941  -0.0001386   0.0002687
    2  -0.0000589   0.0002387   0.0044239  -0.0053102   0.0001223   0.0002113
    3  -0.0001070  -0.0001857   0.0031866  -0.0024734  -0.0002259  -0.0003605
            7
    1   0.0002786
    2   0.0003728
    3   0.0001659
 Gradient of SCF Energy
            1           2           3           4           5           6
    1   0.0004857  -0.0007807   0.0001493  -0.0163188  -0.0078400   0.0096124
    2  -0.0005232  -0.0006060   0.0129924  -0.0020737  -0.0054938  -0.0067343
    3  -0.0024058   0.0008392  -0.0078523   0.0013018   0.0034934   0.0041318
            7
    1   0.0146921
    2   0.0024385
    3   0.0004919
 Max gradient component =       1.632E-02
 RMS gradient           =       6.871E-03
 Computing fast CPCM-SWIG gradient
 Updating gradient with PCM contributions...
 -- total gradient after adding PCM contribution --
---------------------------------------------------
  Atom         X              Y              Z     
---------------------------------------------------
   1      -0.000250      -0.000128       0.000093
   2       0.000250       0.000083      -0.000082
   3      -0.000053      -0.000010      -0.000043
   4      -0.000061       0.000000       0.000055
   5      -0.000041       0.000018       0.000024
   6       0.000044      -0.000025       0.000016
   7       0.000110       0.000062      -0.000063
---------------------------------------------------
 Number of fixed atoms: 0
 Gradient time:  CPU 32.16 s  wall 3.09 s
 Geometry Optimization Parameters
   NAtoms,    NIC,     NZ,  NCons,   NDum,   NFix, NCnnct, MaxDiis
        7      34       0       0       0       0       0       0

 Cartesian Hessian Update
 Hessian updated using BFGS update


** GEOMETRY OPTIMIZATION IN DELOCALIZED INTERNAL COORDINATES **
   Searching for a Minimum

   Optimization Cycle:   5

                       Coordinates (Angstroms)
     ATOM                X               Y               Z
      1  O         5.3430157582    1.4416958391    3.6224201299
      2  O         4.2179326984    1.0972526390    4.1844373885
      3  C         4.3524693446    1.0744752909    5.6422521467
      4  O         4.4559214772    2.3606268105    6.1425564856
      5  H         3.4203987889    0.6314534528    5.9758558994
      6  H         5.2186325229    0.4559403470    5.8625191743
      7  H         5.3718270098    2.6539523205    6.0683653757
   Point Group: c1    Number of degrees of freedom:    15


   Energy is   -265.462741102

 Hessian updated using BFGS update

 15 Hessian modes will be used to form the next step
  Hessian Eigenvalues:
     0.004831    0.007677    0.093597    0.096782    0.121086    0.144766
     0.170495    0.223825    0.283704    0.350163    0.359504    0.363744
     0.493234    0.548024    0.593391

 Minimum search - taking simple RFO step
 Searching for Lamda that Minimizes Along All modes
 Value Taken    Lamda =  -0.00000052
 Step Taken.  Stepsize is  0.006873

                             Maximum     Tolerance    Cnvgd?
         Gradient           0.000204      0.000300     YES
         Displacement       0.004306      0.001200      NO
         Energy change     -0.000003      0.000001      NO


 New Cartesian Coordinates Obtained by Inverse Iteration

 Displacement from previous Coordinates is:  0.005043
 ----------------------------------------------------------------
             Standard Nuclear Orientation (Angstroms)
    I     Atom           X                Y                Z
 ----------------------------------------------------------------
    1      O       5.3426432057     1.4426019749     3.6221436387
    2      O       4.2178912959     1.0961950527     4.1842902379
    3      C       4.3524453212     1.0745291041     5.6421328326
    4      O       4.4558058391     2.3611291603     6.1412404909
    5      H       3.4205024726     0.6315603924     5.9760879397
    6      H       5.2186197102     0.4563593161     5.8629628243
    7      H       5.3722897553     2.6530216996     6.0695486361
 ----------------------------------------------------------------
 Nuclear Repulsion Energy =         126.35401314 hartrees
 There are       17 alpha and       16 beta electrons
 Discretize the solute cavity surface with Lebedev spheres
	Using 110 Lebedev grid points for each H atom
	Using 194 Lebedev grid points for other atoms
	Atomic van der Waals radii will be scaled by 1.20
 Remove points where switching function is < 1.0e-08
 Keep 638 surface tesserae and discard 468 interior tesserae
 Molecular Surface Area = 78.535 Angst**2
 Applying Cartesian multipole field
    Component          Value
    ---------          -----
     (2,0,0)        1.00000E-12
     (0,2,0)        2.00000E-11
     (0,0,2)       -3.00000E-12
 Nucleus-field energy     =    -0.0000000004 hartrees
 Requested basis set is 6-311++G(2df,2p)
 There are 50 shells and 166 basis functions
 A cutoff of  1.0D-12 yielded   1252 shell pairs
 There are     13965 function pairs (     17599 Cartesian)
 Smallest overlap matrix eigenvalue = 5.52E-04
 Guess MOs from SCF MO coefficient file

 -----------------------------------------------------------------------
  General SCF calculation program by
  Eric Jon Sundstrom, Paul Horn, Yuezhi Mao, Dmitri Zuev, Alec White,
  David Stuck, Shaama M.S., Shane Yost, Joonho Lee, David Small,
  Daniel Levine, Susi Lehtola, Hugh Burton, Evgeny Epifanovsky,
  Bang C. Huynh
 -----------------------------------------------------------------------
 Exchange:     0.1500 Hartree-Fock + 1.0000 wB97M-V + LR-HF
 Correlation:  1.0000 wB97M-V
 Using SG-2 standard quadrature grid
 Nonlocal Correlation:  VV10 with C = 0.0100 and b = 6.00 and scale = 1.00000
 Grid used for NLC:  SG-1 standard quadrature
 
 Citation of the SMD model:
 Marenich, A.V.; Cramer, C.J.; Truhlar, D.G.
 J. Phys. Chem. B 2009, 113, 6378-6396.
 iSolventCode=           1
 Solvent: water                                                           
 
 vradii
            1           2           3           4           5           6
    1   1.5200000   1.5200000   1.8500000   1.5200000   1.2000000   1.2000000
            7
    1   1.2000000
 -------------------------------------------------------
 OpenMP BLAS3 based DFT computing Module                
 Release: version 1.0, May 2013, Q-Chem Inc. Pittsburgh 
 -------------------------------------------------------
 A unrestricted SCF calculation will be
 performed using Roothaan-Hall, DIIS, GDM
 SCF converges when RMS gradient is below 1.0e-07
 ---------------------------------------
  Cycle       Energy         DIIS error
 ---------------------------------------
    1    -265.4465478060      3.44e-04  Roothaan Step
 ---------------------------------------
  Cycle       Energy         DIIS error
 ---------------------------------------
    1    -265.4629053516      3.66e-04  
    2    -265.4648417952      2.89e-04  Done DIIS. Switching to GDM
 ---------------------------------------
  Cycle       Energy        RMS Gradient
 ---------------------------------------
    1    -265.4648417952      8.53e-03   Normal BFGS step
    2    -265.4646664897      1.51e-02  Line search: overstep
    3    -265.4655853137      2.70e-03   Normal BFGS step
    4    -265.4656460484      7.80e-04   Normal BFGS step
    5    -265.4656632333      7.76e-04   Normal BFGS step
    6    -265.4656659803      1.71e-04   Normal BFGS step
    7    -265.4656663607      1.93e-04   Normal BFGS step
    8    -265.4656665434      1.05e-04   Normal BFGS step
    9    -265.4656666054      3.69e-05   Normal BFGS step
   10    -265.4656666114      3.23e-05   Normal BFGS step
   11    -265.4656666135      2.70e-05   Normal BFGS step
   12    -265.4656666155      1.87e-05   Normal BFGS step
   13    -265.4656666174      7.10e-06   Normal BFGS step
   14    -265.4656666181      2.81e-06   Normal BFGS step
   15    -265.4656666182      7.00e-07   Normal BFGS step
   16    -265.4656666182      2.06e-07   Normal BFGS step
   17    -265.4656666182      8.83e-08  Convergence criterion met
 ---------------------------------------
 SCF time:   CPU 337.87s  wall 27.00s 
<S^2> =          0.753855014
(3)  G-ENP(liq) elect-nuc-pol free energy of system     -265.465666618 a.u.
(4)  G-CDS(liq) cavity-dispersion-solvent structure 
     free energy                                                1.8356 kcal/mol
(6)  G-S(liq) free energy of system                     -265.462741418 a.u.
 SCF   energy in the final basis set =     -265.4627414181
 Total energy in the final basis set =     -265.4627414181
 
 --------------------------------------------------------------
 
                    Orbital Energies (a.u.)
 --------------------------------------------------------------
 
 Alpha MOs
 -- Occupied --
-19.4607 -19.4201 -19.3613 -10.4495  -1.3459  -1.1873  -1.0083  -0.7985
 -0.6769  -0.6498  -0.6361  -0.5877  -0.5459  -0.4731  -0.4504  -0.4028
 -0.4017
 -- Virtual --
  0.0323   0.0497   0.0611   0.0805   0.1079   0.1279   0.1529   0.1617
  0.2013   0.2114   0.2211   0.2359   0.2477   0.2678   0.2723   0.2761
  0.2832   0.2950   0.3010   0.3157   0.3480   0.3584   0.3773   0.4084
  0.4275   0.5482   0.5825   0.6006   0.6336   0.6462   0.6792   0.7283
  0.7970   0.8275   0.8491   0.9556   1.0238   1.0360   1.0498   1.0655
  1.0812   1.1118   1.1240   1.1557   1.1659   1.1872   1.2060   1.2205
  1.3067   1.3465   1.3705   1.3893   1.4654   1.4977   1.5122   1.5456
  1.5582   1.5782   1.5985   1.6735   1.6945   1.8204   1.8383   2.0145
  2.0717   2.0980   2.1527   2.2484   2.3049   2.3288   2.3595   2.3897
  2.5726   2.6444   2.6631   2.8209   3.0951   3.1395   3.1846   3.2648
  3.3062   3.3584   3.4200   3.4728   3.4848   3.5274   3.6769   3.7346
  3.7982   3.8327   3.9013   3.9537   4.1319   4.2110   4.2293   4.3080
  4.3862   4.4482   4.5575   4.6906   4.8233   4.8357   4.9637   5.0361
  5.0659   5.0758   5.0784   5.1389   5.1565   5.1830   5.2308   5.2509
  5.2659   5.3049   5.3379   5.4009   5.4914   5.5697   5.6126   5.6552
  5.7179   5.8012   6.0190   6.0855   6.3613   6.4613   6.5704   6.6427
  6.8018   6.8667   6.9300   7.0379   7.0775   7.1456   7.1954   7.2671
  7.2760   7.3371   7.3955   7.4465   7.6091   7.7206   7.7885   7.9724
  8.0551  24.7169  50.4002  50.4739  50.5688
 
 Beta MOs
 -- Occupied --
-19.4507 -19.4010 -19.3610 -10.4499  -1.3201  -1.1853  -0.9740  -0.7883
 -0.6692  -0.6295  -0.6189  -0.5482  -0.5210  -0.4617  -0.4460  -0.3845
 -- Virtual --
 -0.0336   0.0328   0.0498   0.0614   0.0813   0.1090   0.1311   0.1541
  0.1640   0.2036   0.2161   0.2225   0.2392   0.2533   0.2703   0.2740
  0.2777   0.2901   0.2981   0.3029   0.3218   0.3506   0.3612   0.3792
  0.4086   0.4289   0.5487   0.5832   0.6011   0.6335   0.6463   0.6794
  0.7293   0.8003   0.8296   0.8497   0.9581   1.0260   1.0387   1.0521
  1.0780   1.1003   1.1197   1.1286   1.1621   1.1866   1.1918   1.2136
  1.2274   1.3100   1.3506   1.3731   1.3927   1.4766   1.5043   1.5210
  1.5516   1.5729   1.5862   1.6193   1.6790   1.7188   1.8344   1.8473
  2.0190   2.0766   2.1105   2.1597   2.2583   2.3229   2.3327   2.3610
  2.3968   2.5757   2.6485   2.6698   2.8222   3.0958   3.1397   3.1851
  3.2653   3.3062   3.3611   3.4200   3.4733   3.4851   3.5274   3.6784
  3.7367   3.7983   3.8330   3.9017   3.9536   4.1321   4.2117   4.2309
  4.3091   4.3885   4.4496   4.5937   4.7099   4.8409   4.8541   4.9814
  5.0725   5.1184   5.1231   5.1377   5.1679   5.1937   5.2157   5.2457
  5.2598   5.2789   5.3230   5.3612   5.4102   5.5037   5.5805   5.6170
  5.6684   5.7294   5.8108   6.0233   6.0916   6.3726   6.5087   6.5819
  6.6492   6.8864   6.9494   6.9898   7.0446   7.1159   7.1749   7.2211
  7.2729   7.2796   7.3679   7.4179   7.4794   7.6121   7.7269   7.7968
  7.9838   8.0773  24.7166  50.4128  50.4826  50.5700
 --------------------------------------------------------------
 
          Ground-State Mulliken Net Atomic Charges

     Atom                 Charge (a.u.)    Spin (a.u.)
  --------------------------------------------------------
      1 O                    -0.235812       0.686562
      2 O                     0.014146       0.307077
      3 C                    -0.125433      -0.005279
      4 O                    -0.412201       0.002753
      5 H                     0.190343      -0.000085
      6 H                     0.222991       0.007858
      7 H                     0.345967       0.001114
  --------------------------------------------------------
  Sum of atomic charges =    -0.000000
  Sum of spin   charges =     1.000000

 -----------------------------------------------------------------
                    Cartesian Multipole Moments
 -----------------------------------------------------------------
    Charge (ESU x 10^10)
                 0.0000
    Dipole Moment (Debye)
         X       0.8422      Y      -1.3203      Z       2.7506
       Tot       3.1651
    Quadrupole Moments (Debye-Ang)
        XX     -14.3173     XY      -2.1840     YY     -26.0609
        XZ      19.3454     YZ      -4.4085     ZZ       0.1456
    Octopole Moments (Debye-Ang^2)
       XXX    -251.6821    XXY     -24.6731    XYY    -106.6947
       YYY    -107.5441    XXZ      14.1939    XYZ       6.3248
       YYZ    -128.2844    XZZ      47.2045    YZZ     -53.4992
       ZZZ    -199.1837
    Hexadecapole Moments (Debye-Ang^3)
      XXXX   -2538.1501   XXXY    -331.3508   XXYY    -495.6954
      XYYY    -457.7788   YYYY    -376.9463   XXXZ    -750.0475
      XXYZ     -10.1146   XYYZ    -499.3962   YYYZ    -551.5611
      XXZZ    -109.7694   XYZZ     -73.7997   YYZZ    -736.6461
      XZZZ    -591.9868   YZZZ    -651.1660   ZZZZ   -2821.0206
 -----------------------------------------------------------------
 Calculating analytic gradient of the SCF energy
 Gradient of CDS energy
            1           2           3           4           5           6
    1  -0.0000664   0.0002319  -0.0001826  -0.0003925  -0.0001384   0.0002692
    2  -0.0000587   0.0002387   0.0044254  -0.0053115   0.0001218   0.0002120
    3  -0.0001070  -0.0001859   0.0031813  -0.0024685  -0.0002262  -0.0003601
            7
    1   0.0002788
    2   0.0003723
    3   0.0001665
 Gradient of SCF Energy
            1           2           3           4           5           6
    1   0.0007110  -0.0010129   0.0001729  -0.0163135  -0.0078116   0.0095873
    2  -0.0004343  -0.0006694   0.0129636  -0.0020130  -0.0054896  -0.0067063
    3  -0.0025129   0.0009469  -0.0078363   0.0011950   0.0035161   0.0041366
            7
    1   0.0146668
    2   0.0023490
    3   0.0005547
 Max gradient component =       1.631E-02
 RMS gradient           =       6.862E-03
 Computing fast CPCM-SWIG gradient
 Updating gradient with PCM contributions...
 -- total gradient after adding PCM contribution --
---------------------------------------------------
  Atom         X              Y              Z     
---------------------------------------------------
   1      -0.000014      -0.000047      -0.000022
   2       0.000011       0.000025       0.000031
   3      -0.000015      -0.000046      -0.000017
   4      -0.000039       0.000036       0.000005
   5      -0.000014       0.000024       0.000039
   6       0.000005       0.000004       0.000008
   7       0.000067       0.000005      -0.000044
---------------------------------------------------
 Number of fixed atoms: 0
 Gradient time:  CPU 31.70 s  wall 3.10 s
 Geometry Optimization Parameters
   NAtoms,    NIC,     NZ,  NCons,   NDum,   NFix, NCnnct, MaxDiis
        7      34       0       0       0       0       0       0

 Cartesian Hessian Update
 Hessian updated using BFGS update


** GEOMETRY OPTIMIZATION IN DELOCALIZED INTERNAL COORDINATES **
   Searching for a Minimum

   Optimization Cycle:   6

                       Coordinates (Angstroms)
     ATOM                X               Y               Z
      1  O         5.3426432057    1.4426019749    3.6221436387
      2  O         4.2178912959    1.0961950527    4.1842902379
      3  C         4.3524453212    1.0745291041    5.6421328326
      4  O         4.4558058391    2.3611291603    6.1412404909
      5  H         3.4205024726    0.6315603924    5.9760879397
      6  H         5.2186197102    0.4563593161    5.8629628243
      7  H         5.3722897553    2.6530216996    6.0695486361
   Point Group: c1    Number of degrees of freedom:    15


   Energy is   -265.462741418

 Hessian updated using BFGS update

 14 Hessian modes will be used to form the next step
  Hessian Eigenvalues:
     0.005096    0.005255    0.093497    0.121027    0.144206    0.178307
     0.229070    0.278244    0.350716    0.359057    0.361749    0.491852
     0.544480    0.629287

 Minimum search - taking simple RFO step
 Searching for Lamda that Minimizes Along All modes
 Value Taken    Lamda =  -0.00000011
 Step Taken.  Stepsize is  0.003983

                             Maximum     Tolerance    Cnvgd?
         Gradient           0.000050      0.000300     YES
         Displacement       0.003150      0.001200      NO
         Energy change     -0.000000      0.000001     YES


                       Distance Matrix (Angstroms)
             O (  1)   O (  2)   C (  3)   O (  4)   H (  5)   H (  6)
   O (  2)  1.304252
   C (  3)  2.279545  1.464199
   O (  4)  2.824185  2.342289  1.383883
   H (  5)  3.145388  2.015503  1.084557  2.022507
   H (  6)  2.451393  2.056402  1.086811  2.070621  1.810171
   H (  7)  2.730529  2.703802  1.927279  0.964512  2.811497  2.211700

 
 Final energy is   -265.462741418089     


 ******************************
 **  OPTIMIZATION CONVERGED  **
 ******************************

                       Coordinates (Angstroms)
     ATOM                X               Y               Z
      1  O         5.3426432057    1.4426019749    3.6221436387
      2  O         4.2178912959    1.0961950527    4.1842902379
      3  C         4.3524453212    1.0745291041    5.6421328326
      4  O         4.4558058391    2.3611291603    6.1412404909
      5  H         3.4205024726    0.6315603924    5.9760879397
      6  H         5.2186197102    0.4563593161    5.8629628243
      7  H         5.3722897553    2.6530216996    6.0695486361

Z-matrix Print:
$molecule
0 2
O 
O  1 1.304252
C  1 1.464199 2 110.721204
H  3 1.084557 1 103.512673 2 -171.547741 0
H  3 1.086811 1 106.496999 2 -52.243325 0
O  3 1.383883 1 110.621838 2 71.310662 0
H  6 0.964512 3 108.997097 1 -83.132761 0
$end

 
 --------------------------------------------------------------
 
                    Orbital Energies (a.u.)
 --------------------------------------------------------------
 
 Alpha MOs
 -- Occupied --
-19.4607 -19.4201 -19.3613 -10.4495  -1.3459  -1.1873  -1.0083  -0.7985
 -0.6769  -0.6498  -0.6361  -0.5877  -0.5459  -0.4731  -0.4504  -0.4028
 -0.4017
 -- Virtual --
  0.0323   0.0497   0.0611   0.0805   0.1079   0.1279   0.1529   0.1617
  0.2013   0.2114   0.2211   0.2359   0.2477   0.2678   0.2723   0.2761
  0.2832   0.2950   0.3010   0.3157   0.3480   0.3584   0.3773   0.4084
  0.4275   0.5482   0.5825   0.6006   0.6336   0.6462   0.6792   0.7283
  0.7970   0.8275   0.8491   0.9556   1.0238   1.0360   1.0498   1.0655
  1.0812   1.1118   1.1240   1.1557   1.1659   1.1872   1.2060   1.2205
  1.3067   1.3465   1.3705   1.3893   1.4654   1.4977   1.5122   1.5456
  1.5582   1.5782   1.5985   1.6735   1.6945   1.8204   1.8383   2.0145
  2.0717   2.0980   2.1527   2.2484   2.3049   2.3288   2.3595   2.3897
  2.5726   2.6444   2.6631   2.8209   3.0951   3.1395   3.1846   3.2648
  3.3062   3.3584   3.4200   3.4728   3.4848   3.5274   3.6769   3.7346
  3.7982   3.8327   3.9013   3.9537   4.1319   4.2110   4.2293   4.3080
  4.3862   4.4482   4.5575   4.6906   4.8233   4.8357   4.9637   5.0361
  5.0659   5.0758   5.0784   5.1389   5.1565   5.1830   5.2308   5.2509
  5.2659   5.3049   5.3379   5.4009   5.4914   5.5697   5.6126   5.6552
  5.7179   5.8012   6.0190   6.0855   6.3613   6.4613   6.5704   6.6427
  6.8018   6.8667   6.9300   7.0379   7.0775   7.1456   7.1954   7.2671
  7.2760   7.3371   7.3955   7.4465   7.6091   7.7206   7.7885   7.9724
  8.0551  24.7169  50.4002  50.4739  50.5688
 
 Beta MOs
 -- Occupied --
-19.4507 -19.4010 -19.3610 -10.4499  -1.3201  -1.1853  -0.9740  -0.7883
 -0.6692  -0.6295  -0.6189  -0.5482  -0.5210  -0.4617  -0.4460  -0.3845
 -- Virtual --
 -0.0336   0.0328   0.0498   0.0614   0.0813   0.1090   0.1311   0.1541
  0.1640   0.2036   0.2161   0.2225   0.2392   0.2533   0.2703   0.2740
  0.2777   0.2901   0.2981   0.3029   0.3218   0.3506   0.3612   0.3792
  0.4086   0.4289   0.5487   0.5832   0.6011   0.6335   0.6463   0.6794
  0.7293   0.8003   0.8296   0.8497   0.9581   1.0260   1.0387   1.0521
  1.0780   1.1003   1.1197   1.1286   1.1621   1.1866   1.1918   1.2136
  1.2274   1.3100   1.3506   1.3731   1.3927   1.4766   1.5043   1.5210
  1.5516   1.5729   1.5862   1.6193   1.6790   1.7188   1.8344   1.8473
  2.0190   2.0766   2.1105   2.1597   2.2583   2.3229   2.3327   2.3610
  2.3968   2.5757   2.6485   2.6698   2.8222   3.0958   3.1397   3.1851
  3.2653   3.3062   3.3611   3.4200   3.4733   3.4851   3.5274   3.6784
  3.7367   3.7983   3.8330   3.9017   3.9536   4.1321   4.2117   4.2309
  4.3091   4.3885   4.4496   4.5937   4.7099   4.8409   4.8541   4.9814
  5.0725   5.1184   5.1231   5.1377   5.1679   5.1937   5.2157   5.2457
  5.2598   5.2789   5.3230   5.3612   5.4102   5.5037   5.5805   5.6170
  5.6684   5.7294   5.8108   6.0233   6.0916   6.3726   6.5087   6.5819
  6.6492   6.8864   6.9494   6.9898   7.0446   7.1159   7.1749   7.2211
  7.2729   7.2796   7.3679   7.4179   7.4794   7.6121   7.7269   7.7968
  7.9838   8.0773  24.7166  50.4128  50.4826  50.5700
 --------------------------------------------------------------
 
          Ground-State Mulliken Net Atomic Charges

     Atom                 Charge (a.u.)    Spin (a.u.)
  --------------------------------------------------------
      1 O                    -0.235812       0.686562
      2 O                     0.014146       0.307077
      3 C                    -0.125433      -0.005279
      4 O                    -0.412201       0.002753
      5 H                     0.190343      -0.000085
      6 H                     0.222991       0.007858
      7 H                     0.345967       0.001114
  --------------------------------------------------------
  Sum of atomic charges =    -0.000000
  Sum of spin   charges =     1.000000

 -----------------------------------------------------------------
                    Cartesian Multipole Moments
 -----------------------------------------------------------------
    Charge (ESU x 10^10)
                 0.0000
    Dipole Moment (Debye)
         X       0.8422      Y      -1.3203      Z       2.7506
       Tot       3.1651
    Quadrupole Moments (Debye-Ang)
        XX     -14.3173     XY      -2.1840     YY     -26.0609
        XZ      19.3454     YZ      -4.4085     ZZ       0.1456
    Octopole Moments (Debye-Ang^2)
       XXX    -251.6821    XXY     -24.6731    XYY    -106.6947
       YYY    -107.5441    XXZ      14.1939    XYZ       6.3248
       YYZ    -128.2844    XZZ      47.2045    YZZ     -53.4992
       ZZZ    -199.1837
    Hexadecapole Moments (Debye-Ang^3)
      XXXX   -2538.1501   XXXY    -331.3508   XXYY    -495.6954
      XYYY    -457.7788   YYYY    -376.9463   XXXZ    -750.0475
      XXYZ     -10.1146   XYYZ    -499.3962   YYYZ    -551.5611
      XXZZ    -109.7694   XYZZ     -73.7997   YYZZ    -736.6461
      XZZZ    -591.9868   YZZZ    -651.1660   ZZZZ   -2821.0206
 -----------------------------------------------------------------
 Total job time:  197.39s(wall), 2427.74s(cpu) 
 Mon May 13 22:36:32 2024

        *************************************************************
        *                                                           *
        *  Thank you very much for using Q-Chem.  Have a nice day.  *
        *                                                           *
        *************************************************************


