
Running Job 1 of 1 Q_in.in
qchem Q_in.in_4084669.0 /scratch/ari.fischer/qChem2160504.hpc-mn1/qchem4084669/ 0
/usr/local/qchem-5.4.1/exe/qcprog.exe_s Q_in.in_4084669.0 /scratch/ari.fischer/qChem2160504.hpc-mn1/qchem4084669/
                  Welcome to Q-Chem
     A Quantum Leap Into The Future Of Chemistry


 Q-Chem 5.4, Q-Chem, Inc., Pleasanton, CA (2021)

 License issued to: Nanyang Technological University (site)

 E. Epifanovsky,  A. T. B. Gilbert,  Xintian Feng,  Joonho Lee,  Yuezhi Mao,  
 N. Mardirossian,  P. Pokhilko,  A. White,  M. Wormit,  M. P. Coons,  
 A. L. Dempwolff,  Zhengting Gan,  D. Hait,  P. R. Horn,  L. D. Jacobson,  
 I. Kaliman,  J. Kussmann,  A. W. Lange,  Ka Un Lao,  D. S. Levine,  Jie Liu,  
 S. C. McKenzie,  A. F. Morrison,  K. Nanda,  F. Plasser,  D. R. Rehn,  
 M. L. Vidal,  Zhi-Qiang You,  Ying Zhu,  B. Alam,  B. Albrecht,  
 A. Aldossary,  E. Alguire,  J. H. Andersen,  D. Barton,  K. Begam,  A. Behn,  
 Y. A. Bernard,  E. J. Berquist,  H. Burton,  A. Carreras,  K. Carter-Fenk,  
 Romit Chakraborty,  A. D. Chien,  K. D. Closser,  V. Cofer-Shabica,  
 S. Dasgupta,  Jia Deng,  M. de Wergifosse,  M. Diedenhofen,  Hainam Do,  
 S. Ehlert,  Po-Tung Fang,  S. Fatehi,  Qingguo Feng,  T. Friedhoff,  
 J. Gayvert,  Qinghui Ge,  G. Gidofalvi,  M. Goldey,  J. Gomes,  
 C. Gonzalez-Espinoza,  S. Gulania,  A. Gunina,  M. W. D. Hanson-Heine,  
 P. H. P. Harbach,  A. W. Hauser,  M. F. Herbst,  M. Hernandez Vera,  
 M. Hodecker,  Z. C. Holden,  S. Houck,  Xunkun Huang,  Kerwin Hui,  
 B. C. Huynh,  M. Ivanov,  Hyunjun Ji,  Hanjie Jiang,  B. Kaduk,  S. Kaehler,  
 K. Khistyaev,  Jaehoon Kim,  P. Klunzinger,  Z. Koczor-Benda,  
 Joong Hoon Koh,  D. Kosenkov,  L. Koulias,  T. Kowalczyk,  C. M. Krauter,  
 K. Kue,  A. Kunitsa,  T. Kus,  A. Landau,  K. V. Lawler,  D. Lefrancois,  
 S. Lehtola,  Rain Li,  Yi-Pei Li,  Jiashu Liang,  M. Liebenthal,  
 Hung-Hsuan Lin,  You-Sheng Lin,  Fenglai Liu,  Kuan-Yu Liu,  
 M. Loipersberger,  A. Luenser,  A. Manjanath,  P. Manohar,  E. Mansoor,  
 S. F. Manzer,  Shan-Ping Mao,  A. V. Marenich,  T. Markovich,  S. Mason,  
 S. A. Maurer,  P. F. McLaughlin,  M. F. S. J. Menger,  J.-M. Mewes,  
 S. A. Mewes,  P. Morgante,  J. W. Mullinax,  K. J. Oosterbaan,  G. Paran,  
 Alexander C. Paul,  Suranjan K. Paul,  F. Pavosevic,  Zheng Pei,  S. Prager,  
 E. I. Proynov,  E. Ramos,  B. Rana,  A. E. Rask,  A. Rettig,  R. M. Richard,  
 F. Rob,  E. Rossomme,  T. Scheele,  M. Scheurer,  M. Schneider,  
 N. Sergueev,  S. M. Sharada,  W. Skomorowski,  D. W. Small,  C. J. Stein,  
 Yu-Chuan Su,  E. J. Sundstrom,  Zhen Tao,  J. Thirman,  T. Tsuchimochi,  
 N. M. Tubman,  S. P. Veccham,  O. Vydrov,  J. Wenzel,  J. Witte,  A. Yamada,  
 Kun Yao,  S. Yeganeh,  S. R. Yost,  A. Zech,  Igor Ying Zhang,  Xing Zhang,  
 Yu Zhang,  D. Zuev,  A. Aspuru-Guzik,  A. T. Bell,  N. A. Besley,  
 K. B. Bravaya,  B. R. Brooks,  D. Casanova,  Jeng-Da Chai,  S. Coriani,  
 C. J. Cramer,  A. E. DePrince, III,  R. A. DiStasio Jr.,  A. Dreuw,  
 B. D. Dunietz,  T. R. Furlani,  W. A. Goddard III,  S. Grimme,  
 S. Hammes-Schiffer,  T. Head-Gordon,  W. J. Hehre,  Chao-Ping Hsu,  
 T.-C. Jagau,  Yousung Jung,  A. Klamt,  Jing Kong,  D. S. Lambrecht,  
 WanZhen Liang,  N. J. Mayhall,  C. W. McCurdy,  J. B. Neaton,  T. Neudecker,  
 C. Ochsenfeld,  J. A. Parkhill,  R. Peverati,  V. A. Rassolov,  Yihan Shao,  
 L. V. Slipchenko,  R. P. Steele,  J. E. Subotnik,  A. J. W. Thom,  
 A. Tkatchenko,  D. G. Truhlar,  T. Van Voorhis,  T. A. Wesolowski,  
 K. B. Whaley,  H. L. Woodcock III,  P. M. Zimmerman,  S. Faraji,  
 P. M. W. Gill,  M. Head-Gordon,  J. M. Herbert,  A. I. Krylov

 Additional authors since Version 5.4.0: 
 Chandrima Chakravarty,  L. Cunha,  R. Kang,  Yongbin Kim,  S. Kotaru,  
 Shaozhi Li,  Xiangyuan Li,  F. Matz,  A. Molle,  V. Parravicini,  
 Haisheng Ren,  Hengyuan Shen,  Yingli Su,  Hung-Yi Tsai,  C. Utku,  
 Fang Wang,  Jeff Yang,  F. Zeller

 Contributors to earlier versions of Q-Chem not listed above: 
 R. D. Adamson,  B. Austin,  R. Baer,  J. Baker,  G. J. O. Beran,  
 K. Brandhorst,  S. T. Brown,  E. F. C. Byrd,  Arup K. Chakraborty,  
 G. K. L. Chan,  Chun-Min Chang,  Yunqing Chen,  C.-L. Cheng,  
 Siu Hung Chien,  D. M. Chipman,  D. L. Crittenden,  H. Dachsel,  
 R. J. Doerksen,  A. D. Dutoi,  R. G. Edgar,  J. Fosso-Tande,  
 L. Fusti-Molnar,  D. Ghosh,  A. Ghysels,  A. Golubeva-Zadorozhnaya,  
 J. Gonthier,  M. S. Gordon,  S. R. Gwaltney,  G. Hawkins,  J. E. Herr,  
 A. Heyden,  S. Hirata,  E. G. Hohenstein,  G. Kedziora,  F. J. Keil,  
 C. Kelley,  Jihan Kim,  R. A. King,  R. Z. Khaliullin,  P. P. Korambath,  
 W. Kurlancheek,  A. Laurent,  A. M. Lee,  M. S. Lee,  S. V. Levchenko,  
 Ching Yeh Lin,  D. Liotard,  E. Livshits,  R. C. Lochan,  I. Lotan,  
 L. A. Martinez-Martinez,  P. E. Maslen,  N. Nair,  D. P. O'Neill,  
 D. Neuhauser,  E. Neuscamman,  C. M. Oana,  R. Olivares-Amaya,  R. Olson,  
 T. M. Perrine,  B. Peters,  P. A. Pieniazek,  A. Prociuk,  Y. M. Rhee,  
 J. Ritchie,  M. A. Rohrdanz,  E. Rosta,  N. J. Russ,  H. F. Schaefer III,  
 M. W. Schmidt,  N. E. Schultz,  S. Sharma,  N. Shenvi,  C. D. Sherrill,  
 A. C. Simmonett,  A. Sodt,  T. Stein,  D. Stuck,  K. S. Thanthiriwatte,  
 V. Vanovschi,  L. Vogt,  Tao Wang,  A. Warshel,  M. A. Watson,  
 C. F. Williams,  Q. Wu,  X. Xu,  Jun Yang,  W. Zhang,  Yan Zhao

   Please cite Q-Chem as follows:
  "Software for the frontiers of quantum chemistry:
   An overview of developments in the Q-Chem 5 package"
   J. Chem. Phys. 155, 084801 (2021)
   https://doi.org/10.1063/5.0055522 (open access)

 Q-Chem 5.4.2 for Intel X86 EM64T Linux

 Parts of Q-Chem use Armadillo 9.900.5 (Nocturnal Misbehaviour).
 http://arma.sourceforge.net/

 Q-Chem begins on Fri Jun  7 15:35:44 2024  

 Host: 
0

     Scratch files written to /scratch/ari.fischer/qChem2160504.hpc-mn1/qchem4084669//
 Dec1321 |scratch|qcdevops|jenkins|workspace|build_RNUM 8249   
 Processing $rem in /usr/local/qchem-5.4.1/config/preferences:
 Processing $rem in /home/ari.fischer/.qchemrc:
 Symmetry turned off for PCM/SM12/SMD calculation


!!********************************************.
!!******************Warning*******************.
!!Desired Analytical derivatives not available.
!!Finite difference job might take a long time.
!!********************************************.
!!********************************************.


 2-order derivative to be evaluated numerically with 1-order analytical derivatives

 Checking the input file for inconsistencies... 	...done.

--------------------------------------------------------------
User input:
--------------------------------------------------------------
$molecule
-1 2
O         2.2226940169    1.2700557604   -1.6693256362
O         1.9824214348    2.5710621664   -1.6323817444
O         4.7793708417    1.3110333018   -2.5258623963
H         4.8764460685    2.1812884739   -2.9230934872
H         3.8442635380    1.2778931974   -2.2063041357
$end

$rem
BASIS = 6-311++G(2df,2p)
GUI = 2
JOB_TYPE = Frequency
METHOD = wB97M-V
SOLVENT_METHOD = SMD
SCF_ALGORITHM = DIIS_GDM
MAX_SCF_CYCLES = 400
SCF_CONVERGENCE = 7
THRESH = 12
$end
--------------------------------------------------------------
 ----------------------------------------------------------------
             Standard Nuclear Orientation (Angstroms)
    I     Atom           X                Y                Z
 ----------------------------------------------------------------
    1      O       2.2226940169     1.2700557604    -1.6693256362
    2      O       1.9824214348     2.5710621664    -1.6323817444
    3      O       4.7793708417     1.3110333018    -2.5258623963
    4      H       4.8764460685     2.1812884739    -2.9230934872
    5      H       3.8442635380     1.2778931974    -2.2063041357
 ----------------------------------------------------------------
 Nuclear Repulsion Energy =          64.76587254 hartrees
 There are       14 alpha and       13 beta electrons
 Requested basis set is 6-311++G(2df,2p)
 There are 36 shells and 122 basis functions

 Total QAlloc Memory Limit 288000 MB
 Mega-Array Size       188 MB
 MEM_STATIC part       192 MB
 
 Citation of the SMD model:
 Marenich, A.V.; Cramer, C.J.; Truhlar, D.G.
 J. Phys. Chem. B 2009, 113, 6378-6396.
 iSolventCode=           1
 Solvent: water                                                           
 
 vradii
            1           2           3           4           5
    1   1.5200000   1.5200000   1.5200000   1.2000000   1.2000000
 Changing PCM_VDW_RADII to SMD_RADIUS
 Discretize the solute cavity surface with Lebedev spheres
	Using 110 Lebedev grid points for each H atom
	Using 194 Lebedev grid points for other atoms
	Atomic van der Waals radii will be scaled by 1.20
 Remove points where switching function is < 1.0e-08
 Keep 561 surface tesserae and discard 241 interior tesserae
 Molecular Surface Area = 69.543 Angst**2

                       Distance Matrix (Angstroms)
             O (  1)   O (  2)   O (  3)   H (  4)
   O (  2)  1.323523
   O (  3)  2.696652  3.195138
   H (  4)  3.073220  3.192685  0.961541
   H (  5)  1.708185  2.338403  0.988758  1.547679
 
 A cutoff of  1.0D-12 yielded    633 shell pairs
 There are      7304 function pairs (      9228 Cartesian)
 Smallest overlap matrix eigenvalue = 9.88E-04
 Guess from superposition of atomic densities
 Warning:  Energy on first SCF cycle will be non-variational
 SAD guess density has 26.000000 electrons

 -----------------------------------------------------------------------
  General SCF calculation program by
  Eric Jon Sundstrom, Paul Horn, Yuezhi Mao, Dmitri Zuev, Alec White,
  David Stuck, Shaama M.S., Shane Yost, Joonho Lee, David Small,
  Daniel Levine, Susi Lehtola, Hugh Burton, Evgeny Epifanovsky,
  Bang C. Huynh
 -----------------------------------------------------------------------
 Exchange:     0.1500 Hartree-Fock + 1.0000 wB97M-V + LR-HF
 Correlation:  1.0000 wB97M-V
 Using SG-2 standard quadrature grid
 Nonlocal Correlation:  VV10 with C = 0.0100 and b = 6.00 and scale = 1.00000
 Grid used for NLC:  SG-1 standard quadrature
 using 16 threads for integral computing
 -------------------------------------------------------
 OpenMP Integral computing Module                
 Release: version 1.0, May 2013, Q-Chem Inc. Pittsburgh 
 -------------------------------------------------------
 
 Citation of the SMD model:
 Marenich, A.V.; Cramer, C.J.; Truhlar, D.G.
 J. Phys. Chem. B 2009, 113, 6378-6396.
 iSolventCode=           1
 Solvent: water                                                           
 
 vradii
            1           2           3           4           5
    1   1.5200000   1.5200000   1.5200000   1.2000000   1.2000000
 -------------------------------------------------------
 OpenMP BLAS3 based DFT computing Module                
 Release: version 1.0, May 2013, Q-Chem Inc. Pittsburgh 
 -------------------------------------------------------
 A unrestricted SCF calculation will be
 performed using DIIS, GDM
 SCF converges when RMS gradient is below 1.0e-07
 ---------------------------------------
  Cycle       Energy         DIIS error
 ---------------------------------------
    1    -226.4888171443      1.73e-02  
    2    -226.8419279071      3.72e-03  Done DIIS. Switching to GDM
 ---------------------------------------
  Cycle       Energy        RMS Gradient
 ---------------------------------------
    1    -226.8419279071      1.16e-01   Descent step
    2    -226.9181862338      2.74e-02   Normal BFGS step
    3    -226.9255244236      1.32e-02   Normal BFGS step
    4    -226.9262522163      1.09e-02   Normal BFGS step
    5    -226.9265233919      4.42e-03   Normal BFGS step
    6    -226.9265657808      1.49e-03   Normal BFGS step
    7    -226.9265795415      3.13e-04   Normal BFGS step
    8    -226.9265804969      1.60e-04   Normal BFGS step
    9    -226.9265806246      1.21e-04   Normal BFGS step
   10    -226.9265806822      1.18e-04   Normal BFGS step
   11    -226.9265807140      1.14e-04   Normal BFGS step
   12    -226.9265807779      1.03e-04   Normal BFGS step
   13    -226.9265808450      1.44e-04   Normal BFGS step
   14    -226.9265809464      1.79e-04   Normal BFGS step
   15    -226.9265810576      1.58e-04   Normal BFGS step
   16    -226.9265811438      8.21e-05   Normal BFGS step
   17    -226.9265811753      2.75e-05   Normal BFGS step
   18    -226.9265811803      7.77e-06   Normal BFGS step
   19    -226.9265811807      1.55e-06   Normal BFGS step
   20    -226.9265811808      3.90e-07   Normal BFGS step
   21    -226.9265811808      1.05e-07   Normal BFGS step
   22    -226.9265811808      3.81e-08  Convergence criterion met
 ---------------------------------------
 SCF time:   CPU 493.52s  wall 101.00s 
<S^2> =          0.754761387
(3)  G-ENP(liq) elect-nuc-pol free energy of system     -226.926581181 a.u.
(4)  G-CDS(liq) cavity-dispersion-solvent structure 
     free energy                                                0.8844 kcal/mol
(6)  G-S(liq) free energy of system                     -226.925171745 a.u.
 SCF   energy in the final basis set =     -226.9251717448
 Total energy in the final basis set =     -226.9251717448
 
 --------------------------------------------------------------
 
                    Orbital Energies (a.u.)
 --------------------------------------------------------------
 
 Alpha MOs
 -- Occupied --
-19.3461 -19.3446 -19.3109  -1.2264  -1.1155  -0.8736  -0.6201  -0.5337
 -0.5289  -0.5187  -0.4719  -0.4151  -0.3314  -0.3023
 -- Virtual --
  0.0422   0.0716   0.1415   0.1832   0.1926   0.2024   0.2326   0.2395
  0.2437   0.2638   0.2766   0.2877   0.3033   0.3418   0.3607   0.3977
  0.4260   0.6113   0.6902   0.7586   0.7833   0.8445   0.9681   1.0091
  1.0292   1.0481   1.0955   1.1249   1.1441   1.1617   1.2008   1.2460
  1.3862   1.4094   1.4275   1.4648   1.4913   1.5142   1.5467   1.6323
  1.7340   1.7442   1.8901   2.0254   2.0719   2.2156   2.2767   2.3090
  2.3493   2.4055   2.4875   2.6366   2.7171   3.0079   3.7167   3.7755
  3.8022   3.9870   4.2317   4.4448   4.5798   4.6502   4.7807   4.7838
  4.8302   5.0756   5.0970   5.1193   5.1228   5.1424   5.1627   5.1695
  5.2289   5.2325   5.2384   5.2472   5.2653   5.3126   5.4230   5.5503
  5.5765   5.6149   5.6455   5.7169   5.8676   6.4551   6.4875   6.7806
  6.8578   6.9213   6.9537   6.9918   7.0259   7.0963   7.1043   7.1457
  7.2093   7.2504   7.4175   7.4217   7.4790   7.4884   7.7021   7.9380
  7.9940  50.4301  50.4741  50.5198
 
 Beta MOs
 -- Occupied --
-19.3322 -19.3298 -19.3110  -1.1974  -1.1155  -0.8315  -0.6190  -0.5140
 -0.5057  -0.4649  -0.4463  -0.4139  -0.2834
 -- Virtual --
  0.0288   0.0427   0.0720   0.1446   0.1877   0.1968   0.2043   0.2351
  0.2431   0.2455   0.2702   0.2813   0.2918   0.3045   0.3525   0.3706
  0.3988   0.4278   0.6113   0.6906   0.7589   0.7843   0.8457   0.9692
  1.0102   1.0318   1.0547   1.1219   1.1348   1.1498   1.1974   1.2096
  1.2512   1.3942   1.4106   1.4577   1.4793   1.4992   1.5211   1.5619
  1.6498   1.7632   1.7675   1.8902   2.0323   2.0751   2.2335   2.2782
  2.3367   2.3543   2.4106   2.4912   2.6434   2.7230   3.0079   3.7166
  3.7751   3.8024   3.9867   4.2316   4.4447   4.6200   4.6587   4.8071
  4.8080   4.8460   5.1214   5.1236   5.1525   5.1593   5.1638   5.1881
  5.2294   5.2458   5.2527   5.2704   5.2763   5.2885   5.3359   5.4274
  5.5579   5.5766   5.6442   5.6705   5.7169   5.8691   6.4987   6.5013
  6.8435   6.9252   6.9709   7.0136   7.0182   7.0280   7.1208   7.1404
  7.1596   7.2130   7.2786   7.4203   7.4756   7.4834   7.4996   7.7030
  7.9511   8.0165  50.4410  50.4783  50.5264
 --------------------------------------------------------------
 
          Ground-State Mulliken Net Atomic Charges

     Atom                 Charge (a.u.)    Spin (a.u.)
  --------------------------------------------------------
      1 O                    -0.456053       0.483616
      2 O                    -0.475032       0.520093
      3 O                    -0.754848      -0.000595
      4 H                     0.323207      -0.000240
      5 H                     0.362725      -0.002875
  --------------------------------------------------------
  Sum of atomic charges =    -1.000000
  Sum of spin   charges =     1.000000

 -----------------------------------------------------------------
                    Cartesian Multipole Moments
 -----------------------------------------------------------------
    Charge (ESU x 10^10)
                -4.8032
    Dipole Moment (Debye)
         X     -12.6609      Y      -7.3446      Z       8.0366
       Tot      16.6981
    Quadrupole Moments (Debye-Ang)
        XX     -63.0821     XY     -13.4319     YY     -34.0334
        XZ      22.4077     YZ       9.6291     ZZ     -33.2968
    Octopole Moments (Debye-Ang^2)
       XXX    -365.4790    XXY     -58.8094    XYY     -76.6075
       YYY    -135.7314    XXZ     119.5983    XYZ      11.3829
       YYZ      53.8889    XZZ    -100.3954    YZZ     -42.1674
       ZZZ     139.9965
    Hexadecapole Moments (Debye-Ang^3)
      XXXX   -2206.2541   XXXY    -336.9036   XXYY    -268.0044
      XYYY    -317.1560   YYYY    -500.3948   XXXZ     742.1027
      XXYZ      54.1529   XYYZ     116.9424   YYYZ     226.7673
      XXZZ    -454.1031   XYZZ     -79.6768   YYZZ    -151.1385
      XZZZ     461.8546   YZZZ     183.9997   ZZZZ    -542.9688
 -----------------------------------------------------------------
 Calculating analytic gradient of the SCF energy
 Gradient of CDS energy
            1           2           3           4           5
    1  -0.0001912  -0.0001248   0.0001789   0.0002273  -0.0000902
    2   0.0000933  -0.0000120  -0.0001893   0.0003461  -0.0002382
    3   0.0000602   0.0000497   0.0000374  -0.0002318   0.0000845
 Gradient of SCF Energy
            1           2           3           4           5
    1   0.0076086  -0.0060016  -0.0300263  -0.0066145   0.0350339
    2  -0.0313275   0.0296148   0.0135479  -0.0196233   0.0077882
    3  -0.0016082   0.0020147   0.0055358   0.0094077  -0.0153501
 Max gradient component =       3.503E-02
 RMS gradient           =       1.847E-02
 Computing fast CPCM-SWIG gradient
 Updating gradient with PCM contributions...
 -- total gradient after adding PCM contribution --
---------------------------------------------------
  Atom         X              Y              Z     
---------------------------------------------------
   1      -0.000102      -0.000066      -0.000167
   2       0.000039      -0.000012       0.000062
   3      -0.000116      -0.000066      -0.000249
   4       0.000026       0.000021       0.000056
   5       0.000152       0.000123       0.000297
---------------------------------------------------
 Number of fixed atoms: 0
 Gradient time:  CPU 18.15 s  wall 4.56 s
 ######################################################
 ######################################################
 # Starting finite difference calculation for IDERIV  #
 Finite diff step size:  1.88973e-03 a.u.
 ----------------------------------------------------------------
             Standard Nuclear Orientation (Angstroms)
    I     Atom           X                Y                Z
 ----------------------------------------------------------------
    1      O       2.2236940169     1.2700557604    -1.6693256362
    2      O       1.9824214348     2.5710621664    -1.6323817444
    3      O       4.7793708417     1.3110333018    -2.5258623963
    4      H       4.8764460685     2.1812884739    -2.9230934872
    5      H       3.8442635380     1.2778931974    -2.2063041357
 ----------------------------------------------------------------
 Nuclear Repulsion Energy =          64.76853823 hartrees
 There are       14 alpha and       13 beta electrons
 Discretize the solute cavity surface with Lebedev spheres
	Using 110 Lebedev grid points for each H atom
	Using 194 Lebedev grid points for other atoms
	Atomic van der Waals radii will be scaled by 1.20
 Remove points where switching function is < 1.0e-08
 Keep 561 surface tesserae and discard 241 interior tesserae
 Molecular Surface Area = 69.537 Angst**2

                       Distance Matrix (Angstroms)
             O (  1)   O (  2)   O (  3)   H (  4)
   O (  2)  1.323705
   O (  3)  2.695704  3.195138
   H (  4)  3.072356  3.192685  0.961541
   H (  5)  1.707235  2.338403  0.988758  1.547679
 
 Requested basis set is 6-311++G(2df,2p)
 There are 36 shells and 122 basis functions
 A cutoff of  1.0D-12 yielded    633 shell pairs
 There are      7304 function pairs (      9228 Cartesian)
 Smallest overlap matrix eigenvalue = 9.88E-04
 Guess MOs from SCF MO coefficient file

 -----------------------------------------------------------------------
  General SCF calculation program by
  Eric Jon Sundstrom, Paul Horn, Yuezhi Mao, Dmitri Zuev, Alec White,
  David Stuck, Shaama M.S., Shane Yost, Joonho Lee, David Small,
  Daniel Levine, Susi Lehtola, Hugh Burton, Evgeny Epifanovsky,
  Bang C. Huynh
 -----------------------------------------------------------------------
 Exchange:     0.1500 Hartree-Fock + 1.0000 wB97M-V + LR-HF
 Correlation:  1.0000 wB97M-V
 Using SG-2 standard quadrature grid
 Nonlocal Correlation:  VV10 with C = 0.0100 and b = 6.00 and scale = 1.00000
 Grid used for NLC:  SG-1 standard quadrature
 
 Citation of the SMD model:
 Marenich, A.V.; Cramer, C.J.; Truhlar, D.G.
 J. Phys. Chem. B 2009, 113, 6378-6396.
 iSolventCode=           1
 Solvent: water                                                           
 
 vradii
            1           2           3           4           5
    1   1.5200000   1.5200000   1.5200000   1.2000000   1.2000000
 -------------------------------------------------------
 OpenMP BLAS3 based DFT computing Module                
 Release: version 1.0, May 2013, Q-Chem Inc. Pittsburgh 
 -------------------------------------------------------
 A unrestricted SCF calculation will be
 performed using Roothaan-Hall, DIIS, GDM
 SCF converges when RMS gradient is below 1.0e-07
 ---------------------------------------
  Cycle       Energy         DIIS error
 ---------------------------------------
    1    -226.8070633688      4.44e-04  Roothaan Step
 ---------------------------------------
  Cycle       Energy         DIIS error
 ---------------------------------------
    1    -226.9234140245      4.91e-04  
    2    -226.9258272164      3.86e-04  Done DIIS. Switching to GDM
 ---------------------------------------
  Cycle       Energy        RMS Gradient
 ---------------------------------------
    1    -226.9258272164      1.01e-02   Normal BFGS step
    2    -226.9259714155      8.97e-03   Normal BFGS step
    3    -226.9265649307      2.15e-03   Normal BFGS step
    4    -226.9265629871      3.07e-03  Line search: overstep
    5    -226.9265785659      3.68e-04   Normal BFGS step
    6    -226.9265805720      1.35e-04   Normal BFGS step
    7    -226.9265808111      1.88e-04   Normal BFGS step
    8    -226.9265809267      7.07e-05   Normal BFGS step
    9    -226.9265809350      4.36e-05   Normal BFGS step
   10    -226.9265809410      4.97e-06   Normal BFGS step
   11    -226.9265809414      4.57e-06   Normal BFGS step
   12    -226.9265809415      4.44e-06   Normal BFGS step
   13    -226.9265809415      4.32e-06   Normal BFGS step
   14    -226.9265809416      3.89e-06   Normal BFGS step
   15    -226.9265809417      3.51e-06   Normal BFGS step
   16    -226.9265809419      4.52e-06   Normal BFGS step
   17    -226.9265809421      3.39e-06   Normal BFGS step
   18    -226.9265809422      1.19e-06   Normal BFGS step
   19    -226.9265809422      1.94e-07   Normal BFGS step
   20    -226.9265809422      6.39e-08  Convergence criterion met
 ---------------------------------------
 SCF time:   CPU 406.16s  wall 86.00s 
<S^2> =          0.754762380
(3)  G-ENP(liq) elect-nuc-pol free energy of system     -226.926580942 a.u.
(4)  G-CDS(liq) cavity-dispersion-solvent structure 
     free energy                                                0.8842 kcal/mol
(6)  G-S(liq) free energy of system                     -226.925171868 a.u.
 SCF   energy in the final basis set =     -226.9251718676
 Total energy in the final basis set =     -226.9251718676
 
 --------------------------------------------------------------
 
                    Orbital Energies (a.u.)
 --------------------------------------------------------------
 
 Alpha MOs
 -- Occupied --
-19.3461 -19.3447 -19.3109  -1.2263  -1.1155  -0.8737  -0.6200  -0.5337
 -0.5289  -0.5187  -0.4719  -0.4151  -0.3315  -0.3024
 -- Virtual --
  0.0423   0.0716   0.1415   0.1832   0.1926   0.2024   0.2326   0.2395
  0.2437   0.2639   0.2766   0.2877   0.3033   0.3417   0.3607   0.3977
  0.4261   0.6113   0.6902   0.7587   0.7834   0.8445   0.9681   1.0091
  1.0293   1.0482   1.0955   1.1250   1.1441   1.1617   1.2008   1.2460
  1.3868   1.4094   1.4274   1.4649   1.4914   1.5143   1.5468   1.6323
  1.7340   1.7441   1.8901   2.0257   2.0720   2.2152   2.2768   2.3088
  2.3494   2.4058   2.4877   2.6368   2.7173   3.0080   3.7167   3.7756
  3.8023   3.9871   4.2317   4.4450   4.5798   4.6503   4.7809   4.7837
  4.8302   5.0756   5.0971   5.1193   5.1229   5.1424   5.1627   5.1695
  5.2286   5.2325   5.2383   5.2472   5.2653   5.3126   5.4231   5.5504
  5.5766   5.6146   5.6455   5.7170   5.8679   6.4544   6.4868   6.7806
  6.8578   6.9212   6.9535   6.9916   7.0259   7.0963   7.1046   7.1459
  7.2094   7.2504   7.4176   7.4216   7.4791   7.4885   7.7023   7.9380
  7.9936  50.4300  50.4740  50.5199
 
 Beta MOs
 -- Occupied --
-19.3322 -19.3298 -19.3110  -1.1974  -1.1154  -0.8316  -0.6190  -0.5140
 -0.5056  -0.4648  -0.4463  -0.4139  -0.2835
 -- Virtual --
  0.0288   0.0427   0.0720   0.1446   0.1878   0.1968   0.2042   0.2351
  0.2431   0.2456   0.2702   0.2812   0.2918   0.3045   0.3524   0.3706
  0.3989   0.4279   0.6113   0.6906   0.7590   0.7843   0.8457   0.9692
  1.0102   1.0318   1.0548   1.1219   1.1349   1.1498   1.1974   1.2096
  1.2512   1.3948   1.4106   1.4576   1.4794   1.4992   1.5212   1.5620
  1.6498   1.7632   1.7674   1.8902   2.0327   2.0752   2.2332   2.2783
  2.3365   2.3544   2.4109   2.4914   2.6437   2.7232   3.0081   3.7166
  3.7752   3.8025   3.9868   4.2317   4.4450   4.6200   4.6587   4.8072
  4.8078   4.8460   5.1215   5.1236   5.1526   5.1593   5.1638   5.1881
  5.2294   5.2458   5.2524   5.2704   5.2763   5.2886   5.3360   5.4275
  5.5581   5.5766   5.6439   5.6704   5.7169   5.8694   6.4980   6.5006
  6.8435   6.9252   6.9709   7.0135   7.0180   7.0281   7.1210   7.1406
  7.1594   7.2131   7.2786   7.4205   7.4755   7.4834   7.4998   7.7032
  7.9510   8.0161  50.4409  50.4782  50.5264
 --------------------------------------------------------------
 
          Ground-State Mulliken Net Atomic Charges

     Atom                 Charge (a.u.)    Spin (a.u.)
  --------------------------------------------------------
      1 O                    -0.456006       0.483560
      2 O                    -0.474980       0.520150
      3 O                    -0.755063      -0.000593
      4 H                     0.323182      -0.000240
      5 H                     0.362867      -0.002876
  --------------------------------------------------------
  Sum of atomic charges =    -1.000000
  Sum of spin   charges =     1.000000

 -----------------------------------------------------------------
                    Cartesian Multipole Moments
 -----------------------------------------------------------------
    Charge (ESU x 10^10)
                -4.8032
    Dipole Moment (Debye)
         X     -12.6648      Y      -7.3442      Z       8.0372
       Tot      16.7012
    Quadrupole Moments (Debye-Ang)
        XX     -63.1046     XY     -13.4367     YY     -34.0311
        XZ      22.4176     YZ       9.6298     ZZ     -33.2998
    Octopole Moments (Debye-Ang^2)
       XXX    -365.6107    XXY     -58.8392    XYY     -76.6188
       YYY    -135.7219    XXZ     119.6546    XYZ      11.3966
       YYZ      53.8884    XZZ    -100.4294    YZZ     -42.1720
       ZZZ     140.0083
    Hexadecapole Moments (Debye-Ang^3)
      XXXX   -2206.9992   XXXY    -337.0809   XXYY    -268.0750
      XYYY    -317.1839   YYYY    -500.3610   XXXZ     742.4250
      XXYZ      54.2317   XYYZ     116.9741   YYYZ     226.7607
      XXZZ    -454.2850   XYZZ     -79.7250   YYZZ    -151.1452
      XZZZ     461.9691   YZZZ     184.0184   ZZZZ    -543.0127
 -----------------------------------------------------------------
 Calculating analytic gradient of the SCF energy
 Gradient of CDS energy
            1           2           3           4           5
    1  -0.0001913  -0.0001248   0.0001789   0.0002273  -0.0000902
    2   0.0000933  -0.0000120  -0.0001893   0.0003461  -0.0002382
    3   0.0000603   0.0000497   0.0000374  -0.0002318   0.0000844
 Gradient of SCF Energy
            1           2           3           4           5
    1   0.0076882  -0.0060428  -0.0300922  -0.0066206   0.0350675
    2  -0.0314310   0.0297216   0.0135469  -0.0196262   0.0077887
    3  -0.0016222   0.0020172   0.0055619   0.0094114  -0.0153683
 Max gradient component =       3.507E-02
 RMS gradient           =       1.851E-02
 Computing fast CPCM-SWIG gradient
 Updating gradient with PCM contributions...
 -- total gradient after adding PCM contribution --
---------------------------------------------------
  Atom         X              Y              Z     
---------------------------------------------------
   1      -0.000028      -0.000234      -0.000184
   2      -0.000000       0.000164       0.000069
   3      -0.000183      -0.000070      -0.000222
   4       0.000023       0.000023       0.000057
   5       0.000188       0.000117       0.000281
---------------------------------------------------
 Number of fixed atoms: 0
 Gradient time:  CPU 17.94 s  wall 7.57 s
 ----------------------------------------------------------------
             Standard Nuclear Orientation (Angstroms)
    I     Atom           X                Y                Z
 ----------------------------------------------------------------
    1      O       2.2216940169     1.2700557604    -1.6693256362
    2      O       1.9824214348     2.5710621664    -1.6323817444
    3      O       4.7793708417     1.3110333018    -2.5258623963
    4      H       4.8764460685     2.1812884739    -2.9230934872
    5      H       3.8442635380     1.2778931974    -2.2063041357
 ----------------------------------------------------------------
 Nuclear Repulsion Energy =          64.76319824 hartrees
 There are       14 alpha and       13 beta electrons
 Discretize the solute cavity surface with Lebedev spheres
	Using 110 Lebedev grid points for each H atom
	Using 194 Lebedev grid points for other atoms
	Atomic van der Waals radii will be scaled by 1.20
 Remove points where switching function is < 1.0e-08
 Keep 561 surface tesserae and discard 241 interior tesserae
 Molecular Surface Area = 69.549 Angst**2

                       Distance Matrix (Angstroms)
             O (  1)   O (  2)   O (  3)   H (  4)
   O (  2)  1.323342
   O (  3)  2.697600  3.195138
   H (  4)  3.074083  3.192685  0.961541
   H (  5)  1.709134  2.338403  0.988758  1.547679
 
 Requested basis set is 6-311++G(2df,2p)
 There are 36 shells and 122 basis functions
 A cutoff of  1.0D-12 yielded    633 shell pairs
 There are      7304 function pairs (      9228 Cartesian)
 Smallest overlap matrix eigenvalue = 9.87E-04
 Guess MOs from SCF MO coefficient file

 -----------------------------------------------------------------------
  General SCF calculation program by
  Eric Jon Sundstrom, Paul Horn, Yuezhi Mao, Dmitri Zuev, Alec White,
  David Stuck, Shaama M.S., Shane Yost, Joonho Lee, David Small,
  Daniel Levine, Susi Lehtola, Hugh Burton, Evgeny Epifanovsky,
  Bang C. Huynh
 -----------------------------------------------------------------------
 Exchange:     0.1500 Hartree-Fock + 1.0000 wB97M-V + LR-HF
 Correlation:  1.0000 wB97M-V
 Using SG-2 standard quadrature grid
 Nonlocal Correlation:  VV10 with C = 0.0100 and b = 6.00 and scale = 1.00000
 Grid used for NLC:  SG-1 standard quadrature
 
 Citation of the SMD model:
 Marenich, A.V.; Cramer, C.J.; Truhlar, D.G.
 J. Phys. Chem. B 2009, 113, 6378-6396.
 iSolventCode=           1
 Solvent: water                                                           
 
 vradii
            1           2           3           4           5
    1   1.5200000   1.5200000   1.5200000   1.2000000   1.2000000
 -------------------------------------------------------
 OpenMP BLAS3 based DFT computing Module                
 Release: version 1.0, May 2013, Q-Chem Inc. Pittsburgh 
 -------------------------------------------------------
 A unrestricted SCF calculation will be
 performed using Roothaan-Hall, DIIS, GDM
 SCF converges when RMS gradient is below 1.0e-07
 ---------------------------------------
  Cycle       Energy         DIIS error
 ---------------------------------------
    1    -226.8070637855      4.44e-04  Roothaan Step
 ---------------------------------------
  Cycle       Energy         DIIS error
 ---------------------------------------
    1    -226.9234156978      4.90e-04  
    2    -226.9258313264      3.85e-04  Done DIIS. Switching to GDM
 ---------------------------------------
  Cycle       Energy        RMS Gradient
 ---------------------------------------
    1    -226.9258313264      1.01e-02   Normal BFGS step
    2    -226.9259786082      8.93e-03   Normal BFGS step
    3    -226.9265655470      2.10e-03   Normal BFGS step
    4    -226.9265637428      3.05e-03  Line search: overstep
    5    -226.9265788933      3.86e-04   Normal BFGS step
    6    -226.9265809003      1.35e-04   Normal BFGS step
    7    -226.9265811400      1.91e-04   Normal BFGS step
    8    -226.9265812575      7.30e-05   Normal BFGS step
    9    -226.9265812666      4.46e-05   Normal BFGS step
   10    -226.9265812734      1.29e-05   Normal BFGS step
   11    -226.9265812740      1.26e-05   Normal BFGS step
   12    -226.9265812744      1.22e-05   Normal BFGS step
   13    -226.9265812748      1.15e-05   Normal BFGS step
   14    -226.9265812758      9.52e-06   Normal BFGS step
   15    -226.9265812772      9.50e-06   Normal BFGS step
   16    -226.9265812788      9.15e-06   Normal BFGS step
   17    -226.9265812796      4.53e-06   Normal BFGS step
   18    -226.9265812797      9.81e-07   Normal BFGS step
   19    -226.9265812797      3.74e-07   Normal BFGS step
   20    -226.9265812797      1.78e-07   Normal BFGS step
   21    -226.9265812797      5.95e-08  Convergence criterion met
 ---------------------------------------
 SCF time:   CPU 284.30s  wall 49.00s 
<S^2> =          0.754760399
(3)  G-ENP(liq) elect-nuc-pol free energy of system     -226.926581280 a.u.
(4)  G-CDS(liq) cavity-dispersion-solvent structure 
     free energy                                                0.8847 kcal/mol
(6)  G-S(liq) free energy of system                     -226.925171483 a.u.
 SCF   energy in the final basis set =     -226.9251714827
 Total energy in the final basis set =     -226.9251714827
 
 --------------------------------------------------------------
 
                    Orbital Energies (a.u.)
 --------------------------------------------------------------
 
 Alpha MOs
 -- Occupied --
-19.3461 -19.3446 -19.3110  -1.2265  -1.1155  -0.8736  -0.6201  -0.5337
 -0.5289  -0.5187  -0.4720  -0.4151  -0.3314  -0.3023
 -- Virtual --
  0.0422   0.0716   0.1415   0.1832   0.1926   0.2024   0.2326   0.2395
  0.2437   0.2638   0.2767   0.2877   0.3033   0.3419   0.3607   0.3977
  0.4259   0.6113   0.6902   0.7585   0.7833   0.8445   0.9682   1.0091
  1.0292   1.0481   1.0955   1.1249   1.1441   1.1617   1.2007   1.2460
  1.3856   1.4094   1.4275   1.4647   1.4912   1.5142   1.5466   1.6323
  1.7340   1.7442   1.8901   2.0251   2.0718   2.2159   2.2766   2.3092
  2.3492   2.4052   2.4873   2.6363   2.7169   3.0077   3.7166   3.7754
  3.8021   3.9870   4.2316   4.4446   4.5799   4.6502   4.7805   4.7839
  4.8303   5.0755   5.0969   5.1193   5.1228   5.1424   5.1627   5.1695
  5.2291   5.2325   5.2385   5.2471   5.2653   5.3125   5.4229   5.5501
  5.5765   5.6153   5.6456   5.7169   5.8674   6.4558   6.4883   6.7806
  6.8579   6.9213   6.9539   6.9919   7.0258   7.0963   7.1041   7.1456
  7.2092   7.2505   7.4174   7.4218   7.4789   7.4883   7.7020   7.9381
  7.9943  50.4303  50.4741  50.5197
 
 Beta MOs
 -- Occupied --
-19.3322 -19.3297 -19.3111  -1.1975  -1.1155  -0.8314  -0.6190  -0.5140
 -0.5057  -0.4649  -0.4464  -0.4139  -0.2834
 -- Virtual --
  0.0289   0.0427   0.0720   0.1446   0.1877   0.1968   0.2043   0.2351
  0.2430   0.2455   0.2702   0.2813   0.2918   0.3045   0.3525   0.3707
  0.3988   0.4277   0.6113   0.6906   0.7588   0.7842   0.8457   0.9693
  1.0102   1.0317   1.0547   1.1219   1.1348   1.1497   1.1974   1.2096
  1.2512   1.3937   1.4105   1.4578   1.4793   1.4991   1.5211   1.5618
  1.6498   1.7632   1.7675   1.8902   2.0320   2.0750   2.2338   2.2781
  2.3369   2.3542   2.4103   2.4910   2.6431   2.7229   3.0078   3.7165
  3.7750   3.8023   3.9867   4.2316   4.4445   4.6201   4.6587   4.8070
  4.8082   4.8459   5.1214   5.1235   5.1525   5.1593   5.1638   5.1881
  5.2295   5.2458   5.2529   5.2705   5.2763   5.2884   5.3359   5.4273
  5.5577   5.5765   5.6445   5.6706   5.7168   5.8689   6.4994   6.5021
  6.8435   6.9252   6.9710   7.0137   7.0183   7.0280   7.1205   7.1402
  7.1597   7.2129   7.2787   7.4202   7.4756   7.4833   7.4995   7.7029
  7.9511   8.0168  50.4412  50.4783  50.5263
 --------------------------------------------------------------
 
          Ground-State Mulliken Net Atomic Charges

     Atom                 Charge (a.u.)    Spin (a.u.)
  --------------------------------------------------------
      1 O                    -0.456100       0.483671
      2 O                    -0.475083       0.520037
      3 O                    -0.754633      -0.000596
      4 H                     0.323232      -0.000239
      5 H                     0.362584      -0.002874
  --------------------------------------------------------
  Sum of atomic charges =    -1.000000
  Sum of spin   charges =     1.000000

 -----------------------------------------------------------------
                    Cartesian Multipole Moments
 -----------------------------------------------------------------
    Charge (ESU x 10^10)
                -4.8032
    Dipole Moment (Debye)
         X     -12.6570      Y      -7.3449      Z       8.0360
       Tot      16.6950
    Quadrupole Moments (Debye-Ang)
        XX     -63.0596     XY     -13.4272     YY     -34.0356
        XZ      22.3977     YZ       9.6285     ZZ     -33.2938
    Octopole Moments (Debye-Ang^2)
       XXX    -365.3475    XXY     -58.7796    XYY     -76.5962
       YYY    -135.7410    XXZ     119.5420    XYZ      11.3691
       YYZ      53.8895    XZZ    -100.3615    YZZ     -42.1629
       ZZZ     139.9846
    Hexadecapole Moments (Debye-Ang^3)
      XXXX   -2205.5098   XXXY    -336.7264   XXYY    -267.9338
      XYYY    -317.1281   YYYY    -500.4286   XXXZ     741.7808
      XXYZ      54.0742   XYYZ     116.9106   YYYZ     226.7739
      XXZZ    -453.9215   XYZZ     -79.6287   YYZZ    -151.1319
      XZZZ     461.7403   YZZZ     183.9810   ZZZZ    -542.9250
 -----------------------------------------------------------------
 Calculating analytic gradient of the SCF energy
 Gradient of CDS energy
            1           2           3           4           5
    1  -0.0001910  -0.0001249   0.0001789   0.0002273  -0.0000903
    2   0.0000933  -0.0000120  -0.0001893   0.0003461  -0.0002382
    3   0.0000602   0.0000497   0.0000374  -0.0002318   0.0000845
 Gradient of SCF Energy
            1           2           3           4           5
    1   0.0075294  -0.0059606  -0.0299606  -0.0066084   0.0350002
    2  -0.0312243   0.0295083   0.0135489  -0.0196205   0.0077877
    3  -0.0015942   0.0020122   0.0055098   0.0094041  -0.0153319
 Max gradient component =       3.500E-02
 RMS gradient           =       1.843E-02
 Computing fast CPCM-SWIG gradient
 Updating gradient with PCM contributions...
 -- total gradient after adding PCM contribution --
---------------------------------------------------
  Atom         X              Y              Z     
---------------------------------------------------
   1      -0.000175       0.000102      -0.000150
   2       0.000079      -0.000187       0.000055
   3      -0.000049      -0.000061      -0.000275
   4       0.000030       0.000019       0.000055
   5       0.000116       0.000128       0.000314
---------------------------------------------------
 Number of fixed atoms: 0
 Gradient time:  CPU 14.32 s  wall 0.95 s
 ----------------------------------------------------------------
             Standard Nuclear Orientation (Angstroms)
    I     Atom           X                Y                Z
 ----------------------------------------------------------------
    1      O       2.2226940169     1.2710557604    -1.6693256362
    2      O       1.9824214348     2.5710621664    -1.6323817444
    3      O       4.7793708417     1.3110333018    -2.5258623963
    4      H       4.8764460685     2.1812884739    -2.9230934872
    5      H       3.8442635380     1.2778931974    -2.2063041357
 ----------------------------------------------------------------
 Nuclear Repulsion Energy =          64.78510032 hartrees
 There are       14 alpha and       13 beta electrons
 Discretize the solute cavity surface with Lebedev spheres
	Using 110 Lebedev grid points for each H atom
	Using 194 Lebedev grid points for other atoms
	Atomic van der Waals radii will be scaled by 1.20
 Remove points where switching function is < 1.0e-08
 Keep 561 surface tesserae and discard 241 interior tesserae
 Molecular Surface Area = 69.535 Angst**2

                       Distance Matrix (Angstroms)
             O (  1)   O (  2)   O (  3)   H (  4)
   O (  2)  1.322540
   O (  3)  2.696637  3.195138
   H (  4)  3.072923  3.192685  0.961541
   H (  5)  1.708180  2.338403  0.988758  1.547679
 
 Requested basis set is 6-311++G(2df,2p)
 There are 36 shells and 122 basis functions
 A cutoff of  1.0D-12 yielded    633 shell pairs
 There are      7304 function pairs (      9228 Cartesian)
 Smallest overlap matrix eigenvalue = 9.84E-04
 Guess MOs from SCF MO coefficient file

 -----------------------------------------------------------------------
  General SCF calculation program by
  Eric Jon Sundstrom, Paul Horn, Yuezhi Mao, Dmitri Zuev, Alec White,
  David Stuck, Shaama M.S., Shane Yost, Joonho Lee, David Small,
  Daniel Levine, Susi Lehtola, Hugh Burton, Evgeny Epifanovsky,
  Bang C. Huynh
 -----------------------------------------------------------------------
 Exchange:     0.1500 Hartree-Fock + 1.0000 wB97M-V + LR-HF
 Correlation:  1.0000 wB97M-V
 Using SG-2 standard quadrature grid
 Nonlocal Correlation:  VV10 with C = 0.0100 and b = 6.00 and scale = 1.00000
 Grid used for NLC:  SG-1 standard quadrature
 
 Citation of the SMD model:
 Marenich, A.V.; Cramer, C.J.; Truhlar, D.G.
 J. Phys. Chem. B 2009, 113, 6378-6396.
 iSolventCode=           1
 Solvent: water                                                           
 
 vradii
            1           2           3           4           5
    1   1.5200000   1.5200000   1.5200000   1.2000000   1.2000000
 -------------------------------------------------------
 OpenMP BLAS3 based DFT computing Module                
 Release: version 1.0, May 2013, Q-Chem Inc. Pittsburgh 
 -------------------------------------------------------
 A unrestricted SCF calculation will be
 performed using Roothaan-Hall, DIIS, GDM
 SCF converges when RMS gradient is below 1.0e-07
 ---------------------------------------
  Cycle       Energy         DIIS error
 ---------------------------------------
    1    -226.8070480235      4.44e-04  Roothaan Step
 ---------------------------------------
  Cycle       Energy         DIIS error
 ---------------------------------------
    1    -226.9234158489      4.91e-04  
    2    -226.9258278884      3.86e-04  Done DIIS. Switching to GDM
 ---------------------------------------
  Cycle       Energy        RMS Gradient
 ---------------------------------------
    1    -226.9258278884      1.01e-02   Normal BFGS step
    2    -226.9259721865      8.96e-03   Normal BFGS step
    3    -226.9265647200      2.13e-03   Normal BFGS step
    4    -226.9265628572      3.05e-03  Line search: overstep
    5    -226.9265782565      3.74e-04   Normal BFGS step
    6    -226.9265802591      1.34e-04   Normal BFGS step
    7    -226.9265804969      1.89e-04   Normal BFGS step
    8    -226.9265806128      7.15e-05   Normal BFGS step
    9    -226.9265806213      4.39e-05   Normal BFGS step
   10    -226.9265806274      4.93e-06   Normal BFGS step
   11    -226.9265806278      4.07e-06   Normal BFGS step
   12    -226.9265806279      3.95e-06   Normal BFGS step
   13    -226.9265806279      3.85e-06   Normal BFGS step
   14    -226.9265806280      3.50e-06   Normal BFGS step
   15    -226.9265806281      3.06e-06   Normal BFGS step
   16    -226.9265806282      4.07e-06   Normal BFGS step
   17    -226.9265806284      3.21e-06   Normal BFGS step
   18    -226.9265806284      1.21e-06   Normal BFGS step
   19    -226.9265806284      1.90e-07   Normal BFGS step
   20    -226.9265806284      6.30e-08  Convergence criterion met
 ---------------------------------------
 SCF time:   CPU 122.67s  wall 8.00s 
<S^2> =          0.754753889
(3)  G-ENP(liq) elect-nuc-pol free energy of system     -226.926580628 a.u.
(4)  G-CDS(liq) cavity-dispersion-solvent structure 
     free energy                                                0.8845 kcal/mol
(6)  G-S(liq) free energy of system                     -226.925171016 a.u.
 SCF   energy in the final basis set =     -226.9251710160
 Total energy in the final basis set =     -226.9251710160
 
 --------------------------------------------------------------
 
                    Orbital Energies (a.u.)
 --------------------------------------------------------------
 
 Alpha MOs
 -- Occupied --
-19.3460 -19.3445 -19.3109  -1.2270  -1.1155  -0.8734  -0.6201  -0.5339
 -0.5290  -0.5189  -0.4720  -0.4151  -0.3312  -0.3021
 -- Virtual --
  0.0423   0.0716   0.1416   0.1832   0.1926   0.2024   0.2326   0.2395
  0.2437   0.2639   0.2767   0.2878   0.3033   0.3424   0.3609   0.3977
  0.4260   0.6113   0.6902   0.7586   0.7834   0.8445   0.9682   1.0091
  1.0292   1.0480   1.0956   1.1249   1.1440   1.1617   1.2007   1.2459
  1.3862   1.4094   1.4278   1.4646   1.4913   1.5142   1.5468   1.6323
  1.7342   1.7444   1.8901   2.0255   2.0720   2.2170   2.2768   2.3099
  2.3499   2.4057   2.4876   2.6364   2.7169   3.0079   3.7167   3.7755
  3.8022   3.9870   4.2317   4.4447   4.5799   4.6504   4.7799   4.7844
  4.8310   5.0754   5.0967   5.1190   5.1228   5.1424   5.1629   5.1695
  5.2302   5.2328   5.2385   5.2469   5.2654   5.3122   5.4229   5.5504
  5.5765   5.6167   5.6470   5.7169   5.8677   6.4589   6.4913   6.7806
  6.8579   6.9215   6.9547   6.9925   7.0259   7.0973   7.1045   7.1461
  7.2094   7.2505   7.4175   7.4220   7.4790   7.4887   7.7022   7.9385
  7.9963  50.4309  50.4743  50.5202
 
 Beta MOs
 -- Occupied --
-19.3321 -19.3296 -19.3110  -1.1980  -1.1155  -0.8312  -0.6190  -0.5141
 -0.5058  -0.4650  -0.4466  -0.4139  -0.2832
 -- Virtual --
  0.0291   0.0427   0.0720   0.1447   0.1877   0.1968   0.2043   0.2351
  0.2430   0.2455   0.2702   0.2813   0.2919   0.3045   0.3527   0.3712
  0.3989   0.4278   0.6113   0.6906   0.7589   0.7843   0.8457   0.9693
  1.0102   1.0318   1.0547   1.1219   1.1348   1.1497   1.1974   1.2096
  1.2512   1.3942   1.4106   1.4581   1.4792   1.4991   1.5211   1.5619
  1.6498   1.7634   1.7677   1.8902   2.0324   2.0752   2.2350   2.2783
  2.3376   2.3549   2.4108   2.4912   2.6433   2.7228   3.0079   3.7166
  3.7751   3.8024   3.9867   4.2316   4.4447   4.6202   4.6589   4.8063
  4.8091   4.8463   5.1213   5.1234   5.1524   5.1590   5.1637   5.1881
  5.2296   5.2458   5.2539   5.2707   5.2766   5.2882   5.3358   5.4273
  5.5579   5.5766   5.6460   5.6721   5.7169   5.8692   6.5025   6.5052
  6.8435   6.9253   6.9711   7.0143   7.0191   7.0281   7.1209   7.1406
  7.1607   7.2131   7.2786   7.4203   7.4757   7.4834   7.5000   7.7031
  7.9515   8.0188  50.4418  50.4785  50.5268
 --------------------------------------------------------------
 
          Ground-State Mulliken Net Atomic Charges

     Atom                 Charge (a.u.)    Spin (a.u.)
  --------------------------------------------------------
      1 O                    -0.455973       0.483684
      2 O                    -0.475096       0.520027
      3 O                    -0.754848      -0.000592
      4 H                     0.323204      -0.000239
      5 H                     0.362713      -0.002879
  --------------------------------------------------------
  Sum of atomic charges =    -1.000000
  Sum of spin   charges =     1.000000

 -----------------------------------------------------------------
                    Cartesian Multipole Moments
 -----------------------------------------------------------------
    Charge (ESU x 10^10)
                -4.8032
    Dipole Moment (Debye)
         X     -12.6610      Y      -7.3472      Z       8.0366
       Tot      16.6994
    Quadrupole Moments (Debye-Ang)
        XX     -63.0825     XY     -13.4371     YY     -34.0441
        XZ      22.4086     YZ       9.6335     ZZ     -33.2955
    Octopole Moments (Debye-Ang^2)
       XXX    -365.4818    XXY     -58.8256    XYY     -76.6282
       YYY    -135.7879    XXZ     119.6022    XYZ      11.3925
       YYZ      53.9068    XZZ    -100.3953    YZZ     -42.1785
       ZZZ     139.9900
    Hexadecapole Moments (Debye-Ang^3)
      XXXX   -2206.2835   XXXY    -336.9650   XXYY    -268.0621
      XYYY    -317.2708   YYYY    -500.6280   XXXZ     742.1236
      XXYZ      54.1848   XYYZ     116.9791   YYYZ     226.8615
      XXZZ    -454.1107   XYZZ     -79.7031   YYZZ    -151.1809
      XZZZ     461.8487   YZZZ     184.0309   ZZZZ    -542.9449
 -----------------------------------------------------------------
 Calculating analytic gradient of the SCF energy
 Gradient of CDS energy
            1           2           3           4           5
    1  -0.0001911  -0.0001248   0.0001789   0.0002273  -0.0000903
    2   0.0000934  -0.0000120  -0.0001893   0.0003461  -0.0002382
    3   0.0000602   0.0000497   0.0000374  -0.0002318   0.0000845
 Gradient of SCF Energy
            1           2           3           4           5
    1   0.0074852  -0.0058837  -0.0300320  -0.0066144   0.0350449
    2  -0.0306733   0.0289590   0.0135561  -0.0196244   0.0077826
    3  -0.0015881   0.0019966   0.0055373   0.0094079  -0.0153536
 Max gradient component =       3.504E-02
 RMS gradient           =       1.832E-02
 Computing fast CPCM-SWIG gradient
 Updating gradient with PCM contributions...
 -- total gradient after adding PCM contribution --
---------------------------------------------------
  Atom         X              Y              Z     
---------------------------------------------------
   1      -0.000270       0.000838      -0.000140
   2       0.000203      -0.000911       0.000037
   3      -0.000128      -0.000061      -0.000245
   4       0.000027       0.000021       0.000056
   5       0.000169       0.000113       0.000292
---------------------------------------------------
 Number of fixed atoms: 0
 Gradient time:  CPU 13.10 s  wall 0.85 s
 ----------------------------------------------------------------
             Standard Nuclear Orientation (Angstroms)
    I     Atom           X                Y                Z
 ----------------------------------------------------------------
    1      O       2.2226940169     1.2690557604    -1.6693256362
    2      O       1.9824214348     2.5710621664    -1.6323817444
    3      O       4.7793708417     1.3110333018    -2.5258623963
    4      H       4.8764460685     2.1812884739    -2.9230934872
    5      H       3.8442635380     1.2778931974    -2.2063041357
 ----------------------------------------------------------------
 Nuclear Repulsion Energy =          64.74666981 hartrees
 There are       14 alpha and       13 beta electrons
 Discretize the solute cavity surface with Lebedev spheres
	Using 110 Lebedev grid points for each H atom
	Using 194 Lebedev grid points for other atoms
	Atomic van der Waals radii will be scaled by 1.20
 Remove points where switching function is < 1.0e-08
 Keep 561 surface tesserae and discard 241 interior tesserae
 Molecular Surface Area = 69.551 Angst**2

                       Distance Matrix (Angstroms)
             O (  1)   O (  2)   O (  3)   H (  4)
   O (  2)  1.324506
   O (  3)  2.696667  3.195138
   H (  4)  3.073516  3.192685  0.961541
   H (  5)  1.708190  2.338403  0.988758  1.547679
 
 Requested basis set is 6-311++G(2df,2p)
 There are 36 shells and 122 basis functions
 A cutoff of  1.0D-12 yielded    633 shell pairs
 There are      7304 function pairs (      9228 Cartesian)
 Smallest overlap matrix eigenvalue = 9.91E-04
 Guess MOs from SCF MO coefficient file

 -----------------------------------------------------------------------
  General SCF calculation program by
  Eric Jon Sundstrom, Paul Horn, Yuezhi Mao, Dmitri Zuev, Alec White,
  David Stuck, Shaama M.S., Shane Yost, Joonho Lee, David Small,
  Daniel Levine, Susi Lehtola, Hugh Burton, Evgeny Epifanovsky,
  Bang C. Huynh
 -----------------------------------------------------------------------
 Exchange:     0.1500 Hartree-Fock + 1.0000 wB97M-V + LR-HF
 Correlation:  1.0000 wB97M-V
 Using SG-2 standard quadrature grid
 Nonlocal Correlation:  VV10 with C = 0.0100 and b = 6.00 and scale = 1.00000
 Grid used for NLC:  SG-1 standard quadrature
 
 Citation of the SMD model:
 Marenich, A.V.; Cramer, C.J.; Truhlar, D.G.
 J. Phys. Chem. B 2009, 113, 6378-6396.
 iSolventCode=           1
 Solvent: water                                                           
 
 vradii
            1           2           3           4           5
    1   1.5200000   1.5200000   1.5200000   1.2000000   1.2000000
 -------------------------------------------------------
 OpenMP BLAS3 based DFT computing Module                
 Release: version 1.0, May 2013, Q-Chem Inc. Pittsburgh 
 -------------------------------------------------------
 A unrestricted SCF calculation will be
 performed using Roothaan-Hall, DIIS, GDM
 SCF converges when RMS gradient is below 1.0e-07
 ---------------------------------------
  Cycle       Energy         DIIS error
 ---------------------------------------
    1    -226.8070713877      4.44e-04  Roothaan Step
 ---------------------------------------
  Cycle       Energy         DIIS error
 ---------------------------------------
    1    -226.9234091250      4.91e-04  
    2    -226.9258261027      3.86e-04  Done DIIS. Switching to GDM
 ---------------------------------------
  Cycle       Energy        RMS Gradient
 ---------------------------------------
    1    -226.9258261027      1.01e-02   Normal BFGS step
    2    -226.9259719636      8.96e-03   Normal BFGS step
    3    -226.9265640326      2.15e-03   Normal BFGS step
    4    -226.9265620692      3.07e-03  Line search: overstep
    5    -226.9265776482      3.67e-04   Normal BFGS step
    6    -226.9265796583      1.36e-04   Normal BFGS step
    7    -226.9265798974      1.87e-04   Normal BFGS step
    8    -226.9265800132      6.96e-05   Normal BFGS step
    9    -226.9265800214      4.30e-05   Normal BFGS step
   10    -226.9265800274      8.47e-06   Normal BFGS step
   11    -226.9265800278      8.30e-06   Normal BFGS step
   12    -226.9265800280      8.04e-06   Normal BFGS step
   13    -226.9265800282      7.73e-06   Normal BFGS step
   14    -226.9265800285      6.67e-06   Normal BFGS step
   15    -226.9265800291      6.50e-06   Normal BFGS step
   16    -226.9265800298      7.15e-06   Normal BFGS step
   17    -226.9265800302      4.25e-06   Normal BFGS step
   18    -226.9265800303      1.12e-06   Normal BFGS step
   19    -226.9265800303      2.13e-07   Normal BFGS step
   20    -226.9265800303      8.79e-08  Convergence criterion met
 ---------------------------------------
 SCF time:   CPU 177.11s  wall 22.00s 
<S^2> =          0.754768887
(3)  G-ENP(liq) elect-nuc-pol free energy of system     -226.926580030 a.u.
(4)  G-CDS(liq) cavity-dispersion-solvent structure 
     free energy                                                0.8843 kcal/mol
(6)  G-S(liq) free energy of system                     -226.925170771 a.u.
 SCF   energy in the final basis set =     -226.9251707706
 Total energy in the final basis set =     -226.9251707706
 
 --------------------------------------------------------------
 
                    Orbital Energies (a.u.)
 --------------------------------------------------------------
 
 Alpha MOs
 -- Occupied --
-19.3462 -19.3447 -19.3109  -1.2259  -1.1155  -0.8739  -0.6200  -0.5335
 -0.5287  -0.5186  -0.4718  -0.4151  -0.3317  -0.3026
 -- Virtual --
  0.0422   0.0716   0.1414   0.1832   0.1926   0.2024   0.2326   0.2395
  0.2437   0.2638   0.2766   0.2876   0.3033   0.3412   0.3605   0.3976
  0.4260   0.6113   0.6902   0.7586   0.7833   0.8445   0.9681   1.0091
  1.0292   1.0482   1.0955   1.1249   1.1442   1.1617   1.2008   1.2460
  1.3862   1.4094   1.4271   1.4650   1.4913   1.5143   1.5466   1.6323
  1.7337   1.7439   1.8901   2.0253   2.0717   2.2141   2.2766   2.3082
  2.3487   2.4053   2.4875   2.6367   2.7173   3.0079   3.7167   3.7755
  3.8021   3.9870   4.2317   4.4448   4.5797   4.6501   4.7815   4.7831
  4.8295   5.0757   5.0972   5.1197   5.1229   5.1423   5.1625   5.1696
  5.2276   5.2322   5.2382   5.2474   5.2652   5.3129   5.4230   5.5501
  5.5765   5.6132   5.6441   5.7169   5.8676   6.4513   6.4837   6.7805
  6.8578   6.9211   6.9527   6.9911   7.0259   7.0952   7.1042   7.1454
  7.2092   7.2504   7.4175   7.4214   7.4789   7.4880   7.7020   7.9375
  7.9917  50.4294  50.4738  50.5195
 
 Beta MOs
 -- Occupied --
-19.3323 -19.3299 -19.3110  -1.1969  -1.1155  -0.8318  -0.6190  -0.5139
 -0.5055  -0.4648  -0.4461  -0.4139  -0.2837
 -- Virtual --
  0.0286   0.0427   0.0720   0.1445   0.1877   0.1968   0.2042   0.2351
  0.2431   0.2455   0.2702   0.2812   0.2918   0.3045   0.3522   0.3700
  0.3988   0.4278   0.6113   0.6906   0.7589   0.7843   0.8457   0.9692
  1.0102   1.0318   1.0548   1.1219   1.1348   1.1499   1.1974   1.2096
  1.2512   1.3943   1.4106   1.4573   1.4794   1.4992   1.5211   1.5619
  1.6499   1.7629   1.7672   1.8902   2.0322   2.0750   2.2320   2.2781
  2.3358   2.3537   2.4104   2.4912   2.6436   2.7232   3.0079   3.7166
  3.7751   3.8024   3.9867   4.2316   4.4448   4.6199   4.6585   4.8067
  4.8080   4.8458   5.1215   5.1237   5.1526   5.1597   5.1639   5.1882
  5.2292   5.2459   5.2514   5.2702   5.2760   5.2888   5.3361   5.4274
  5.5578   5.5766   5.6425   5.6690   5.7169   5.8691   6.4949   6.4975
  6.8434   6.9251   6.9707   7.0129   7.0172   7.0280   7.1207   7.1401
  7.1583   7.2129   7.2786   7.4203   7.4754   7.4833   7.4993   7.7030
  7.9507   8.0141  50.4402  50.4780  50.5259
 --------------------------------------------------------------
 
          Ground-State Mulliken Net Atomic Charges

     Atom                 Charge (a.u.)    Spin (a.u.)
  --------------------------------------------------------
      1 O                    -0.456133       0.483548
      2 O                    -0.474968       0.520160
      3 O                    -0.754847      -0.000597
      4 H                     0.323211      -0.000240
      5 H                     0.362738      -0.002871
  --------------------------------------------------------
  Sum of atomic charges =    -1.000000
  Sum of spin   charges =     1.000000

 -----------------------------------------------------------------
                    Cartesian Multipole Moments
 -----------------------------------------------------------------
    Charge (ESU x 10^10)
                -4.8032
    Dipole Moment (Debye)
         X     -12.6607      Y      -7.3419      Z       8.0365
       Tot      16.6968
    Quadrupole Moments (Debye-Ang)
        XX     -63.0817     XY     -13.4267     YY     -34.0227
        XZ      22.4068     YZ       9.6247     ZZ     -33.2980
    Octopole Moments (Debye-Ang^2)
       XXX    -365.4762    XXY     -58.7932    XYY     -76.5869
       YYY    -135.6750    XXZ     119.5944    XYZ      11.3732
       YYZ      53.8711    XZZ    -100.3956    YZZ     -42.1564
       ZZZ     140.0030
    Hexadecapole Moments (Debye-Ang^3)
      XXXX   -2206.2247   XXXY    -336.8421   XXYY    -267.9467
      XYYY    -317.0413   YYYY    -500.1620   XXXZ     742.0818
      XXYZ      54.1211   XYYZ     116.9057   YYYZ     226.6732
      XXZZ    -454.0956   XYZZ     -79.6506   YYZZ    -151.0962
      XZZZ     461.8605   YZZZ     183.9685   ZZZZ    -542.9928
 -----------------------------------------------------------------
 Calculating analytic gradient of the SCF energy
 Gradient of CDS energy
            1           2           3           4           5
    1  -0.0001912  -0.0001249   0.0001789   0.0002273  -0.0000901
    2   0.0000932  -0.0000120  -0.0001893   0.0003461  -0.0002381
    3   0.0000602   0.0000497   0.0000374  -0.0002318   0.0000845
 Gradient of SCF Energy
            1           2           3           4           5
    1   0.0077310  -0.0061185  -0.0300207  -0.0066147   0.0350228
    2  -0.0319774   0.0302663   0.0135396  -0.0196222   0.0077938
    3  -0.0016280   0.0020327   0.0055343   0.0094076  -0.0153466
 Max gradient component =       3.502E-02
 RMS gradient           =       1.862E-02
 Computing fast CPCM-SWIG gradient
 Updating gradient with PCM contributions...
 -- total gradient after adding PCM contribution --
---------------------------------------------------
  Atom         X              Y              Z     
---------------------------------------------------
   1       0.000065      -0.000964      -0.000194
   2      -0.000123       0.000882       0.000087
   3      -0.000104      -0.000070      -0.000253
   4       0.000025       0.000021       0.000056
   5       0.000135       0.000132       0.000303
---------------------------------------------------
 Number of fixed atoms: 0
 Gradient time:  CPU 13.48 s  wall 1.07 s
 ----------------------------------------------------------------
             Standard Nuclear Orientation (Angstroms)
    I     Atom           X                Y                Z
 ----------------------------------------------------------------
    1      O       2.2226940169     1.2700557604    -1.6683256362
    2      O       1.9824214348     2.5710621664    -1.6323817444
    3      O       4.7793708417     1.3110333018    -2.5258623963
    4      H       4.8764460685     2.1812884739    -2.9230934872
    5      H       3.8442635380     1.2778931974    -2.2063041357
 ----------------------------------------------------------------
 Nuclear Repulsion Energy =          64.76428575 hartrees
 There are       14 alpha and       13 beta electrons
 Discretize the solute cavity surface with Lebedev spheres
	Using 110 Lebedev grid points for each H atom
	Using 194 Lebedev grid points for other atoms
	Atomic van der Waals radii will be scaled by 1.20
 Remove points where switching function is < 1.0e-08
 Keep 561 surface tesserae and discard 241 interior tesserae
 Molecular Surface Area = 69.544 Angst**2

                       Distance Matrix (Angstroms)
             O (  1)   O (  2)   O (  3)   H (  4)
   O (  2)  1.323496
   O (  3)  2.696970  3.195138
   H (  4)  3.073628  3.192685  0.961541
   H (  5)  1.708499  2.338403  0.988758  1.547679
 
 Requested basis set is 6-311++G(2df,2p)
 There are 36 shells and 122 basis functions
 A cutoff of  1.0D-12 yielded    633 shell pairs
 There are      7304 function pairs (      9228 Cartesian)
 Smallest overlap matrix eigenvalue = 9.87E-04
 Guess MOs from SCF MO coefficient file

 -----------------------------------------------------------------------
  General SCF calculation program by
  Eric Jon Sundstrom, Paul Horn, Yuezhi Mao, Dmitri Zuev, Alec White,
  David Stuck, Shaama M.S., Shane Yost, Joonho Lee, David Small,
  Daniel Levine, Susi Lehtola, Hugh Burton, Evgeny Epifanovsky,
  Bang C. Huynh
 -----------------------------------------------------------------------
 Exchange:     0.1500 Hartree-Fock + 1.0000 wB97M-V + LR-HF
 Correlation:  1.0000 wB97M-V
 Using SG-2 standard quadrature grid
 Nonlocal Correlation:  VV10 with C = 0.0100 and b = 6.00 and scale = 1.00000
 Grid used for NLC:  SG-1 standard quadrature
 
 Citation of the SMD model:
 Marenich, A.V.; Cramer, C.J.; Truhlar, D.G.
 J. Phys. Chem. B 2009, 113, 6378-6396.
 iSolventCode=           1
 Solvent: water                                                           
 
 vradii
            1           2           3           4           5
    1   1.5200000   1.5200000   1.5200000   1.2000000   1.2000000
 -------------------------------------------------------
 OpenMP BLAS3 based DFT computing Module                
 Release: version 1.0, May 2013, Q-Chem Inc. Pittsburgh 
 -------------------------------------------------------
 A unrestricted SCF calculation will be
 performed using Roothaan-Hall, DIIS, GDM
 SCF converges when RMS gradient is below 1.0e-07
 ---------------------------------------
  Cycle       Energy         DIIS error
 ---------------------------------------
    1    -226.8070557985      4.44e-04  Roothaan Step
 ---------------------------------------
  Cycle       Energy         DIIS error
 ---------------------------------------
    1    -226.9234166776      4.90e-04  
    2    -226.9258304317      3.86e-04  Done DIIS. Switching to GDM
 ---------------------------------------
  Cycle       Energy        RMS Gradient
 ---------------------------------------
    1    -226.9258304317      1.01e-02   Normal BFGS step
    2    -226.9259759749      8.95e-03   Normal BFGS step
    3    -226.9265657568      2.12e-03   Normal BFGS step
    4    -226.9265638898      3.06e-03  Line search: overstep
    5    -226.9265792232      3.80e-04   Normal BFGS step
    6    -226.9265812276      1.35e-04   Normal BFGS step
    7    -226.9265814672      1.90e-04   Normal BFGS step
    8    -226.9265815837      7.26e-05   Normal BFGS step
    9    -226.9265815924      4.46e-05   Normal BFGS step
   10    -226.9265815986      5.06e-06   Normal BFGS step
   11    -226.9265815990      2.33e-06   Normal BFGS step
   12    -226.9265815991      1.91e-06   Normal BFGS step
   13    -226.9265815991      1.88e-06   Normal BFGS step
   14    -226.9265815991      1.81e-06   Normal BFGS step
   15    -226.9265815991      1.66e-06   Normal BFGS step
   16    -226.9265815992      1.80e-06   Normal BFGS step
   17    -226.9265815992      1.93e-06   Normal BFGS step
   18    -226.9265815992      1.17e-06   Normal BFGS step
   19    -226.9265815992      2.98e-07   Normal BFGS step
   20    -226.9265815992      1.01e-07   Normal BFGS step
   21    -226.9265815992      4.55e-08  Convergence criterion met
 ---------------------------------------
 SCF time:   CPU 207.05s  wall 23.00s 
<S^2> =          0.754761311
(3)  G-ENP(liq) elect-nuc-pol free energy of system     -226.926581599 a.u.
(4)  G-CDS(liq) cavity-dispersion-solvent structure 
     free energy                                                0.8845 kcal/mol
(6)  G-S(liq) free energy of system                     -226.925172049 a.u.
 SCF   energy in the final basis set =     -226.9251720495
 Total energy in the final basis set =     -226.9251720495
 
 --------------------------------------------------------------
 
                    Orbital Energies (a.u.)
 --------------------------------------------------------------
 
 Alpha MOs
 -- Occupied --
-19.3461 -19.3446 -19.3110  -1.2264  -1.1155  -0.8736  -0.6201  -0.5337
 -0.5289  -0.5187  -0.4719  -0.4151  -0.3314  -0.3023
 -- Virtual --
  0.0422   0.0716   0.1415   0.1832   0.1926   0.2024   0.2326   0.2395
  0.2437   0.2638   0.2766   0.2877   0.3033   0.3418   0.3607   0.3977
  0.4259   0.6113   0.6902   0.7587   0.7833   0.8445   0.9681   1.0091
  1.0292   1.0481   1.0955   1.1249   1.1441   1.1617   1.2007   1.2460
  1.3860   1.4094   1.4275   1.4647   1.4913   1.5142   1.5467   1.6323
  1.7340   1.7442   1.8901   2.0253   2.0718   2.2156   2.2766   2.3090
  2.3493   2.4054   2.4875   2.6365   2.7171   3.0078   3.7167   3.7754
  3.8021   3.9870   4.2316   4.4447   4.5798   4.6502   4.7807   4.7838
  4.8302   5.0755   5.0969   5.1193   5.1228   5.1424   5.1627   5.1695
  5.2289   5.2325   5.2384   5.2471   5.2653   5.3125   5.4229   5.5502
  5.5765   5.6150   5.6455   5.7169   5.8676   6.4552   6.4877   6.7806
  6.8578   6.9213   6.9538   6.9918   7.0259   7.0963   7.1042   7.1457
  7.2093   7.2505   7.4175   7.4217   7.4789   7.4883   7.7021   7.9380
  7.9940  50.4302  50.4741  50.5198
 
 Beta MOs
 -- Occupied --
-19.3322 -19.3297 -19.3110  -1.1974  -1.1155  -0.8315  -0.6190  -0.5140
 -0.5057  -0.4649  -0.4463  -0.4139  -0.2834
 -- Virtual --
  0.0288   0.0427   0.0720   0.1446   0.1878   0.1967   0.2043   0.2351
  0.2431   0.2455   0.2702   0.2813   0.2918   0.3045   0.3525   0.3706
  0.3989   0.4278   0.6113   0.6906   0.7589   0.7842   0.8457   0.9692
  1.0102   1.0318   1.0547   1.1219   1.1348   1.1498   1.1974   1.2096
  1.2512   1.3941   1.4106   1.4577   1.4793   1.4992   1.5211   1.5619
  1.6499   1.7631   1.7675   1.8902   2.0323   2.0750   2.2336   2.2781
  2.3367   2.3542   2.4105   2.4912   2.6433   2.7230   3.0079   3.7166
  3.7750   3.8024   3.9867   4.2316   4.4447   4.6200   4.6587   4.8071
  4.8080   4.8459   5.1214   5.1236   5.1525   5.1593   5.1638   5.1881
  5.2294   5.2458   5.2527   5.2705   5.2763   5.2885   5.3359   5.4274
  5.5578   5.5766   5.6443   5.6705   5.7169   5.8691   6.4988   6.5015
  6.8435   6.9252   6.9709   7.0136   7.0182   7.0280   7.1207   7.1403
  7.1596   7.2130   7.2786   7.4203   7.4756   7.4833   7.4996   7.7030
  7.9511   8.0165  50.4411  50.4783  50.5263
 --------------------------------------------------------------
 
          Ground-State Mulliken Net Atomic Charges

     Atom                 Charge (a.u.)    Spin (a.u.)
  --------------------------------------------------------
      1 O                    -0.456068       0.483633
      2 O                    -0.475049       0.520076
      3 O                    -0.754773      -0.000596
      4 H                     0.323214      -0.000239
      5 H                     0.362675      -0.002874
  --------------------------------------------------------
  Sum of atomic charges =    -1.000000
  Sum of spin   charges =     1.000000

 -----------------------------------------------------------------
                    Cartesian Multipole Moments
 -----------------------------------------------------------------
    Charge (ESU x 10^10)
                -4.8032
    Dipole Moment (Debye)
         X     -12.6603      Y      -7.3447      Z       8.0342
       Tot      16.6965
    Quadrupole Moments (Debye-Ang)
        XX     -63.0770     XY     -13.4309     YY     -34.0339
        XZ      22.4017     YZ       9.6272     ZZ     -33.2893
    Octopole Moments (Debye-Ang^2)
       XXX    -365.4471    XXY     -58.8005    XYY     -76.6053
       YYY    -135.7334    XXZ     119.5709    XYZ      11.3772
       YYZ      53.8828    XZZ    -100.3772    YZZ     -42.1619
       ZZZ     139.9600
    Hexadecapole Moments (Debye-Ang^3)
      XXXX   -2206.0680   XXXY    -336.8515   XXYY    -267.9851
      XYYY    -317.1505   YYYY    -500.4012   XXXZ     741.9648
      XXYZ      54.1202   XYYZ     116.9262   YYYZ     226.7489
      XXZZ    -454.0201   XYZZ     -79.6615   YYZZ    -151.1198
      XZZZ     461.7670   YZZZ     183.9651   ZZZZ    -542.8062
 -----------------------------------------------------------------
 Calculating analytic gradient of the SCF energy
 Gradient of CDS energy
            1           2           3           4           5
    1  -0.0001911  -0.0001248   0.0001789   0.0002273  -0.0000903
    2   0.0000933  -0.0000120  -0.0001893   0.0003461  -0.0002382
    3   0.0000602   0.0000497   0.0000374  -0.0002318   0.0000844
 Gradient of SCF Energy
            1           2           3           4           5
    1   0.0075959  -0.0060002  -0.0299973  -0.0066136   0.0350151
    2  -0.0313122   0.0295995   0.0135488  -0.0196223   0.0077862
    3  -0.0015756   0.0019916   0.0055419   0.0094069  -0.0153649
 Max gradient component =       3.502E-02
 RMS gradient           =       1.846E-02
 Computing fast CPCM-SWIG gradient
 Updating gradient with PCM contributions...
 -- total gradient after adding PCM contribution --
---------------------------------------------------
  Atom         X              Y              Z     
---------------------------------------------------
   1      -0.000119      -0.000039      -0.000155
   2       0.000046      -0.000041       0.000060
   3      -0.000090      -0.000065      -0.000250
   4       0.000027       0.000020       0.000056
   5       0.000136       0.000124       0.000289
---------------------------------------------------
 Number of fixed atoms: 0
 Gradient time:  CPU 14.80 s  wall 1.03 s
 ----------------------------------------------------------------
             Standard Nuclear Orientation (Angstroms)
    I     Atom           X                Y                Z
 ----------------------------------------------------------------
    1      O       2.2226940169     1.2700557604    -1.6703256362
    2      O       1.9824214348     2.5710621664    -1.6323817444
    3      O       4.7793708417     1.3110333018    -2.5258623963
    4      H       4.8764460685     2.1812884739    -2.9230934872
    5      H       3.8442635380     1.2778931974    -2.2063041357
 ----------------------------------------------------------------
 Nuclear Repulsion Energy =          64.76744288 hartrees
 There are       14 alpha and       13 beta electrons
 Discretize the solute cavity surface with Lebedev spheres
	Using 110 Lebedev grid points for each H atom
	Using 194 Lebedev grid points for other atoms
	Atomic van der Waals radii will be scaled by 1.20
 Remove points where switching function is < 1.0e-08
 Keep 561 surface tesserae and discard 241 interior tesserae
 Molecular Surface Area = 69.542 Angst**2

                       Distance Matrix (Angstroms)
             O (  1)   O (  2)   O (  3)   H (  4)
   O (  2)  1.323551
   O (  3)  2.696334  3.195138
   H (  4)  3.072812  3.192685  0.961541
   H (  5)  1.707871  2.338403  0.988758  1.547679
 
 Requested basis set is 6-311++G(2df,2p)
 There are 36 shells and 122 basis functions
 A cutoff of  1.0D-12 yielded    633 shell pairs
 There are      7304 function pairs (      9228 Cartesian)
 Smallest overlap matrix eigenvalue = 9.88E-04
 Guess MOs from SCF MO coefficient file

 -----------------------------------------------------------------------
  General SCF calculation program by
  Eric Jon Sundstrom, Paul Horn, Yuezhi Mao, Dmitri Zuev, Alec White,
  David Stuck, Shaama M.S., Shane Yost, Joonho Lee, David Small,
  Daniel Levine, Susi Lehtola, Hugh Burton, Evgeny Epifanovsky,
  Bang C. Huynh
 -----------------------------------------------------------------------
 Exchange:     0.1500 Hartree-Fock + 1.0000 wB97M-V + LR-HF
 Correlation:  1.0000 wB97M-V
 Using SG-2 standard quadrature grid
 Nonlocal Correlation:  VV10 with C = 0.0100 and b = 6.00 and scale = 1.00000
 Grid used for NLC:  SG-1 standard quadrature
 
 Citation of the SMD model:
 Marenich, A.V.; Cramer, C.J.; Truhlar, D.G.
 J. Phys. Chem. B 2009, 113, 6378-6396.
 iSolventCode=           1
 Solvent: water                                                           
 
 vradii
            1           2           3           4           5
    1   1.5200000   1.5200000   1.5200000   1.2000000   1.2000000
 -------------------------------------------------------
 OpenMP BLAS3 based DFT computing Module                
 Release: version 1.0, May 2013, Q-Chem Inc. Pittsburgh 
 -------------------------------------------------------
 A unrestricted SCF calculation will be
 performed using Roothaan-Hall, DIIS, GDM
 SCF converges when RMS gradient is below 1.0e-07
 ---------------------------------------
  Cycle       Energy         DIIS error
 ---------------------------------------
    1    -226.8070601582      4.44e-04  Roothaan Step
 ---------------------------------------
  Cycle       Energy         DIIS error
 ---------------------------------------
    1    -226.9234143757      4.91e-04  
    2    -226.9258276648      3.86e-04  Done DIIS. Switching to GDM
 ---------------------------------------
  Cycle       Energy        RMS Gradient
 ---------------------------------------
    1    -226.9258276648      1.01e-02   Normal BFGS step
    2    -226.9259723267      8.96e-03   Normal BFGS step
    3    -226.9265647389      2.14e-03   Normal BFGS step
    4    -226.9265628246      3.06e-03  Line search: overstep
    5    -226.9265783318      3.71e-04   Normal BFGS step
    6    -226.9265803420      1.35e-04   Normal BFGS step
    7    -226.9265805829      1.88e-04   Normal BFGS step
    8    -226.9265806998      7.08e-05   Normal BFGS step
    9    -226.9265807092      4.29e-05   Normal BFGS step
   10    -226.9265807172      2.51e-05   Normal BFGS step
   11    -226.9265807185      2.45e-05   Normal BFGS step
   12    -226.9265807205      2.30e-05   Normal BFGS step
   13    -226.9265807230      2.06e-05   Normal BFGS step
   14    -226.9265807281      2.02e-05   Normal BFGS step
   15    -226.9265807342      1.68e-05   Normal BFGS step
   16    -226.9265807385      9.78e-06   Normal BFGS step
   17    -226.9265807397      4.11e-06   Normal BFGS step
   18    -226.9265807399      1.78e-06   Normal BFGS step
   19    -226.9265807399      7.88e-07   Normal BFGS step
   20    -226.9265807399      2.47e-07   Normal BFGS step
   21    -226.9265807399      5.62e-08  Convergence criterion met
 ---------------------------------------
 SCF time:   CPU 134.75s  wall 8.00s 
<S^2> =          0.754761469
(3)  G-ENP(liq) elect-nuc-pol free energy of system     -226.926580740 a.u.
(4)  G-CDS(liq) cavity-dispersion-solvent structure 
     free energy                                                0.8844 kcal/mol
(6)  G-S(liq) free energy of system                     -226.925171418 a.u.
 SCF   energy in the final basis set =     -226.9251714177
 Total energy in the final basis set =     -226.9251714177
 
 --------------------------------------------------------------
 
                    Orbital Energies (a.u.)
 --------------------------------------------------------------
 
 Alpha MOs
 -- Occupied --
-19.3461 -19.3446 -19.3109  -1.2264  -1.1155  -0.8737  -0.6200  -0.5337
 -0.5289  -0.5187  -0.4719  -0.4151  -0.3314  -0.3023
 -- Virtual --
  0.0423   0.0716   0.1415   0.1832   0.1927   0.2024   0.2326   0.2395
  0.2437   0.2638   0.2766   0.2877   0.3033   0.3418   0.3607   0.3977
  0.4260   0.6113   0.6902   0.7586   0.7834   0.8445   0.9681   1.0091
  1.0292   1.0481   1.0955   1.1250   1.1441   1.1617   1.2008   1.2459
  1.3864   1.4094   1.4275   1.4648   1.4913   1.5142   1.5468   1.6323
  1.7340   1.7442   1.8901   2.0255   2.0719   2.2155   2.2767   2.3090
  2.3494   2.4056   2.4876   2.6367   2.7171   3.0079   3.7167   3.7755
  3.8022   3.9870   4.2317   4.4449   4.5798   4.6503   4.7807   4.7838
  4.8302   5.0756   5.0970   5.1193   5.1229   5.1424   5.1627   5.1695
  5.2288   5.2325   5.2384   5.2472   5.2653   5.3126   5.4230   5.5503
  5.5765   5.6149   5.6456   5.7169   5.8677   6.4550   6.4874   6.7806
  6.8578   6.9213   6.9537   6.9918   7.0259   7.0963   7.1044   7.1458
[...]
      XYYY    -317.1517   YYYY    -500.4078   XXXZ     741.8770
      XXYZ      54.0976   XYYZ     116.9310   YYYZ     226.7714
      XXZZ    -453.9461   XYZZ     -79.6370   YYZZ    -151.1327
      XZZZ     461.7427   YZZZ     183.9713   ZZZZ    -542.8923
 -----------------------------------------------------------------
 Calculating analytic gradient of the SCF energy
 Gradient of CDS energy
            1           2           3           4           5
    1  -0.0001911  -0.0001247   0.0001788   0.0002276  -0.0000905
    2   0.0000933  -0.0000120  -0.0001889   0.0003461  -0.0002385
    3   0.0000603   0.0000497   0.0000377  -0.0002318   0.0000841
 Gradient of SCF Energy
            1           2           3           4           5
    1   0.0076169  -0.0060041  -0.0302269  -0.0066412   0.0352552
    2  -0.0313317   0.0296201   0.0135121  -0.0196214   0.0078209
    3  -0.0015954   0.0020189   0.0056322   0.0094053  -0.0154609
 Max gradient component =       3.526E-02
 RMS gradient           =       1.853E-02
 Computing fast CPCM-SWIG gradient
 Updating gradient with PCM contributions...
 -- total gradient after adding PCM contribution --
---------------------------------------------------
  Atom         X              Y              Z     
---------------------------------------------------
   1      -0.000085      -0.000060      -0.000159
   2       0.000038      -0.000016       0.000062
   3      -0.000311      -0.000102      -0.000151
   4      -0.000005       0.000020       0.000068
   5       0.000364       0.000159       0.000180
---------------------------------------------------
 Number of fixed atoms: 0
 Gradient time:  CPU 13.39 s  wall 0.89 s
Dipole drv :
gprntSymmMtrx error report: 
 Final Hessian.
            1           2           3           4           5           6
    1   0.0390429  -0.0888273  -0.0091270  -0.0209856   0.0928841   0.0036302
    2  -0.0888273   0.4768839   0.0142892   0.0860643  -0.4744719  -0.0132856
    3  -0.0091270   0.0142892   0.0062936   0.0037687  -0.0153470  -0.0014249
    4  -0.0209856   0.0860643   0.0037687   0.0216971  -0.0905183  -0.0040383
    5   0.0928841  -0.4744719  -0.0153470  -0.0905183   0.4774569   0.0146421
    6   0.0036302  -0.0132856  -0.0014249  -0.0040383   0.0146421   0.0012869
    7  -0.0354701  -0.0065963   0.0138001   0.0016414   0.0028349  -0.0007934
    8  -0.0022803   0.0024465   0.0004258  -0.0016955   0.0030392   0.0005985
    9   0.0140668   0.0021346  -0.0006864  -0.0001336  -0.0013896  -0.0001880
   10  -0.0016851   0.0004691   0.0001600  -0.0003770   0.0008591   0.0000758
   11   0.0011158   0.0001224  -0.0002698   0.0001724  -0.0001741  -0.0000965
   12   0.0003335  -0.0000749   0.0002113  -0.0002225  -0.0001692   0.0000579
   13   0.0190984   0.0088903  -0.0086009  -0.0019763  -0.0060599   0.0011248
   14  -0.0028916  -0.0049805   0.0009038   0.0059766  -0.0058502  -0.0018600
   15  -0.0089037  -0.0030633  -0.0043942   0.0006258   0.0022638   0.0002683
            7           8           9          10          11          12
    1  -0.0354701  -0.0022803   0.0140668  -0.0016851   0.0011158   0.0003335
    2  -0.0065963   0.0024465   0.0021346   0.0004691   0.0001224  -0.0000749
    3   0.0138001   0.0004258  -0.0006864   0.0001600  -0.0002698   0.0002113
    4   0.0016414  -0.0016955  -0.0001336  -0.0003770   0.0001724  -0.0002225
    5   0.0028349   0.0030392  -0.0013896   0.0008591  -0.0001741  -0.0001692
    6  -0.0007934   0.0005985  -0.0001880   0.0000758  -0.0000965   0.0000579
    7   0.4265294   0.0369843  -0.1534948  -0.0397091  -0.0573360   0.0370812
    8   0.0369843   0.4718918  -0.2073628  -0.0155607  -0.4329729   0.1869247
    9  -0.1534948  -0.2073628   0.1433837   0.0195327   0.2007315  -0.0906223
   10  -0.0397091  -0.0155607   0.0195327   0.0440234   0.0531308  -0.0365667
   11  -0.0573360  -0.4329729   0.2007315   0.0531308   0.4371367  -0.2009768
   12   0.0370812   0.1869247  -0.0906223  -0.0365667  -0.2009768   0.0965265
   13  -0.3529916  -0.0174478   0.1200289  -0.0022522   0.0029171  -0.0006255
   14   0.0241131  -0.0444047   0.0058864  -0.0388983  -0.0041120   0.0142962
   15   0.1034068   0.0194139  -0.0518870   0.0167981   0.0006116  -0.0061734
           13          14          15
    1   0.0190984  -0.0028916  -0.0089037
    2   0.0088903  -0.0049805  -0.0030633
    3  -0.0086009   0.0009038  -0.0043942
    4  -0.0019763   0.0059766   0.0006258
    5  -0.0060599  -0.0058502   0.0022638
    6   0.0011248  -0.0018600   0.0002683
    7  -0.3529916   0.0241131   0.1034068
    8  -0.0174478  -0.0444047   0.0194139
    9   0.1200289   0.0058864  -0.0518870
   10  -0.0022522  -0.0388983   0.0167981
   11   0.0029171  -0.0041120   0.0006116
   12  -0.0006255   0.0142962  -0.0061734
   13   0.3381212   0.0117001  -0.1119271
   14   0.0117001   0.0593473  -0.0192265
   15  -0.1119271  -0.0192265   0.0621871
 ----------------------------------------------------------------
             Standard Nuclear Orientation (Angstroms)
    I     Atom           X                Y                Z
 ----------------------------------------------------------------
    1      O       2.2226940169     1.2700557604    -1.6693256362
    2      O       1.9824214348     2.5710621664    -1.6323817444
    3      O       4.7793708417     1.3110333018    -2.5258623963
    4      H       4.8764460685     2.1812884739    -2.9230934872
    5      H       3.8442635380     1.2778931974    -2.2063041357
 ----------------------------------------------------------------
 Nuclear Repulsion Energy =          64.76587254 hartrees
 There are       14 alpha and       13 beta electrons
 old dipole drv.
            1           2           3           4           5           6
    1  -0.8157453  -0.0323344   0.1226281  -0.4755826   0.0157042  -0.0005361
    2   0.0766671  -0.5460087  -0.0222581  -0.0322141  -0.3733496   0.0084127
    3   0.1230900   0.0154141  -0.4961041   0.0008252  -0.0077289  -0.4761157
            7           8           9          10          11          12
    1  -1.2078059  -0.1279579   0.1418298   0.3625076   0.0257335   0.0119924
    2  -0.0143076  -0.6656576  -0.0971630   0.0716511   0.2641085   0.0454221
    3   0.1416980  -0.0572459  -0.9417588  -0.0049967   0.0620682   0.4096664
           13          14          15
    1   1.1366336   0.1188529  -0.2759173
    2  -0.1017942   0.3208972   0.0655884
    3  -0.2606197  -0.0124939   0.5043047
 New transposed dipole drv.
            1           2           3
    1  -0.8157453   0.0766671   0.1230900
    2  -0.0323344  -0.5460087   0.0154141
    3   0.1226281  -0.0222581  -0.4961041
    4  -0.4755826  -0.0322141   0.0008252
    5   0.0157042  -0.3733496  -0.0077289
    6  -0.0005361   0.0084127  -0.4761157
    7  -1.2078059  -0.0143076   0.1416980
    8  -0.1279579  -0.6656576  -0.0572459
    9   0.1418298  -0.0971630  -0.9417588
   10   0.3625076   0.0716511  -0.0049967
   11   0.0257335   0.2641085   0.0620682
   12   0.0119924   0.0454221   0.4096664
   13   1.1366336  -0.1017942  -0.2606197
   14   0.1188529   0.3208972  -0.0124939
   15  -0.2759173   0.0655884   0.5043047
FINAL TENSOR RESULT:
Order 2, Length 15
    Atom      X          Y          Z
     1 Order 1, Length 15
    Atom      X          Y          Z
     1    3.904291576678569e-02  -8.882726106947637e-02  -9.126990501210096e-03
     2   -2.098558608681719e-02   9.288409743044673e-02   3.630212421735211e-03
     3   -3.547009199675089e-02  -2.280321996259035e-03   1.406675514976522e-02
     4   -1.685087911857444e-03   1.115778183234853e-03   3.334571533736660e-04
     5    1.909839041588395e-02  -2.891627593454871e-03  -8.903716259586747e-03

Order 1, Length 15
    Atom      X          Y          Z
     1   -8.882726106947637e-02   4.768838717259152e-01   1.428916200719634e-02
     2    8.606429767759727e-02  -4.744719443291325e-01  -1.328559315964286e-02
     3   -6.596339192847574e-03   2.446452802895730e-03   2.134563036793412e-03
     4    4.691047318043645e-04   1.223684710214120e-04  -7.491278442478566e-05
     5    8.890299640008772e-03  -4.980505995989286e-03  -3.063271707952046e-03

Order 1, Length 15
    Atom      X          Y          Z
     1   -9.126990501210096e-03   1.428916200719634e-02   6.293628549948734e-03
     2    3.768684721354643e-03  -1.534704374936881e-02  -1.424897620637146e-03
     3    1.380008430827597e-02   4.257849944458254e-04  -6.863628016114719e-04
     4    1.600281748285524e-04  -2.697686769118879e-04   2.112678132324057e-04
     5   -8.600857810113657e-03   9.037999048142845e-04  -4.394220561763419e-03


     2 Order 1, Length 15
    Atom      X          Y          Z
     1   -2.098558608681719e-02   8.606429767759727e-02   3.768684721354643e-03
     2    2.169706827271116e-02  -9.051827678492283e-02  -4.038335263899705e-03
     3    1.641390118618356e-03  -1.695522764174036e-03  -1.335927768842622e-04
     4   -3.769596364808416e-04   1.724260755076836e-04  -2.224609506206203e-04
     5   -1.976251366823294e-03   5.976649872280890e-03   6.258163625309878e-04

Order 1, Length 15
    Atom      X          Y          Z
     1    9.288409743044673e-02  -4.744719443291325e-01  -1.534704374936881e-02
     2   -9.051827678492283e-02   4.774568845843521e-01   1.464206930088591e-02
     3    2.834903031246462e-03   3.039150732065492e-03  -1.389594479260426e-03
     4    8.591295893598516e-04  -1.741268137243750e-04  -1.692000431577468e-04
     5   -6.059939113907033e-03  -5.850173308124774e-03   2.263809268153171e-03

Order 1, Length 15
    Atom      X          Y          Z
     1    3.630212421735211e-03  -1.328559315964286e-02  -1.424897620637146e-03
     2   -4.038335263899705e-03   1.464206930088591e-02   1.286862987391270e-03
     3   -7.933595379145527e-04   5.984578140539016e-04  -1.880483234421634e-04
     4    7.582525944473577e-05  -9.654233989543074e-05   5.793197386823595e-05
     5    1.124805353570179e-03  -1.859963043639249e-03   2.682713416941469e-04


     3 Order 1, Length 15
    Atom      X          Y          Z
     1   -3.547009199675089e-02  -6.596339192847574e-03   1.380008430827597e-02
     2    1.641390118618356e-03   2.834903031246462e-03  -7.933595379145527e-04
     3    4.265294316182166e-01   3.698431504707016e-02  -1.534948195336253e-01
     4   -3.970905158624689e-02  -5.733604070378798e-02   3.708118208870669e-02
     5   -3.529915608839876e-01   2.411312463743120e-02   1.034068085412787e-01

Order 1, Length 15
    Atom      X          Y          Z
     1   -2.280321996259035e-03   2.446452802895730e-03   4.257849944458254e-04
     2   -1.695522764174036e-03   3.039150732065492e-03   5.984578140539016e-04
     3    3.698431504707016e-02   4.718917657135253e-01  -2.073627954284907e-01
     4   -1.556066225913749e-02  -4.329728549168484e-01   1.869247018540398e-01
     5   -1.744776178809490e-02  -4.440465886413450e-02   1.941386770217989e-02

Order 1, Length 15
    Atom      X          Y          Z
     1    1.406675514976522e-02   2.134563036793412e-03  -6.863628016114719e-04
     2   -1.335927768842622e-04  -1.389594479260426e-03  -1.880483234421634e-04
     3   -1.534948195336253e-01  -2.073627954284907e-01   1.433837017716518e-01
     4    1.953270628294443e-02   2.007315080070020e-01  -9.062234568030347e-02
     5    1.200289443694148e-01   5.886412487312944e-03  -5.188704194695850e-02


     4 Order 1, Length 15
    Atom      X          Y          Z
     1   -1.685087911857444e-03   4.691047318043645e-04   1.600281748285524e-04
     2   -3.769596364808416e-04   8.591295893598516e-04   7.582525944473577e-05
     3   -3.970905158624689e-02  -1.556066225913749e-02   1.953270628294443e-02
     4    4.402340255811339e-02   5.313077291971975e-02  -3.656667601426788e-02
     5   -2.252209846055952e-03  -3.889832903752395e-02   1.679812766632060e-02

Order 1, Length 15
    Atom      X          Y          Z
     1    1.115778183234853e-03   1.223684710214120e-04  -2.697686769118879e-04
     2    1.724260755076836e-04  -1.741268137243750e-04  -9.654233989543074e-05
     3   -5.733604070378798e-02  -4.329728549168484e-01   2.007315080070020e-01
     4    5.313077291971975e-02   4.371367083789543e-01  -2.009767613891940e-01
     5    2.917119241009009e-03  -4.111976458194945e-03   6.115616383010150e-04

Order 1, Length 15
    Atom      X          Y          Z
     1    3.334571533736660e-04  -7.491278442478566e-05   2.112678132324057e-04
     2   -2.224609506206203e-04  -1.692000431577468e-04   5.793197386823595e-05
     3    3.708118208870669e-02   1.869247018540398e-01  -9.062234568030347e-02
     4   -3.656667601426788e-02  -2.009767613891940e-01   9.652653128799092e-02
     5   -6.255488762753205e-04   1.429624626699926e-02  -6.173448517779771e-03


     5 Order 1, Length 15
    Atom      X          Y          Z
     1    1.909839041588395e-02   8.890299640008772e-03  -8.600857810113657e-03
     2   -1.976251366823294e-03  -6.059939113907033e-03   1.124805353570179e-03
     3   -3.529915608839876e-01  -1.744776178809490e-02   1.200289443694148e-01
     4   -2.252209846055952e-03   2.917119241009009e-03  -6.255488762753205e-04
     5    3.381212193623875e-01   1.170006425106578e-02  -1.119270803301367e-01

Order 1, Length 15
    Atom      X          Y          Z
     1   -2.891627593454871e-03  -4.980505995989286e-03   9.037999048142845e-04
     2    5.976649872280890e-03  -5.850173308124774e-03  -1.859963043639249e-03
     3    2.411312463743120e-02  -4.440465886413450e-02   5.886412487312944e-03
     4   -3.889832903752395e-02  -4.111976458194945e-03   1.429624626699926e-02
     5    1.170006425106578e-02   5.934730694256665e-02  -1.922649748643972e-02

Order 1, Length 15
    Atom      X          Y          Z
     1   -8.903716259586747e-03  -3.063271707952046e-03  -4.394220561763419e-03
     2    6.258163625309878e-04   2.263809268153171e-03   2.682713416941469e-04
     3    1.034068085412787e-01   1.941386770217989e-02  -5.188704194695850e-02
     4    1.679812766632060e-02   6.115616383010150e-04  -6.173448517779771e-03
     5   -1.119270803301367e-01  -1.922649748643972e-02   6.218706404410847e-02




 # Finishing finite difference calculation for IDERIV #
 ######################################################
 ######################################################
 Requested basis set is 6-311++G(2df,2p)
 There are 36 shells and 122 basis functions
 **********************************************************************
 **                                                                  **
 **                       VIBRATIONAL ANALYSIS                       **
 **                       --------------------                       **
 **                                                                  **
 **        VIBRATIONAL FREQUENCIES (CM**-1) AND NORMAL MODES         **
 **     FORCE CONSTANTS (mDYN/ANGSTROM) AND REDUCED MASSES (AMU)     **
 **                  INFRARED INTENSITIES (KM/MOL)                   **
 **                                                                  **
 **********************************************************************
 

 Mode:                 1                      2                      3
 Frequency:        57.09                 105.95                 244.98
 Force Cnst:      0.0024                 0.0332                 0.3366
 Red. Mass:       1.2563                 5.0214                 9.5209
 IR Active:          YES                    YES                    YES
 IR Intens:      182.945                 36.467                 43.234
 Raman Active:       YES                    YES                    YES
               X      Y      Z        X      Y      Z        X      Y      Z
 O         -0.013 -0.022  0.060   -0.159 -0.136  0.016    0.533  0.071 -0.180
 O          0.053 -0.006 -0.064    0.378 -0.033 -0.094   -0.015 -0.048  0.005
 O         -0.051  0.005 -0.052   -0.167  0.180  0.105   -0.467 -0.027  0.157
 H          0.184  0.406  0.884   -0.654 -0.045 -0.504   -0.270 -0.054  0.153
 H         -0.022 -0.035  0.023   -0.166 -0.127  0.070   -0.549  0.123  0.130
 TransDip   0.087  0.148  0.398   -0.141 -0.075 -0.109   -0.196  0.036  0.068

 Mode:                 4                      5                      6
 Frequency:       462.24                 693.67                1276.81
 Force Cnst:      0.1356                 0.2949                15.3368
 Red. Mass:       1.0772                 1.0402                15.9675
 IR Active:          YES                    YES                    YES
 IR Intens:      145.914                188.037                  1.151
 Raman Active:       YES                    YES                    YES
               X      Y      Z        X      Y      Z        X      Y      Z
 O         -0.019 -0.025  0.023   -0.012 -0.010 -0.020    0.137 -0.693 -0.023
 O          0.025 -0.015 -0.009    0.008 -0.005 -0.001   -0.130  0.694  0.020
 O         -0.042  0.016  0.016   -0.020 -0.009 -0.031   -0.005 -0.003  0.003
 H          0.735 -0.154 -0.155    0.089 -0.029 -0.045   -0.032  0.004  0.008
 H         -0.165  0.533 -0.310    0.275  0.423  0.856    0.008  0.012 -0.022
 TransDip   0.269  0.171 -0.219    0.178  0.173  0.362   -0.002  0.034 -0.003

 Mode:                 7                      8                      9
 Frequency:      1621.90                3254.35                3871.24
 Force Cnst:      1.6587                 6.6693                 9.4126
 Red. Mass:       1.0702                 1.0688                 1.0660
 IR Active:          YES                    YES                    YES
 IR Intens:      105.648               1545.798                 96.507
 Raman Active:       YES                    YES                    YES
               X      Y      Z        X      Y      Z        X      Y      Z
 O         -0.002 -0.002  0.002    0.004  0.002 -0.001    0.000  0.000 -0.000
 O          0.003 -0.004 -0.001   -0.000 -0.001  0.000    0.000 -0.000  0.000
 O          0.041 -0.049  0.007   -0.060 -0.000  0.020   -0.011 -0.055  0.027
 H         -0.573  0.122  0.136   -0.030 -0.054  0.032    0.124  0.897 -0.417
 H         -0.108  0.747 -0.254    0.937  0.052 -0.333    0.048 -0.022 -0.007
 TransDip  -0.203  0.256 -0.040    1.184 -0.113 -0.415    0.136  0.241 -0.150

 STANDARD THERMODYNAMIC QUANTITIES AT   298.15 K  AND     1.00 ATM

   This Molecule has  0 Imaginary Frequencies
   Zero point vibrational energy:       16.566 kcal/mol

   Atom    1 Element O  Has Mass   15.99491
   Atom    2 Element O  Has Mass   15.99491
   Atom    3 Element O  Has Mass   15.99491
   Atom    4 Element H  Has Mass    1.00783
   Atom    5 Element H  Has Mass    1.00783
   Molecular Mass:    50.000390 amu
   Principal axes and moments of inertia in amu*Bohr^2:
                             1           2           3
    Eigenvalues --       45.57157   340.79189   385.73013
          X               0.91818     0.22166     0.32834
          Y              -0.25258     0.96606     0.05413
          Z              -0.30520    -0.13263     0.94301
   Rotational Symmetry Number is   1
   The Molecule is an Asymmetric Top
   Translational Enthalpy:        0.889 kcal/mol
   Rotational Enthalpy:           0.889 kcal/mol
   Vibrational Enthalpy:         18.085 kcal/mol
   gas constant (RT):             0.592 kcal/mol
   Translational Entropy:        37.652  cal/mol.K
   Rotational Entropy:           23.309  cal/mol.K
   Vibrational Entropy:          10.774  cal/mol.K

   Total Enthalpy:               20.455 kcal/mol
   Total Entropy:                71.734  cal/mol.K
 Total job time:  579.40s(wall), 5800.21s(cpu) 
 Fri Jun  7 15:45:24 2024

        *************************************************************
        *                                                           *
        *  Thank you very much for using Q-Chem.  Have a nice day.  *
        *                                                           *
        *************************************************************


