
Running Job 1 of 1 Q_in.in
qchem Q_in.in_53556.0 /scratch/ari.fischer/qChem2187299.hpc-mn1/qchem53556/ 0
/usr/local/qchem-5.4.1/exe/qcprog.exe_s Q_in.in_53556.0 /scratch/ari.fischer/qChem2187299.hpc-mn1/qchem53556/
                  Welcome to Q-Chem
     A Quantum Leap Into The Future Of Chemistry


 Q-Chem 5.4, Q-Chem, Inc., Pleasanton, CA (2021)

 License issued to: Nanyang Technological University (site)

 E. Epifanovsky,  A. T. B. Gilbert,  Xintian Feng,  Joonho Lee,  Yuezhi Mao,  
 N. Mardirossian,  P. Pokhilko,  A. White,  M. Wormit,  M. P. Coons,  
 A. L. Dempwolff,  Zhengting Gan,  D. Hait,  P. R. Horn,  L. D. Jacobson,  
 I. Kaliman,  J. Kussmann,  A. W. Lange,  Ka Un Lao,  D. S. Levine,  Jie Liu,  
 S. C. McKenzie,  A. F. Morrison,  K. Nanda,  F. Plasser,  D. R. Rehn,  
 M. L. Vidal,  Zhi-Qiang You,  Ying Zhu,  B. Alam,  B. Albrecht,  
 A. Aldossary,  E. Alguire,  J. H. Andersen,  D. Barton,  K. Begam,  A. Behn,  
 Y. A. Bernard,  E. J. Berquist,  H. Burton,  A. Carreras,  K. Carter-Fenk,  
 R. Chakraborty,  A. D. Chien,  K. D. Closser,  V. Cofer-Shabica,  
 S. Dasgupta,  Jia Deng,  M. de Wergifosse,  M. Diedenhofen,  Hainam Do,  
 S. Ehlert,  Po-Tung Fang,  S. Fatehi,  Qingguo Feng,  T. Friedhoff,  
 J. Gayvert,  Qinghui Ge,  G. Gidofalvi,  M. Goldey,  J. Gomes,  
 C. Gonzalez-Espinoza,  S. Gulania,  A. Gunina,  M. W. D. Hanson-Heine,  
 P. H. P. Harbach,  A. W. Hauser,  M. F. Herbst,  M. Hernandez Vera,  
 M. Hodecker,  Z. C. Holden,  S. Houck,  Xunkun Huang,  Kerwin Hui,  
 B. C. Huynh,  M. Ivanov,  Hyunjun Ji,  Hanjie Jiang,  B. Kaduk,  S. Kaehler,  
 K. Khistyaev,  Jaehoon Kim,  P. Klunzinger,  Z. Koczor-Benda,  
 Joong Hoon Koh,  D. Kosenkov,  L. Koulias,  T. Kowalczyk,  C. M. Krauter,  
 K. Kue,  A. Kunitsa,  T. Kus,  A. Landau,  K. V. Lawler,  D. Lefrancois,  
 S. Lehtola,  Rain Li,  Yi-Pei Li,  Jiashu Liang,  M. Liebenthal,  
 Hung-Hsuan Lin,  You-Sheng Lin,  Fenglai Liu,  Kuan-Yu Liu,  
 M. Loipersberger,  A. Luenser,  A. Manjanath,  P. Manohar,  E. Mansoor,  
 S. F. Manzer,  Shan-Ping Mao,  A. V. Marenich,  T. Markovich,  S. Mason,  
 S. A. Maurer,  P. F. McLaughlin,  M. F. S. J. Menger,  J.-M. Mewes,  
 S. A. Mewes,  P. Morgante,  J. W. Mullinax,  K. J. Oosterbaan,  G. Paran,  
 Alexander C. Paul,  Suranjan K. Paul,  F. Pavosevic,  Zheng Pei,  S. Prager,  
 E. I. Proynov,  E. Ramos,  B. Rana,  A. E. Rask,  A. Rettig,  R. M. Richard,  
 F. Rob,  E. Rossomme,  T. Scheele,  M. Scheurer,  M. Schneider,  
 N. Sergueev,  S. M. Sharada,  W. Skomorowski,  D. W. Small,  C. J. Stein,  
 Yu-Chuan Su,  E. J. Sundstrom,  Zhen Tao,  J. Thirman,  T. Tsuchimochi,  
 N. M. Tubman,  S. P. Veccham,  O. Vydrov,  J. Wenzel,  J. Witte,  A. Yamada,  
 Kun Yao,  S. Yeganeh,  S. R. Yost,  A. Zech,  Igor Ying Zhang,  Xing Zhang,  
 Yu Zhang,  D. Zuev,  A. Aspuru-Guzik,  A. T. Bell,  N. A. Besley,  
 K. B. Bravaya,  B. R. Brooks,  D. Casanova,  Jeng-Da Chai,  S. Coriani,  
 C. J. Cramer,  A. E. DePrince, III,  R. A. DiStasio Jr.,  A. Dreuw,  
 B. D. Dunietz,  T. R. Furlani,  W. A. Goddard III,  S. Grimme,  
 S. Hammes-Schiffer,  T. Head-Gordon,  W. J. Hehre,  Chao-Ping Hsu,  
 T.-C. Jagau,  Yousung Jung,  A. Klamt,  Jing Kong,  D. S. Lambrecht,  
 WanZhen Liang,  N. J. Mayhall,  C. W. McCurdy,  J. B. Neaton,  
 C. Ochsenfeld,  J. A. Parkhill,  R. Peverati,  V. A. Rassolov,  Yihan Shao,  
 L. V. Slipchenko,  T. Stauch,  R. P. Steele,  J. E. Subotnik,  
 A. J. W. Thom,  A. Tkatchenko,  D. G. Truhlar,  T. Van Voorhis,  
 T. A. Wesolowski,  K. B. Whaley,  H. L. Woodcock III,  P. M. Zimmerman,  
 S. Faraji,  P. M. W. Gill,  M. Head-Gordon,  J. M. Herbert,  A. I. Krylov

 Additional authors for Version 5.4.1: 
 S. Kotaru,  Shaozhi Li,  Xiangyuan Li,  F. Matz,  A. Molle,  Haisheng Ren,  
 Yingli Su,  Hung-Yi Tsai,  C. Utku,  Fang Wang

 Contributors to earlier versions of Q-Chem not listed above: 
 R. D. Adamson,  B. Austin,  R. Baer,  J. Baker,  G. J. O. Beran,  
 K. Brandhorst,  S. T. Brown,  E. F. C. Byrd,  A. K. Chakraborty,  
 G. K. L. Chan,  Chun-Min Chang,  Yunqing Chen,  C.-L. Cheng,  
 Siu Hung Chien,  D. M. Chipman,  D. L. Crittenden,  H. Dachsel,  
 R. J. Doerksen,  A. D. Dutoi,  R. G. Edgar,  J. Fosso-Tande,  
 L. Fusti-Molnar,  D. Ghosh,  A. Ghysels,  A. Golubeva-Zadorozhnaya,  
 J. Gonthier,  M. S. Gordon,  S. R. Gwaltney,  G. Hawkins,  J. E. Herr,  
 A. Heyden,  S. Hirata,  E. G. Hohenstein,  G. Kedziora,  F. J. Keil,  
 C. Kelley,  Jihan Kim,  R. A. King,  R. Z. Khaliullin,  P. P. Korambath,  
 W. Kurlancheek,  A. Laurent,  A. M. Lee,  M. S. Lee,  S. V. Levchenko,  
 Ching Yeh Lin,  D. Liotard,  E. Livshits,  R. C. Lochan,  I. Lotan,  
 L. A. Martinez-Martinez,  P. E. Maslen,  N. Nair,  D. P. O'Neill,  
 D. Neuhauser,  E. Neuscamman,  C. M. Oana,  R. Olivares-Amaya,  R. Olson,  
 T. M. Perrine,  B. Peters,  P. A. Pieniazek,  A. Prociuk,  Y. M. Rhee,  
 J. Ritchie,  M. A. Rohrdanz,  E. Rosta,  N. J. Russ,  H. F. Schaefer III,  
 M. W. Schmidt,  N. E. Schultz,  S. Sharma,  N. Shenvi,  C. D. Sherrill,  
 A. C. Simmonett,  A. Sodt,  T. Stein,  D. Stuck,  K. S. Thanthiriwatte,  
 V. Vanovschi,  L. Vogt,  Tao Wang,  A. Warshel,  M. A. Watson,  
 C. F. Williams,  Q. Wu,  X. Xu,  Jun Yang,  W. Zhang,  Yan Zhao

 Please cite Q-Chem as follows:
 Y. Shao et al., Mol. Phys. 113, 184-215 (2015)
 DOI: 10.1080/00268976.2014.952696

 Q-Chem 5.4.1 for Intel X86 EM64T Linux

 Parts of Q-Chem use Armadillo 9.800.1 (Horizon Scraper).
 http://arma.sourceforge.net/

 Q-Chem begins on Tue Jun 25 21:17:20 2024  

 Host: 
0

     Scratch files written to /scratch/ari.fischer/qChem2187299.hpc-mn1/qchem53556//
 Aug1521 |scratch|qcdevops|jenkins|workspace|build_RNUM 8249   
 Processing $rem in /usr/local/qchem-5.4.1/config/preferences:
 Processing $rem in /home/ari.fischer/.qchemrc:
 Symmetry turned off for PCM/SM12/SMD calculation


!!********************************************.
!!******************Warning*******************.
!!Desired Analytical derivatives not available.
!!Finite difference job might take a long time.
!!********************************************.
!!********************************************.


 2-order derivative to be evaluated numerically with 1-order analytical derivatives

 Checking the input file for inconsistencies... 	...done.

--------------------------------------------------------------
User input:
--------------------------------------------------------------
$molecule
0 1
C         2.5361058953   -1.1475803322   -1.0662123674
O         1.4253313362   -0.2844916275   -1.0660045915
C         3.4624552200   -0.6856090019    0.0667181103
O         2.8088280165   -0.9389126783    1.2708508176
C         3.8947726596    0.7619327028   -0.0936823989
C         4.7570987632    1.2753434574    1.0144899431
O         4.8558726516    0.7454494453    2.1042928906
H         3.0653133528   -1.1010574819   -2.0156224649
H         0.9375509682   -0.4270607252   -1.8851207155
H         3.0131058850    1.4072196480   -0.1228075015
H         4.4097833499    0.9134898896   -1.0421221022
H         5.3014857602    2.2067703463    0.8053098935
O         2.1555741998   -2.4887138467   -0.8921440399
H         1.7902288268   -2.5846491397   -0.0022523462
O         4.6077080137   -1.5643849674    0.1226091115
O         5.3711690753   -1.4323438833   -1.0744107584
H         3.3429888730   -0.5396131990    1.9764485467
H         6.0990652527   -0.8569588065   -0.7955779268
$end

$rem
BASIS = 6-311++G(2df,2p)
GUI = 2
JOB_TYPE = Frequency
METHOD = wB97M-V
SOLVENT_METHOD = SMD
SCF_ALGORITHM = DIIS_GDM
MAX_SCF_CYCLES = 400
SCF_CONVERGENCE = 7
THRESH = 12
$end
--------------------------------------------------------------
 ----------------------------------------------------------------
             Standard Nuclear Orientation (Angstroms)
    I     Atom           X                Y                Z
 ----------------------------------------------------------------
    1      C       2.5361058953    -1.1475803322    -1.0662123674
    2      O       1.4253313362    -0.2844916275    -1.0660045915
    3      C       3.4624552200    -0.6856090019     0.0667181103
    4      O       2.8088280165    -0.9389126783     1.2708508176
    5      C       3.8947726596     0.7619327028    -0.0936823989
    6      C       4.7570987632     1.2753434574     1.0144899431
    7      O       4.8558726516     0.7454494453     2.1042928906
    8      H       3.0653133528    -1.1010574819    -2.0156224649
    9      H       0.9375509682    -0.4270607252    -1.8851207155
   10      H       3.0131058850     1.4072196480    -0.1228075015
   11      H       4.4097833499     0.9134898896    -1.0421221022
   12      H       5.3014857602     2.2067703463     0.8053098935
   13      O       2.1555741998    -2.4887138467    -0.8921440399
   14      H       1.7902288268    -2.5846491397    -0.0022523462
   15      O       4.6077080137    -1.5643849674     0.1226091115
   16      O       5.3711690753    -1.4323438833    -1.0744107584
   17      H       3.3429888730    -0.5396131990     1.9764485467
   18      H       6.0990652527    -0.8569588065    -0.7955779268
 ----------------------------------------------------------------
 Nuclear Repulsion Energy =         616.48377918 hartrees
 There are       40 alpha and       40 beta electrons
 Requested basis set is 6-311++G(2df,2p)
 There are 128 shells and 420 basis functions

 Total QAlloc Memory Limit 288000 MB
 Mega-Array Size       188 MB
 MEM_STATIC part       192 MB
 
 Citation of the SMD model:
 Marenich, A.V.; Cramer, C.J.; Truhlar, D.G.
 J. Phys. Chem. B 2009, 113, 6378-6396.
 iSolventCode=           1
 Solvent: water                                                           
 
 vradii
            1           2           3           4           5           6
    1   1.8500000   1.5200000   1.8500000   1.5200000   1.8500000   1.8500000
            7           8           9          10          11          12
    1   1.5200000   1.2000000   1.2000000   1.2000000   1.2000000   1.2000000
           13          14          15          16          17          18
    1   1.5200000   1.2000000   1.5200000   1.5200000   1.2000000   1.2000000
 Changing PCM_VDW_RADII to SMD_RADIUS
 Discretize the solute cavity surface with Lebedev spheres
	Using 110 Lebedev grid points for each H atom
	Using 194 Lebedev grid points for other atoms
	Atomic van der Waals radii will be scaled by 1.20
 Remove points where switching function is < 1.0e-08
 Keep 1417 surface tesserae and discard 1403 interior tesserae
 Molecular Surface Area = 157.698 Angst**2
 A cutoff of  1.0D-12 yielded   7419 shell pairs
 There are     80025 function pairs (     99836 Cartesian)
 Smallest overlap matrix eigenvalue = 6.48E-06
 Guess from superposition of atomic densities
 Warning:  Energy on first SCF cycle will be non-variational
 SAD guess density has 80.000000 electrons

 -----------------------------------------------------------------------
  General SCF calculation program by
  Eric Jon Sundstrom, Paul Horn, Yuezhi Mao, Dmitri Zuev, Alec White,
  David Stuck, Shaama M.S., Shane Yost, Joonho Lee, David Small,
  Daniel Levine, Susi Lehtola, Hugh Burton, Evgeny Epifanovsky,
  Bang C. Huynh
 -----------------------------------------------------------------------
 Exchange:     0.1500 Hartree-Fock + 1.0000 wB97M-V + LR-HF
 Correlation:  1.0000 wB97M-V
 Using SG-2 standard quadrature grid
 Nonlocal Correlation:  VV10 with C = 0.0100 and b = 6.00 and scale = 1.00000
 Grid used for NLC:  SG-1 standard quadrature
 using 16 threads for integral computing
 -------------------------------------------------------
 OpenMP Integral computing Module                
 Release: version 1.0, May 2013, Q-Chem Inc. Pittsburgh 
 -------------------------------------------------------
 
 Citation of the SMD model:
 Marenich, A.V.; Cramer, C.J.; Truhlar, D.G.
 J. Phys. Chem. B 2009, 113, 6378-6396.
 iSolventCode=           1
 Solvent: water                                                           
 
 vradii
            1           2           3           4           5           6
    1   1.8500000   1.5200000   1.8500000   1.5200000   1.8500000   1.8500000
            7           8           9          10          11          12
    1   1.5200000   1.2000000   1.2000000   1.2000000   1.2000000   1.2000000
           13          14          15          16          17          18
    1   1.5200000   1.2000000   1.5200000   1.5200000   1.2000000   1.2000000
 -------------------------------------------------------
 OpenMP BLAS3 based DFT computing Module                
 Release: version 1.0, May 2013, Q-Chem Inc. Pittsburgh 
 -------------------------------------------------------
 A restricted SCF calculation will be
 performed using DIIS, GDM
 SCF converges when RMS gradient is below 1.0e-07
 ---------------------------------------
  Cycle       Energy         DIIS error
 ---------------------------------------
    1    -610.5161402724      2.43e-02  
    2    -608.3518673862      3.35e-03  Done DIIS. Switching to GDM
 ---------------------------------------
  Cycle       Energy        RMS Gradient
 ---------------------------------------
    1    -608.3518673862      1.16e-01   Descent step
    2    -608.5263449527      2.22e-02   Normal BFGS step
    3    -608.5438664297      1.31e-02   Normal BFGS step
    4    -608.5455340072      3.50e-03   Normal BFGS step
    5    -608.5461971919      8.83e-04   Normal BFGS step
    6    -608.5462346887      3.67e-04   Normal BFGS step
    7    -608.5462439821      1.11e-04   Normal BFGS step
    8    -608.5462445101      3.90e-05   Normal BFGS step
    9    -608.5462446053      1.70e-05   Normal BFGS step
   10    -608.5462446225      7.39e-06   Normal BFGS step
   11    -608.5462446245      4.56e-06   Normal BFGS step
   12    -608.5462446248      2.34e-06   Normal BFGS step
   13    -608.5462446250      1.47e-06   Normal BFGS step
   14    -608.5462446250      6.54e-07   Normal BFGS step
   15    -608.5462446250      1.29e-07   Normal BFGS step
   16    -608.5462446250      3.32e-08  Convergence criterion met
 ---------------------------------------
 SCF time:   CPU 1777.11s  wall 124.00s 
(3)  G-ENP(liq) elect-nuc-pol free energy of system     -608.546244625 a.u.
(4)  G-CDS(liq) cavity-dispersion-solvent structure 
     free energy                                                4.4343 kcal/mol
(6)  G-S(liq) free energy of system                     -608.539178195 a.u.
 SCF   energy in the final basis set =     -608.5391781952
 Total energy in the final basis set =     -608.5391781952
 
 --------------------------------------------------------------
 
                    Orbital Energies (a.u.)
 --------------------------------------------------------------
 
 Alpha MOs
 -- Occupied --
-19.4047 -19.3988 -19.3569 -19.3520 -19.3487 -19.3473 -10.4678 -10.4494
-10.4490 -10.3535  -1.2799  -1.2131  -1.2006  -1.1797  -1.1381  -1.0391
 -0.9133  -0.8383  -0.7456  -0.7146  -0.6926  -0.6542  -0.6377  -0.6193
 -0.5950  -0.5828  -0.5737  -0.5667  -0.5506  -0.5377  -0.5286  -0.4845
 -0.4769  -0.4596  -0.4453  -0.4339  -0.4142  -0.4111  -0.3981  -0.3712
 -- Virtual --
  0.0253   0.0364   0.0416   0.0424   0.0482   0.0633   0.0681   0.0703
  0.0774   0.0952   0.1078   0.1167   0.1219   0.1342   0.1359   0.1418
  0.1505   0.1575   0.1619   0.1641   0.1732   0.1813   0.1879   0.1996
  0.2012   0.2096   0.2165   0.2335   0.2382   0.2506   0.2602   0.2728
  0.2764   0.2782   0.2843   0.2887   0.2983   0.3047   0.3099   0.3247
  0.3254   0.3307   0.3388   0.3439   0.3481   0.3555   0.3643   0.3662
  0.3769   0.3796   0.3887   0.3908   0.3961   0.4090   0.4131   0.4227
  0.4269   0.4372   0.4429   0.4544   0.4661   0.4750   0.4839   0.4942
  0.5163   0.5333   0.5750   0.5824   0.5845   0.6051   0.6185   0.6232
  0.6348   0.6496   0.6505   0.6717   0.6766   0.6810   0.6975   0.7148
  0.7249   0.7272   0.7544   0.7596   0.7789   0.7837   0.7972   0.8062
  0.8358   0.8478   0.8714   0.8789   0.8901   0.9346   0.9498   0.9512
  0.9722   0.9871   1.0037   1.0477   1.0531   1.0743   1.0757   1.0978
  1.1147   1.1244   1.1280   1.1427   1.1529   1.1618   1.1727   1.1832
  1.1864   1.1987   1.2060   1.2124   1.2251   1.2473   1.2483   1.2571
  1.2657   1.2805   1.2993   1.3053   1.3185   1.3267   1.3407   1.3522
  1.3696   1.3834   1.3909   1.4060   1.4204   1.4383   1.4650   1.4662
  1.4717   1.4993   1.5110   1.5200   1.5418   1.5543   1.5590   1.5886
  1.5947   1.6195   1.6290   1.6687   1.6747   1.6861   1.6980   1.7153
  1.7424   1.7693   1.7892   1.8034   1.8245   1.8569   1.8983   1.9137
  1.9358   1.9643   1.9736   1.9988   2.0102   2.0457   2.0648   2.0792
  2.1117   2.1366   2.2117   2.2281   2.2558   2.2810   2.2998   2.3374
  2.3643   2.3844   2.4017   2.4538   2.4701   2.4828   2.4897   2.5209
  2.5456   2.5685   2.6010   2.6205   2.6532   2.6959   2.7681   2.7960
  2.8153   2.8413   2.8530   2.8695   2.8913   2.9101   2.9317   2.9742
  3.0042   3.0502   3.0653   3.0988   3.1207   3.1669   3.1874   3.2145
  3.2444   3.2769   3.2981   3.3098   3.3462   3.3578   3.3744   3.3995
  3.4289   3.4372   3.4588   3.4668   3.5105   3.5529   3.5908   3.6006
  3.6184   3.6271   3.6458   3.6717   3.6882   3.7113   3.7410   3.7485
  3.7679   3.7805   3.8077   3.8380   3.8428   3.8445   3.8620   3.8783
  3.9113   3.9282   3.9353   3.9474   3.9766   4.0099   4.0267   4.0454
  4.0648   4.0991   4.1269   4.1429   4.1705   4.2114   4.2254   4.2519
  4.2590   4.2672   4.3009   4.3218   4.3570   4.3687   4.4049   4.4208
  4.4338   4.4458   4.4642   4.5446   4.5681   4.5961   4.6086   4.6803
  4.7170   4.7388   4.7562   4.8174   4.8566   4.8804   5.0112   5.0489
  5.0830   5.1643   5.2002   5.2141   5.2174   5.2380   5.2453   5.2523
  5.2793   5.2894   5.3000   5.3185   5.3346   5.3499   5.3644   5.3801
  5.3895   5.4129   5.4231   5.4449   5.4665   5.4941   5.5061   5.5391
  5.5501   5.5594   5.5784   5.5901   5.6080   5.6222   5.6410   5.6542
  5.6681   5.6839   5.7127   5.7755   5.7837   5.7880   5.8197   5.8731
  5.9180   5.9740   6.0334   6.0471   6.0944   6.1398   6.1609   6.2537
  6.3560   6.4977   6.5890   6.7138   6.7545   6.8222   6.8645   6.9842
  7.0199   7.0422   7.0631   7.0837   7.1000   7.1402   7.1490   7.1909
  7.2523   7.2678   7.2773   7.3094   7.3196   7.3296   7.3474   7.3857
  7.4121   7.4248   7.4667   7.5006   7.5067   7.5583   7.5864   7.6096
  7.6664   7.6844   7.7577   7.7712   7.8441   7.8627   7.8946   7.9122
  8.0210   8.2038  24.6545  24.7874  24.8537  24.9876  50.4956  50.5946
 50.6293  50.6442  50.6922  50.7185
 --------------------------------------------------------------
 
          Ground-State Mulliken Net Atomic Charges

     Atom                 Charge (a.u.)
  ----------------------------------------
      1 C                    -0.101211
      2 O                    -0.430369
      3 C                     0.094273
      4 O                    -0.396652
      5 C                    -0.309746
      6 C                     0.042603
      7 O                    -0.376223
      8 H                     0.302127
      9 H                     0.340168
     10 H                     0.249534
     11 H                     0.255014
     12 H                     0.222955
     13 O                    -0.456100
     14 H                     0.348817
     15 O                    -0.159504
     16 O                    -0.298122
     17 H                     0.331335
     18 H                     0.341102
  ----------------------------------------
  Sum of atomic charges =     0.000000

 -----------------------------------------------------------------
                    Cartesian Multipole Moments
 -----------------------------------------------------------------
    Charge (ESU x 10^10)
                -0.0000
    Dipole Moment (Debye)
         X       1.3347      Y       5.8923      Z      -3.3852
       Tot       6.9253
    Quadrupole Moments (Debye-Ang)
        XX     -44.0307     XY      25.8169     YY     -66.5899
        XZ     -13.2039     YZ      -4.3590     ZZ     -60.7279
    Octopole Moments (Debye-Ang^2)
       XXX    -508.2859    XXY     144.4057    XYY    -239.3849
       YYY     138.5083    XXZ     -73.4223    XYZ     -16.7668
       YYZ      16.4101    XZZ    -240.8219    YZZ      31.2605
       ZZZ     -27.2686
    Hexadecapole Moments (Debye-Ang^3)
      XXXX   -4202.5678   XXXY     748.9096   XXYY   -1078.8241
      XYYY     427.1433   YYYY    -714.7842   XXXZ    -522.4967
      XXYZ    -111.5693   XYYZ      10.5223   YYYZ    -158.8029
      XXZZ   -1120.4734   XYZZ      76.5706   YYZZ    -214.9100
      XZZZ    -196.7718   YZZZ    -132.6551   ZZZZ    -479.3961
 -----------------------------------------------------------------
 Calculating analytic gradient of the SCF energy
 Gradient of CDS energy
            1           2           3           4           5           6
    1  -0.0025904   0.0018440  -0.0017954   0.0018594  -0.0001736   0.0005427
    2  -0.0015930  -0.0014404  -0.0007549   0.0007296  -0.0000235   0.0001230
    3   0.0000242   0.0002547   0.0033338  -0.0035825  -0.0003046   0.0019727
            7           8           9          10          11          12
    1  -0.0000257   0.0002499  -0.0004093  -0.0002016   0.0000260   0.0000114
    2   0.0005206  -0.0000484   0.0002003  -0.0000426  -0.0000983   0.0000800
    3  -0.0011142  -0.0000104  -0.0002451  -0.0000542  -0.0001310  -0.0001300
           13          14          15          16          17          18
    1   0.0009706  -0.0002509  -0.0001056  -0.0002780  -0.0001552   0.0004816
    2   0.0030434  -0.0003705  -0.0000478  -0.0000346  -0.0001201  -0.0001229
    3  -0.0003461   0.0002143  -0.0001207   0.0001007   0.0003300  -0.0001918
 Gradient of SCF Energy
            1           2           3           4           5           6
    1  -0.0028880   0.0028670   0.0030748  -0.0030620   0.0003583  -0.0091035
    2   0.0006810   0.0017574   0.0026506  -0.0023396  -0.0118499  -0.0096291
    3   0.0049019   0.0146610  -0.0010993  -0.0005984   0.0182857  -0.0050343
            7           8           9          10          11          12
    1   0.0027784   0.0007636  -0.0047972  -0.0056890   0.0081686   0.0073827
    2  -0.0040056   0.0043430  -0.0007151   0.0078335   0.0030462   0.0128922
    3   0.0074526  -0.0060225  -0.0130500  -0.0009140  -0.0139886  -0.0047936
           13          14          15          16          17          18
    1   0.0034332  -0.0023895  -0.0021267  -0.0116220   0.0003683   0.0124829
    2  -0.0054899   0.0007316  -0.0029440  -0.0146048   0.0023389   0.0153037
    3  -0.0007335  -0.0002000   0.0034861  -0.0061424   0.0006288   0.0031605
 Max gradient component =       1.829E-02
 RMS gradient           =       7.166E-03
 Computing fast CPCM-SWIG gradient
 Updating gradient with PCM contributions...
 -- total gradient after adding PCM contribution --
---------------------------------------------------
  Atom         X              Y              Z     
---------------------------------------------------
   1       0.000007       0.000039       0.000006
   2       0.000012       0.000002       0.000021
   3      -0.000077       0.000071       0.000026
   4       0.000009      -0.000041      -0.000054
   5       0.000027      -0.000005      -0.000003
   6      -0.000016       0.000035      -0.000016
   7       0.000025      -0.000035       0.000033
   8      -0.000005       0.000024      -0.000014
   9      -0.000020       0.000024      -0.000001
  10       0.000001       0.000009       0.000023
  11      -0.000009       0.000008       0.000009
  12       0.000026      -0.000020       0.000011
  13      -0.000007      -0.000028      -0.000003
  14      -0.000035      -0.000002       0.000003
  15       0.000055      -0.000066      -0.000024
  16      -0.000007      -0.000018      -0.000032
  17       0.000021      -0.000000       0.000022
  18      -0.000008       0.000005      -0.000007
---------------------------------------------------
 Number of fixed atoms: 0
 Gradient time:  CPU 347.14 s  wall 28.73 s
 ######################################################
 ######################################################
 # Starting finite difference calculation for IDERIV  #
 Finite diff step size:  1.88973e-03 a.u.
 ----------------------------------------------------------------
             Standard Nuclear Orientation (Angstroms)
    I     Atom           X                Y                Z
 ----------------------------------------------------------------
    1      C       2.5371058953    -1.1475803322    -1.0662123674
    2      O       1.4253313362    -0.2844916275    -1.0660045915
    3      C       3.4624552200    -0.6856090019     0.0667181103
    4      O       2.8088280165    -0.9389126783     1.2708508176
    5      C       3.8947726596     0.7619327028    -0.0936823989
    6      C       4.7570987632     1.2753434574     1.0144899431
    7      O       4.8558726516     0.7454494453     2.1042928906
    8      H       3.0653133528    -1.1010574819    -2.0156224649
    9      H       0.9375509682    -0.4270607252    -1.8851207155
   10      H       3.0131058850     1.4072196480    -0.1228075015
   11      H       4.4097833499     0.9134898896    -1.0421221022
   12      H       5.3014857602     2.2067703463     0.8053098935
   13      O       2.1555741998    -2.4887138467    -0.8921440399
   14      H       1.7902288268    -2.5846491397    -0.0022523462
   15      O       4.6077080137    -1.5643849674     0.1226091115
   16      O       5.3711690753    -1.4323438833    -1.0744107584
   17      H       3.3429888730    -0.5396131990     1.9764485467
   18      H       6.0990652527    -0.8569588065    -0.7955779268
 ----------------------------------------------------------------
 Nuclear Repulsion Energy =         616.48641734 hartrees
 There are       40 alpha and       40 beta electrons
 Discretize the solute cavity surface with Lebedev spheres
	Using 110 Lebedev grid points for each H atom
	Using 194 Lebedev grid points for other atoms
	Atomic van der Waals radii will be scaled by 1.20
 Remove points where switching function is < 1.0e-08
 Keep 1418 surface tesserae and discard 1402 interior tesserae
 Molecular Surface Area = 157.696 Angst**2
 Requested basis set is 6-311++G(2df,2p)
 There are 128 shells and 420 basis functions
 A cutoff of  1.0D-12 yielded   7419 shell pairs
 There are     80025 function pairs (     99836 Cartesian)
 Smallest overlap matrix eigenvalue = 6.47E-06
 Guess MOs from SCF MO coefficient file

 -----------------------------------------------------------------------
  General SCF calculation program by
  Eric Jon Sundstrom, Paul Horn, Yuezhi Mao, Dmitri Zuev, Alec White,
  David Stuck, Shaama M.S., Shane Yost, Joonho Lee, David Small,
  Daniel Levine, Susi Lehtola, Hugh Burton, Evgeny Epifanovsky,
  Bang C. Huynh
 -----------------------------------------------------------------------
 Exchange:     0.1500 Hartree-Fock + 1.0000 wB97M-V + LR-HF
 Correlation:  1.0000 wB97M-V
 Using SG-2 standard quadrature grid
 Nonlocal Correlation:  VV10 with C = 0.0100 and b = 6.00 and scale = 1.00000
 Grid used for NLC:  SG-1 standard quadrature
 
 Citation of the SMD model:
 Marenich, A.V.; Cramer, C.J.; Truhlar, D.G.
 J. Phys. Chem. B 2009, 113, 6378-6396.
 iSolventCode=           1
 Solvent: water                                                           
 
 vradii
            1           2           3           4           5           6
    1   1.8500000   1.5200000   1.8500000   1.5200000   1.8500000   1.8500000
            7           8           9          10          11          12
    1   1.5200000   1.2000000   1.2000000   1.2000000   1.2000000   1.2000000
           13          14          15          16          17          18
    1   1.5200000   1.2000000   1.5200000   1.5200000   1.2000000   1.2000000
 -------------------------------------------------------
 OpenMP BLAS3 based DFT computing Module                
 Release: version 1.0, May 2013, Q-Chem Inc. Pittsburgh 
 -------------------------------------------------------
 A restricted SCF calculation will be
 performed using Roothaan-Hall, DIIS, GDM
 SCF converges when RMS gradient is below 1.0e-07
 ---------------------------------------
  Cycle       Energy         DIIS error
 ---------------------------------------
    1    -608.4933119434      5.21e-04  Roothaan Step
 ---------------------------------------
  Cycle       Energy         DIIS error
 ---------------------------------------
    1    -608.5340829620      6.19e-04  
    2    -608.5406340174      6.05e-04  Done DIIS. Switching to GDM
 ---------------------------------------
  Cycle       Energy        RMS Gradient
 ---------------------------------------
    1    -608.5406340174      2.07e-02   Normal BFGS step
    2    -608.5385516859      3.16e-02  Line search: overstep
    3    -608.5458977032      1.37e-03   Normal BFGS step
    4    -608.5461817297      6.03e-04   Normal BFGS step
    5    -608.5462294468      7.70e-04   Normal BFGS step
    6    -608.5462379039      9.61e-05   Normal BFGS step
    7    -608.5462385152      4.86e-05   Normal BFGS step
    8    -608.5462387466      1.88e-05   Normal BFGS step
    9    -608.5462387542      8.35e-06   Normal BFGS step
   10    -608.5462387592      3.84e-06   Normal BFGS step
   11    -608.5462387595      1.94e-06   Normal BFGS step
   12    -608.5462387597      1.10e-06   Normal BFGS step
   13    -608.5462387597      5.98e-07   Normal BFGS step
   14    -608.5462387597      2.70e-07   Normal BFGS step
   15    -608.5462387597      5.91e-08  Convergence criterion met
 ---------------------------------------
 SCF time:   CPU 1852.73s  wall 130.00s 
(3)  G-ENP(liq) elect-nuc-pol free energy of system     -608.546238760 a.u.
(4)  G-CDS(liq) cavity-dispersion-solvent structure 
     free energy                                                4.4313 kcal/mol
(6)  G-S(liq) free energy of system                     -608.539177088 a.u.
 SCF   energy in the final basis set =     -608.5391770880
 Total energy in the final basis set =     -608.5391770880
 
 --------------------------------------------------------------
 
                    Orbital Energies (a.u.)
 --------------------------------------------------------------
 
 Alpha MOs
 -- Occupied --
-19.4047 -19.3988 -19.3569 -19.3520 -19.3486 -19.3473 -10.4679 -10.4494
-10.4490 -10.3535  -1.2799  -1.2130  -1.2006  -1.1797  -1.1380  -1.0391
 -0.9133  -0.8384  -0.7457  -0.7147  -0.6925  -0.6541  -0.6377  -0.6193
 -0.5950  -0.5827  -0.5737  -0.5667  -0.5506  -0.5376  -0.5286  -0.4845
 -0.4769  -0.4597  -0.4453  -0.4339  -0.4142  -0.4111  -0.3981  -0.3712
 -- Virtual --
  0.0253   0.0364   0.0416   0.0424   0.0482   0.0633   0.0681   0.0703
  0.0774   0.0952   0.1078   0.1167   0.1219   0.1342   0.1359   0.1418
  0.1505   0.1575   0.1619   0.1642   0.1732   0.1813   0.1879   0.1996
  0.2012   0.2096   0.2164   0.2335   0.2382   0.2505   0.2602   0.2728
  0.2764   0.2782   0.2843   0.2887   0.2983   0.3047   0.3099   0.3247
  0.3254   0.3307   0.3389   0.3438   0.3481   0.3556   0.3643   0.3662
  0.3769   0.3797   0.3886   0.3909   0.3960   0.4090   0.4131   0.4227
  0.4269   0.4372   0.4429   0.4544   0.4661   0.4749   0.4839   0.4942
  0.5163   0.5333   0.5750   0.5824   0.5846   0.6051   0.6185   0.6232
  0.6348   0.6496   0.6505   0.6717   0.6766   0.6809   0.6975   0.7149
  0.7249   0.7272   0.7544   0.7596   0.7789   0.7838   0.7972   0.8062
  0.8358   0.8478   0.8714   0.8789   0.8900   0.9346   0.9498   0.9512
  0.9721   0.9871   1.0037   1.0477   1.0530   1.0743   1.0757   1.0978
  1.1147   1.1245   1.1281   1.1427   1.1530   1.1618   1.1727   1.1832
  1.1864   1.1987   1.2060   1.2125   1.2251   1.2473   1.2484   1.2571
  1.2657   1.2804   1.2993   1.3053   1.3185   1.3267   1.3407   1.3523
  1.3697   1.3834   1.3908   1.4060   1.4204   1.4383   1.4650   1.4661
  1.4717   1.4993   1.5110   1.5200   1.5419   1.5544   1.5590   1.5886
  1.5948   1.6196   1.6291   1.6687   1.6748   1.6861   1.6980   1.7154
  1.7424   1.7692   1.7893   1.8034   1.8246   1.8571   1.8982   1.9136
  1.9358   1.9643   1.9736   1.9987   2.0102   2.0457   2.0647   2.0792
  2.1116   2.1366   2.2117   2.2280   2.2558   2.2809   2.2997   2.3373
  2.3643   2.3843   2.4014   2.4538   2.4701   2.4828   2.4895   2.5209
  2.5454   2.5685   2.6011   2.6205   2.6531   2.6958   2.7681   2.7959
  2.8154   2.8412   2.8528   2.8694   2.8912   2.9100   2.9317   2.9742
  3.0044   3.0502   3.0653   3.0988   3.1207   3.1670   3.1874   3.2146
  3.2444   3.2769   3.2981   3.3099   3.3462   3.3577   3.3743   3.3995
  3.4287   3.4372   3.4588   3.4668   3.5105   3.5527   3.5907   3.6007
  3.6184   3.6271   3.6459   3.6716   3.6880   3.7115   3.7410   3.7485
  3.7678   3.7805   3.8078   3.8381   3.8428   3.8445   3.8622   3.8783
  3.9113   3.9281   3.9354   3.9474   3.9765   4.0099   4.0268   4.0459
  4.0648   4.0991   4.1269   4.1426   4.1709   4.2114   4.2254   4.2519
  4.2592   4.2672   4.3011   4.3221   4.3570   4.3689   4.4050   4.4211
  4.4340   4.4460   4.4644   4.5447   4.5685   4.5962   4.6088   4.6805
  4.7170   4.7389   4.7562   4.8175   4.8567   4.8804   5.0112   5.0489
  5.0832   5.1643   5.2002   5.2140   5.2173   5.2381   5.2454   5.2522
  5.2792   5.2894   5.3000   5.3185   5.3346   5.3499   5.3645   5.3802
  5.3896   5.4128   5.4233   5.4450   5.4665   5.4940   5.5062   5.5390
  5.5501   5.5592   5.5787   5.5901   5.6081   5.6222   5.6410   5.6542
  5.6680   5.6839   5.7126   5.7754   5.7837   5.7880   5.8195   5.8730
  5.9179   5.9738   6.0332   6.0469   6.0943   6.1394   6.1585   6.2537
  6.3560   6.4977   6.5885   6.7138   6.7532   6.8222   6.8645   6.9842
  7.0199   7.0422   7.0631   7.0836   7.1000   7.1402   7.1490   7.1909
  7.2522   7.2677   7.2773   7.3094   7.3195   7.3296   7.3474   7.3857
  7.4119   7.4248   7.4667   7.5005   7.5067   7.5583   7.5863   7.6096
  7.6664   7.6843   7.7577   7.7711   7.8441   7.8627   7.8946   7.9120
  8.0210   8.2038  24.6544  24.7871  24.8539  24.9876  50.4956  50.5945
 50.6291  50.6442  50.6921  50.7185
 --------------------------------------------------------------
 
          Ground-State Mulliken Net Atomic Charges

     Atom                 Charge (a.u.)
  ----------------------------------------
      1 C                    -0.101441
      2 O                    -0.430737
      3 C                     0.094204
      4 O                    -0.396631
      5 C                    -0.309537
      6 C                     0.042526
      7 O                    -0.376206
      8 H                     0.302557
      9 H                     0.340137
     10 H                     0.249553
     11 H                     0.255033
     12 H                     0.222962
     13 O                    -0.456197
     14 H                     0.348840
     15 O                    -0.159495
     16 O                    -0.298023
     17 H                     0.331347
     18 H                     0.341108
  ----------------------------------------
  Sum of atomic charges =     0.000000

 -----------------------------------------------------------------
                    Cartesian Multipole Moments
 -----------------------------------------------------------------
    Charge (ESU x 10^10)
                -0.0000
    Dipole Moment (Debye)
         X       1.3405      Y       5.8916      Z      -3.3848
       Tot       6.9256
    Quadrupole Moments (Debye-Ang)
        XX     -44.0022     XY      25.8122     YY     -66.5891
        XZ     -13.2088     YZ      -4.3571     ZZ     -60.7231
    Octopole Moments (Debye-Ang^2)
       XXX    -508.1786    XXY     144.3867    XYY    -239.3806
       YYY     138.5106    XXZ     -73.4464    XYZ     -16.7570
       YYZ      16.4100    XZZ    -240.8010    YZZ      31.2532
       ZZZ     -27.2744
    Hexadecapole Moments (Debye-Ang^3)
      XXXX   -4202.1822   XXXY     748.8575   XXYY   -1078.7995
      XYYY     427.1690   YYYY    -714.7939   XXXZ    -522.5748
      XXYZ    -111.5288   XYYZ      10.5203   YYYZ    -158.8016
      XXZZ   -1120.3959   XYZZ      76.5501   YYZZ    -214.9003
      XZZZ    -196.7911   YZZZ    -132.6382   ZZZZ    -479.3505
 -----------------------------------------------------------------
 Calculating analytic gradient of the SCF energy
 Gradient of CDS energy
            1           2           3           4           5           6
    1  -0.0024448   0.0017161  -0.0017954   0.0018592  -0.0001737   0.0005427
    2  -0.0016328  -0.0013397  -0.0007549   0.0007297  -0.0000235   0.0001230
    3   0.0000164   0.0002546   0.0033338  -0.0035826  -0.0003046   0.0019727
            7           8           9          10          11          12
    1  -0.0000257   0.0002493  -0.0004096  -0.0002019   0.0000260   0.0000114
    2   0.0005206  -0.0000478   0.0002005  -0.0000426  -0.0000983   0.0000800
    3  -0.0011142  -0.0000105  -0.0002452  -0.0000543  -0.0001309  -0.0001300
           13          14          15          16          17          18
    1   0.0009547  -0.0002511  -0.0001056  -0.0002779  -0.0001552   0.0004816
    2   0.0029817  -0.0003707  -0.0000479  -0.0000345  -0.0001201  -0.0001229
    3  -0.0003378   0.0002143  -0.0001207   0.0001008   0.0003300  -0.0001918
 Gradient of SCF Energy
            1           2           3           4           5           6
    1  -0.0017252   0.0023839   0.0028615  -0.0030470   0.0003547  -0.0091074
    2   0.0007061   0.0019688   0.0025887  -0.0023287  -0.0118682  -0.0096303
    3   0.0047818   0.0146213  -0.0012125  -0.0005650   0.0182843  -0.0050416
            7           8           9          10          11          12
    1   0.0027803   0.0005598  -0.0048320  -0.0056856   0.0081720   0.0073865
    2  -0.0040060   0.0043323  -0.0006763   0.0078348   0.0030463   0.0128965
    3   0.0074581  -0.0058350  -0.0130331  -0.0009125  -0.0139949  -0.0047930
           13          14          15          16          17          18
    1   0.0032449  -0.0023971  -0.0021778  -0.0116243   0.0003669   0.0124859
    2  -0.0056522   0.0006913  -0.0029359  -0.0146089   0.0023338   0.0153075
    3  -0.0006682  -0.0001981   0.0034522  -0.0061441   0.0006395   0.0031612
 Max gradient component =       1.828E-02
 RMS gradient           =       7.150E-03
 Computing fast CPCM-SWIG gradient
 Updating gradient with PCM contributions...
 -- total gradient after adding PCM contribution --
---------------------------------------------------
  Atom         X              Y              Z     
---------------------------------------------------
   1       0.001165       0.000059      -0.000127
   2      -0.000451       0.000213      -0.000008
   3      -0.000281       0.000017      -0.000091
   4       0.000031      -0.000030      -0.000012
   5       0.000023      -0.000022      -0.000009
   6      -0.000018       0.000037      -0.000020
   7       0.000027      -0.000035       0.000035
   8      -0.000211       0.000012       0.000189
   9      -0.000066       0.000062       0.000005
  10      -0.000000       0.000010       0.000023
  11      -0.000008       0.000008       0.000009
  12       0.000028      -0.000019       0.000012
  13      -0.000190      -0.000194       0.000057
  14      -0.000049      -0.000041       0.000008
  15       0.000001      -0.000057      -0.000057
  16      -0.000007      -0.000019      -0.000035
  17       0.000016      -0.000006       0.000028
  18      -0.000009       0.000005      -0.000007
---------------------------------------------------
 Number of fixed atoms: 0
 Gradient time:  CPU 348.74 s  wall 28.97 s
 ----------------------------------------------------------------
             Standard Nuclear Orientation (Angstroms)
    I     Atom           X                Y                Z
 ----------------------------------------------------------------
    1      C       2.5351058953    -1.1475803322    -1.0662123674
    2      O       1.4253313362    -0.2844916275    -1.0660045915
    3      C       3.4624552200    -0.6856090019     0.0667181103
    4      O       2.8088280165    -0.9389126783     1.2708508176
    5      C       3.8947726596     0.7619327028    -0.0936823989
    6      C       4.7570987632     1.2753434574     1.0144899431
    7      O       4.8558726516     0.7454494453     2.1042928906
    8      H       3.0653133528    -1.1010574819    -2.0156224649
    9      H       0.9375509682    -0.4270607252    -1.8851207155
   10      H       3.0131058850     1.4072196480    -0.1228075015
   11      H       4.4097833499     0.9134898896    -1.0421221022
   12      H       5.3014857602     2.2067703463     0.8053098935
   13      O       2.1555741998    -2.4887138467    -0.8921440399
   14      H       1.7902288268    -2.5846491397    -0.0022523462
   15      O       4.6077080137    -1.5643849674     0.1226091115
   16      O       5.3711690753    -1.4323438833    -1.0744107584
   17      H       3.3429888730    -0.5396131990     1.9764485467
   18      H       6.0990652527    -0.8569588065    -0.7955779268
 ----------------------------------------------------------------
 Nuclear Repulsion Energy =         616.48114400 hartrees
 There are       40 alpha and       40 beta electrons
 Discretize the solute cavity surface with Lebedev spheres
	Using 110 Lebedev grid points for each H atom
	Using 194 Lebedev grid points for other atoms
	Atomic van der Waals radii will be scaled by 1.20
 Remove points where switching function is < 1.0e-08
 Keep 1416 surface tesserae and discard 1404 interior tesserae
 Molecular Surface Area = 157.699 Angst**2
 Requested basis set is 6-311++G(2df,2p)
 There are 128 shells and 420 basis functions
 A cutoff of  1.0D-12 yielded   7419 shell pairs
 There are     80025 function pairs (     99836 Cartesian)
 Smallest overlap matrix eigenvalue = 6.49E-06
 Guess MOs from SCF MO coefficient file

 -----------------------------------------------------------------------
  General SCF calculation program by
  Eric Jon Sundstrom, Paul Horn, Yuezhi Mao, Dmitri Zuev, Alec White,
  David Stuck, Shaama M.S., Shane Yost, Joonho Lee, David Small,
  Daniel Levine, Susi Lehtola, Hugh Burton, Evgeny Epifanovsky,
  Bang C. Huynh
 -----------------------------------------------------------------------
 Exchange:     0.1500 Hartree-Fock + 1.0000 wB97M-V + LR-HF
 Correlation:  1.0000 wB97M-V
 Using SG-2 standard quadrature grid
 Nonlocal Correlation:  VV10 with C = 0.0100 and b = 6.00 and scale = 1.00000
 Grid used for NLC:  SG-1 standard quadrature
 
 Citation of the SMD model:
 Marenich, A.V.; Cramer, C.J.; Truhlar, D.G.
 J. Phys. Chem. B 2009, 113, 6378-6396.
 iSolventCode=           1
 Solvent: water                                                           
 
 vradii
            1           2           3           4           5           6
    1   1.8500000   1.5200000   1.8500000   1.5200000   1.8500000   1.8500000
            7           8           9          10          11          12
    1   1.5200000   1.2000000   1.2000000   1.2000000   1.2000000   1.2000000
           13          14          15          16          17          18
    1   1.5200000   1.2000000   1.5200000   1.5200000   1.2000000   1.2000000
 -------------------------------------------------------
 OpenMP BLAS3 based DFT computing Module                
 Release: version 1.0, May 2013, Q-Chem Inc. Pittsburgh 
 -------------------------------------------------------
 A restricted SCF calculation will be
 performed using Roothaan-Hall, DIIS, GDM
 SCF converges when RMS gradient is below 1.0e-07
 ---------------------------------------
  Cycle       Energy         DIIS error
 ---------------------------------------
    1    -608.4933179507      5.22e-04  Roothaan Step
 ---------------------------------------
  Cycle       Energy         DIIS error
 ---------------------------------------
    1    -608.5341070064      6.18e-04  
    2    -608.5406566087      6.04e-04  Done DIIS. Switching to GDM
 ---------------------------------------
  Cycle       Energy        RMS Gradient
 ---------------------------------------
    1    -608.5406566087      2.07e-02   Normal BFGS step
    2    -608.5385751098      3.16e-02  Line search: overstep
    3    -608.5459077069      1.37e-03   Normal BFGS step
    4    -608.5461916822      5.97e-04   Normal BFGS step
    5    -608.5462393188      7.67e-04   Normal BFGS step
    6    -608.5462477212      9.63e-05   Normal BFGS step
    7    -608.5462483301      4.90e-05   Normal BFGS step
    8    -608.5462485615      1.88e-05   Normal BFGS step
    9    -608.5462485691      8.34e-06   Normal BFGS step
   10    -608.5462485740      3.83e-06   Normal BFGS step
   11    -608.5462485744      1.94e-06   Normal BFGS step
   12    -608.5462485745      1.09e-06   Normal BFGS step
   13    -608.5462485745      5.96e-07   Normal BFGS step
   14    -608.5462485745      2.70e-07   Normal BFGS step
   15    -608.5462485746      5.92e-08  Convergence criterion met
 ---------------------------------------
 SCF time:   CPU 1848.60s  wall 128.00s 
(3)  G-ENP(liq) elect-nuc-pol free energy of system     -608.546248575 a.u.
(4)  G-CDS(liq) cavity-dispersion-solvent structure 
     free energy                                                4.4374 kcal/mol
(6)  G-S(liq) free energy of system                     -608.539177114 a.u.
 SCF   energy in the final basis set =     -608.5391771145
 Total energy in the final basis set =     -608.5391771145
 
 --------------------------------------------------------------
 
                    Orbital Energies (a.u.)
 --------------------------------------------------------------
 
 Alpha MOs
 -- Occupied --
-19.4047 -19.3988 -19.3569 -19.3520 -19.3488 -19.3473 -10.4678 -10.4494
-10.4490 -10.3535  -1.2799  -1.2132  -1.2006  -1.1797  -1.1383  -1.0391
 -0.9132  -0.8382  -0.7456  -0.7146  -0.6926  -0.6543  -0.6377  -0.6193
 -0.5950  -0.5828  -0.5737  -0.5667  -0.5506  -0.5378  -0.5286  -0.4845
 -0.4769  -0.4596  -0.4452  -0.4339  -0.4142  -0.4111  -0.3981  -0.3711
 -- Virtual --
  0.0253   0.0364   0.0416   0.0424   0.0482   0.0633   0.0681   0.0703
  0.0774   0.0952   0.1078   0.1167   0.1219   0.1342   0.1359   0.1417
  0.1505   0.1575   0.1619   0.1641   0.1732   0.1813   0.1879   0.1996
  0.2013   0.2097   0.2166   0.2335   0.2382   0.2506   0.2602   0.2728
  0.2764   0.2783   0.2844   0.2888   0.2984   0.3047   0.3099   0.3247
  0.3254   0.3307   0.3387   0.3439   0.3481   0.3555   0.3643   0.3662
  0.3770   0.3796   0.3887   0.3908   0.3961   0.4091   0.4131   0.4227
  0.4269   0.4372   0.4429   0.4544   0.4662   0.4750   0.4839   0.4943
  0.5163   0.5333   0.5749   0.5824   0.5844   0.6051   0.6185   0.6232
  0.6348   0.6496   0.6506   0.6717   0.6766   0.6810   0.6974   0.7147
  0.7249   0.7273   0.7544   0.7595   0.7789   0.7837   0.7972   0.8062
  0.8357   0.8478   0.8714   0.8789   0.8901   0.9346   0.9498   0.9512
  0.9722   0.9871   1.0037   1.0476   1.0532   1.0743   1.0757   1.0979
  1.1147   1.1244   1.1280   1.1427   1.1529   1.1618   1.1728   1.1832
  1.1864   1.1988   1.2060   1.2124   1.2251   1.2473   1.2483   1.2571
  1.2657   1.2805   1.2993   1.3053   1.3185   1.3267   1.3407   1.3522
  1.3696   1.3834   1.3910   1.4060   1.4203   1.4382   1.4650   1.4662
  1.4717   1.4994   1.5110   1.5200   1.5418   1.5543   1.5590   1.5886
  1.5946   1.6195   1.6289   1.6687   1.6745   1.6860   1.6980   1.7152
  1.7425   1.7693   1.7891   1.8034   1.8245   1.8568   1.8984   1.9137
  1.9358   1.9643   1.9736   1.9988   2.0102   2.0458   2.0648   2.0792
  2.1117   2.1366   2.2118   2.2283   2.2558   2.2811   2.2998   2.3375
  2.3644   2.3846   2.4019   2.4538   2.4702   2.4829   2.4898   2.5209
  2.5458   2.5685   2.6009   2.6206   2.6532   2.6959   2.7681   2.7961
  2.8153   2.8413   2.8531   2.8697   2.8913   2.9102   2.9317   2.9743
  3.0040   3.0502   3.0653   3.0988   3.1207   3.1668   3.1873   3.2144
  3.2445   3.2770   3.2981   3.3098   3.3462   3.3580   3.3744   3.3996
  3.4291   3.4372   3.4588   3.4667   3.5105   3.5532   3.5909   3.6006
  3.6184   3.6272   3.6458   3.6717   3.6883   3.7111   3.7410   3.7485
  3.7679   3.7805   3.8077   3.8379   3.8427   3.8446   3.8619   3.8782
  3.9114   3.9283   3.9353   3.9475   3.9768   4.0098   4.0266   4.0448
  4.0648   4.0990   4.1269   4.1432   4.1701   4.2114   4.2255   4.2519
  4.2588   4.2672   4.3007   4.3215   4.3569   4.3684   4.4048   4.4205
  4.4336   4.4457   4.4640   4.5446   4.5678   4.5959   4.6084   4.6800
  4.7170   4.7387   4.7562   4.8173   4.8565   4.8803   5.0111   5.0489
  5.0828   5.1643   5.2002   5.2141   5.2174   5.2380   5.2452   5.2524
  5.2793   5.2894   5.3000   5.3185   5.3347   5.3500   5.3643   5.3800
  5.3895   5.4129   5.4229   5.4447   5.4665   5.4942   5.5060   5.5392
  5.5500   5.5596   5.5781   5.5900   5.6080   5.6222   5.6410   5.6542
  5.6682   5.6840   5.7128   5.7756   5.7837   5.7880   5.8198   5.8731
  5.9182   5.9743   6.0336   6.0474   6.0945   6.1401   6.1633   6.2538
  6.3560   6.4977   6.5895   6.7138   6.7558   6.8222   6.8645   6.9842
  7.0200   7.0421   7.0631   7.0837   7.1000   7.1402   7.1490   7.1909
  7.2523   7.2678   7.2774   7.3094   7.3197   7.3297   7.3475   7.3857
  7.4123   7.4249   7.4668   7.5007   7.5066   7.5583   7.5864   7.6096
  7.6665   7.6845   7.7577   7.7713   7.8441   7.8628   7.8946   7.9124
  8.0210   8.2037  24.6547  24.7877  24.8534  24.9875  50.4956  50.5947
 50.6295  50.6442  50.6923  50.7186
 --------------------------------------------------------------
 
          Ground-State Mulliken Net Atomic Charges

     Atom                 Charge (a.u.)
  ----------------------------------------
      1 C                    -0.100983
      2 O                    -0.430001
      3 C                     0.094344
      4 O                    -0.396674
      5 C                    -0.309955
      6 C                     0.042681
      7 O                    -0.376241
      8 H                     0.301696
      9 H                     0.340199
     10 H                     0.249514
     11 H                     0.254996
     12 H                     0.222949
     13 O                    -0.456003
     14 H                     0.348793
     15 O                    -0.159513
     16 O                    -0.298221
     17 H                     0.331322
     18 H                     0.341097
  ----------------------------------------
  Sum of atomic charges =     0.000000

 -----------------------------------------------------------------
                    Cartesian Multipole Moments
 -----------------------------------------------------------------
    Charge (ESU x 10^10)
                -0.0000
    Dipole Moment (Debye)
         X       1.3289      Y       5.8930      Z      -3.3856
       Tot       6.9251
    Quadrupole Moments (Debye-Ang)
        XX     -44.0592     XY      25.8217     YY     -66.5908
        XZ     -13.1989     YZ      -4.3609     ZZ     -60.7326
    Octopole Moments (Debye-Ang^2)
       XXX    -508.3933    XXY     144.4247    XYY    -239.3891
       YYY     138.5060    XXZ     -73.3981    XYZ     -16.7767
       YYZ      16.4102    XZZ    -240.8428    YZZ      31.2678
       ZZZ     -27.2629
    Hexadecapole Moments (Debye-Ang^3)
      XXXX   -4202.9533   XXXY     748.9616   XXYY   -1078.8486
      XYYY     427.1175   YYYY    -714.7744   XXXZ    -522.4185
      XXYZ    -111.6098   XYYZ      10.5243   YYYZ    -158.8043
      XXZZ   -1120.5511   XYZZ      76.5911   YYZZ    -214.9197
      XZZZ    -196.7524   YZZZ    -132.6721   ZZZZ    -479.4418
 -----------------------------------------------------------------
 Calculating analytic gradient of the SCF energy
 Gradient of CDS energy
            1           2           3           4           5           6
    1  -0.0027329   0.0019691  -0.0017953   0.0018597  -0.0001736   0.0005427
    2  -0.0015543  -0.0015392  -0.0007549   0.0007295  -0.0000235   0.0001230
    3   0.0000319   0.0002548   0.0033338  -0.0035825  -0.0003045   0.0019727
            7           8           9          10          11          12
    1  -0.0000257   0.0002506  -0.0004088  -0.0002013   0.0000260   0.0000114
    2   0.0005206  -0.0000490   0.0002000  -0.0000426  -0.0000983   0.0000800
    3  -0.0011142  -0.0000103  -0.0002450  -0.0000541  -0.0001310  -0.0001300
           13          14          15          16          17          18
    1   0.0009862  -0.0002507  -0.0001055  -0.0002781  -0.0001552   0.0004816
    2   0.0031042  -0.0003703  -0.0000477  -0.0000347  -0.0001201  -0.0001229
    3  -0.0003543   0.0002143  -0.0001206   0.0001007   0.0003300  -0.0001918
 Gradient of SCF Energy
            1           2           3           4           5           6
    1  -0.0040488   0.0033489   0.0032877  -0.0030770   0.0003619  -0.0090996
    2   0.0006564   0.0015468   0.0027121  -0.0023506  -0.0118318  -0.0096279
    3   0.0050217   0.0147007  -0.0009866  -0.0006317   0.0182872  -0.0050270
            7           8           9          10          11          12
    1   0.0027766   0.0009672  -0.0047623  -0.0056924   0.0081651   0.0073789
    2  -0.0040052   0.0043536  -0.0007540   0.0078322   0.0030460   0.0128878
    3   0.0074471  -0.0062093  -0.0130668  -0.0009155  -0.0139823  -0.0047942
           13          14          15          16          17          18
    1   0.0036213  -0.0023818  -0.0020757  -0.0116196   0.0003697   0.0124799
    2  -0.0053284   0.0007720  -0.0029521  -0.0146008   0.0023440   0.0152999
    3  -0.0007986  -0.0002019   0.0035199  -0.0061406   0.0006181   0.0031597
 Max gradient component =       1.829E-02
 RMS gradient           =       7.186E-03
 Computing fast CPCM-SWIG gradient
 Updating gradient with PCM contributions...
 -- total gradient after adding PCM contribution --
---------------------------------------------------
  Atom         X              Y              Z     
---------------------------------------------------
   1      -0.001150       0.000019       0.000139
   2       0.000474      -0.000208       0.000050
   3       0.000128       0.000125       0.000142
   4      -0.000012      -0.000052      -0.000097
   5       0.000031       0.000012       0.000004
   6      -0.000014       0.000033      -0.000012
   7       0.000023      -0.000036       0.000031
   8       0.000201       0.000035      -0.000215
   9       0.000026      -0.000014      -0.000007
  10       0.000002       0.000008       0.000022
  11      -0.000009       0.000007       0.000010
  12       0.000025      -0.000021       0.000010
  13       0.000175       0.000137      -0.000063
  14      -0.000021       0.000037      -0.000002
  15       0.000108      -0.000076       0.000009
  16      -0.000007      -0.000018      -0.000030
  17       0.000026       0.000006       0.000015
  18      -0.000008       0.000005      -0.000007
---------------------------------------------------
 Number of fixed atoms: 0
 Gradient time:  CPU 349.68 s  wall 28.92 s
 ----------------------------------------------------------------
             Standard Nuclear Orientation (Angstroms)
    I     Atom           X                Y                Z
 ----------------------------------------------------------------
    1      C       2.5361058953    -1.1465803322    -1.0662123674
    2      O       1.4253313362    -0.2844916275    -1.0660045915
    3      C       3.4624552200    -0.6856090019     0.0667181103
    4      O       2.8088280165    -0.9389126783     1.2708508176
    5      C       3.8947726596     0.7619327028    -0.0936823989
    6      C       4.7570987632     1.2753434574     1.0144899431
    7      O       4.8558726516     0.7454494453     2.1042928906
    8      H       3.0653133528    -1.1010574819    -2.0156224649
    9      H       0.9375509682    -0.4270607252    -1.8851207155
   10      H       3.0131058850     1.4072196480    -0.1228075015
   11      H       4.4097833499     0.9134898896    -1.0421221022
   12      H       5.3014857602     2.2067703463     0.8053098935
   13      O       2.1555741998    -2.4887138467    -0.8921440399
   14      H       1.7902288268    -2.5846491397    -0.0022523462
   15      O       4.6077080137    -1.5643849674     0.1226091115
   16      O       5.3711690753    -1.4323438833    -1.0744107584
   17      H       3.3429888730    -0.5396131990     1.9764485467
   18      H       6.0990652527    -0.8569588065    -0.7955779268
 ----------------------------------------------------------------
 Nuclear Repulsion Energy =         616.48541485 hartrees
 There are       40 alpha and       40 beta electrons
 Discretize the solute cavity surface with Lebedev spheres
	Using 110 Lebedev grid points for each H atom
	Using 194 Lebedev grid points for other atoms
	Atomic van der Waals radii will be scaled by 1.20
 Remove points where switching function is < 1.0e-08
 Keep 1418 surface tesserae and discard 1402 interior tesserae
 Molecular Surface Area = 157.698 Angst**2
 Requested basis set is 6-311++G(2df,2p)
 There are 128 shells and 420 basis functions
 A cutoff of  1.0D-12 yielded   7419 shell pairs
 There are     80025 function pairs (     99836 Cartesian)
 Smallest overlap matrix eigenvalue = 6.47E-06
 Guess MOs from SCF MO coefficient file

 -----------------------------------------------------------------------
  General SCF calculation program by
  Eric Jon Sundstrom, Paul Horn, Yuezhi Mao, Dmitri Zuev, Alec White,
  David Stuck, Shaama M.S., Shane Yost, Joonho Lee, David Small,
  Daniel Levine, Susi Lehtola, Hugh Burton, Evgeny Epifanovsky,
  Bang C. Huynh
 -----------------------------------------------------------------------
 Exchange:     0.1500 Hartree-Fock + 1.0000 wB97M-V + LR-HF
 Correlation:  1.0000 wB97M-V
 Using SG-2 standard quadrature grid
 Nonlocal Correlation:  VV10 with C = 0.0100 and b = 6.00 and scale = 1.00000
 Grid used for NLC:  SG-1 standard quadrature
 
 Citation of the SMD model:
 Marenich, A.V.; Cramer, C.J.; Truhlar, D.G.
 J. Phys. Chem. B 2009, 113, 6378-6396.
 iSolventCode=           1
 Solvent: water                                                           
 
 vradii
            1           2           3           4           5           6
    1   1.8500000   1.5200000   1.8500000   1.5200000   1.8500000   1.8500000
            7           8           9          10          11          12
    1   1.5200000   1.2000000   1.2000000   1.2000000   1.2000000   1.2000000
           13          14          15          16          17          18
    1   1.5200000   1.2000000   1.5200000   1.5200000   1.2000000   1.2000000
 -------------------------------------------------------
 OpenMP BLAS3 based DFT computing Module                
 Release: version 1.0, May 2013, Q-Chem Inc. Pittsburgh 
 -------------------------------------------------------
 A restricted SCF calculation will be
 performed using Roothaan-Hall, DIIS, GDM
 SCF converges when RMS gradient is below 1.0e-07
 ---------------------------------------
  Cycle       Energy         DIIS error
 ---------------------------------------
    1    -608.4933124607      5.21e-04  Roothaan Step
 ---------------------------------------
  Cycle       Energy         DIIS error
 ---------------------------------------
    1    -608.5340771809      6.19e-04  
    2    -608.5406308410      6.05e-04  Done DIIS. Switching to GDM
 ---------------------------------------
  Cycle       Energy        RMS Gradient
 ---------------------------------------
    1    -608.5406308410      2.07e-02   Normal BFGS step
    2    -608.5385468446      3.16e-02  Line search: overstep
    3    -608.5458994889      1.37e-03   Normal BFGS step
    4    -608.5461837175      5.99e-04   Normal BFGS step
    5    -608.5462314452      7.71e-04   Normal BFGS step
    6    -608.5462399219      9.59e-05   Normal BFGS step
    7    -608.5462405339      4.87e-05   Normal BFGS step
    8    -608.5462407658      1.88e-05   Normal BFGS step
    9    -608.5462407734      8.33e-06   Normal BFGS step
   10    -608.5462407784      3.84e-06   Normal BFGS step
   11    -608.5462407787      1.94e-06   Normal BFGS step
   12    -608.5462407789      1.09e-06   Normal BFGS step
   13    -608.5462407789      5.97e-07   Normal BFGS step
   14    -608.5462407789      2.71e-07   Normal BFGS step
   15    -608.5462407789      5.96e-08  Convergence criterion met
 ---------------------------------------
 SCF time:   CPU 1856.00s  wall 130.00s 
(3)  G-ENP(liq) elect-nuc-pol free energy of system     -608.546240779 a.u.
(4)  G-CDS(liq) cavity-dispersion-solvent structure 
     free energy                                                4.4325 kcal/mol
(6)  G-S(liq) free energy of system                     -608.539177078 a.u.
 SCF   energy in the final basis set =     -608.5391770780
 Total energy in the final basis set =     -608.5391770780
 
 --------------------------------------------------------------
 
                    Orbital Energies (a.u.)
 --------------------------------------------------------------
 
 Alpha MOs
 -- Occupied --
-19.4048 -19.3988 -19.3569 -19.3520 -19.3488 -19.3472 -10.4679 -10.4494
-10.4490 -10.3535  -1.2799  -1.2130  -1.2006  -1.1797  -1.1381  -1.0391
 -0.9133  -0.8384  -0.7456  -0.7146  -0.6926  -0.6543  -0.6376  -0.6193
 -0.5950  -0.5827  -0.5738  -0.5667  -0.5506  -0.5377  -0.5286  -0.4845
 -0.4769  -0.4597  -0.4453  -0.4339  -0.4142  -0.4111  -0.3981  -0.3712
 -- Virtual --
  0.0253   0.0364   0.0417   0.0424   0.0482   0.0633   0.0681   0.0703
  0.0774   0.0952   0.1078   0.1167   0.1219   0.1342   0.1359   0.1417
  0.1505   0.1575   0.1619   0.1642   0.1732   0.1812   0.1879   0.1996
  0.2013   0.2096   0.2165   0.2335   0.2381   0.2505   0.2602   0.2728
  0.2764   0.2783   0.2843   0.2888   0.2983   0.3047   0.3099   0.3247
  0.3254   0.3307   0.3388   0.3438   0.3481   0.3555   0.3643   0.3662
  0.3770   0.3796   0.3887   0.3908   0.3961   0.4091   0.4131   0.4227
  0.4268   0.4371   0.4429   0.4543   0.4662   0.4750   0.4839   0.4942
  0.5164   0.5333   0.5749   0.5824   0.5845   0.6051   0.6185   0.6232
  0.6348   0.6496   0.6506   0.6716   0.6766   0.6810   0.6975   0.7148
  0.7248   0.7273   0.7544   0.7596   0.7789   0.7838   0.7972   0.8062
  0.8357   0.8478   0.8714   0.8789   0.8901   0.9346   0.9498   0.9512
  0.9722   0.9871   1.0037   1.0476   1.0531   1.0743   1.0757   1.0979
  1.1147   1.1245   1.1281   1.1427   1.1530   1.1617   1.1728   1.1832
  1.1864   1.1987   1.2060   1.2124   1.2252   1.2473   1.2483   1.2571
  1.2657   1.2804   1.2993   1.3053   1.3185   1.3268   1.3408   1.3522
  1.3696   1.3834   1.3909   1.4059   1.4204   1.4382   1.4650   1.4662
  1.4718   1.4993   1.5110   1.5200   1.5418   1.5542   1.5590   1.5886
  1.5947   1.6196   1.6290   1.6688   1.6746   1.6862   1.6980   1.7153
  1.7424   1.7693   1.7892   1.8034   1.8246   1.8569   1.8982   1.9137
  1.9358   1.9644   1.9736   1.9989   2.0103   2.0457   2.0648   2.0792
  2.1117   2.1367   2.2116   2.2282   2.2557   2.2810   2.2998   2.3375
  2.3643   2.3845   2.4018   2.4538   2.4701   2.4827   2.4896   2.5210
  2.5456   2.5685   2.6010   2.6205   2.6532   2.6959   2.7681   2.7961
  2.8154   2.8412   2.8529   2.8695   2.8913   2.9101   2.9317   2.9742
  3.0043   3.0502   3.0654   3.0988   3.1207   3.1669   3.1875   3.2145
  3.2444   3.2769   3.2982   3.3097   3.3461   3.3580   3.3743   3.3994
  3.4288   3.4373   3.4586   3.4667   3.5105   3.5531   3.5908   3.6007
  3.6186   3.6272   3.6458   3.6716   3.6881   3.7113   3.7409   3.7486
  3.7678   3.7806   3.8078   3.8380   3.8428   3.8445   3.8619   3.8783
  3.9114   3.9282   3.9353   3.9475   3.9766   4.0099   4.0269   4.0455
  4.0649   4.0992   4.1270   4.1429   4.1704   4.2114   4.2255   4.2520
  4.2592   4.2674   4.3011   4.3218   4.3569   4.3685   4.4048   4.4208
  4.4339   4.4459   4.4646   4.5448   4.5682   4.5961   4.6086   4.6803
  4.7170   4.7388   4.7562   4.8175   4.8566   4.8804   5.0111   5.0489
  5.0830   5.1642   5.2002   5.2141   5.2174   5.2380   5.2454   5.2523
  5.2792   5.2894   5.2999   5.3185   5.3346   5.3500   5.3642   5.3800
  5.3895   5.4129   5.4232   5.4449   5.4666   5.4940   5.5062   5.5391
  5.5501   5.5593   5.5786   5.5901   5.6081   5.6222   5.6409   5.6542
  5.6680   5.6839   5.7130   5.7755   5.7837   5.7881   5.8195   5.8730
  5.9182   5.9738   6.0337   6.0465   6.0940   6.1399   6.1600   6.2537
  6.3560   6.4979   6.5892   6.7138   6.7537   6.8223   6.8645   6.9842
  7.0199   7.0422   7.0631   7.0836   7.1000   7.1402   7.1490   7.1909
  7.2522   7.2678   7.2773   7.3093   7.3196   7.3296   7.3474   7.3857
  7.4120   7.4248   7.4668   7.5006   7.5067   7.5583   7.5862   7.6097
  7.6662   7.6845   7.7577   7.7711   7.8442   7.8629   7.8947   7.9122
  8.0210   8.2037  24.6544  24.7873  24.8538  24.9876  50.4956  50.5945
 50.6294  50.6441  50.6922  50.7185
 --------------------------------------------------------------
 
          Ground-State Mulliken Net Atomic Charges

     Atom                 Charge (a.u.)
  ----------------------------------------
      1 C                    -0.101197
      2 O                    -0.429952
      3 C                     0.094269
      4 O                    -0.396620
      5 C                    -0.309783
      6 C                     0.042571
      7 O                    -0.376229
      8 H                     0.302177
      9 H                     0.340232
     10 H                     0.249559
     11 H                     0.255045
     12 H                     0.222955
     13 O                    -0.456626
     14 H                     0.348722
     15 O                    -0.159457
     16 O                    -0.298107
     17 H                     0.331336
     18 H                     0.341106
  ----------------------------------------
  Sum of atomic charges =     0.000000

 -----------------------------------------------------------------
                    Cartesian Multipole Moments
 -----------------------------------------------------------------
    Charge (ESU x 10^10)
                -0.0000
    Dipole Moment (Debye)
         X       1.3338      Y       5.9002      Z      -3.3862
       Tot       6.9324
    Quadrupole Moments (Debye-Ang)
        XX     -44.0299     XY      25.8325     YY     -66.6134
        XZ     -13.2040     YZ      -4.3659     ZZ     -60.7244
    Octopole Moments (Debye-Ang^2)
       XXX    -508.2650    XXY     144.4296    XYY    -239.4334
       YYY     138.5647    XXZ     -73.4218    XYZ     -16.7825
       YYZ      16.4296    XZZ    -240.8166    YZZ      31.2640
       ZZZ     -27.2751
    Hexadecapole Moments (Debye-Ang^3)
      XXXX   -4202.3984   XXXY     748.9021   XXYY   -1078.9210
      XYYY     427.2530   YYYY    -714.9353   XXXZ    -522.4985
      XXYZ    -111.6036   XYYZ      10.5648   YYYZ    -158.8487
      XXZZ   -1120.4558   XYZZ      76.5731   YYZZ    -214.9264
      XZZZ    -196.7789   YZZZ    -132.6529   ZZZZ    -479.3731
 -----------------------------------------------------------------
 Calculating analytic gradient of the SCF energy
 Gradient of CDS energy
            1           2           3           4           5           6
    1  -0.0026278   0.0019418  -0.0017954   0.0018596  -0.0001736   0.0005427
    2  -0.0012940  -0.0015161  -0.0007549   0.0007296  -0.0000235   0.0001230
    3  -0.0000065   0.0002561   0.0033338  -0.0035825  -0.0003044   0.0019727
            7           8           9          10          11          12
    1  -0.0000257   0.0002510  -0.0004089  -0.0002013   0.0000260   0.0000114
    2   0.0005206  -0.0000513   0.0001996  -0.0000426  -0.0000983   0.0000800
    3  -0.0011142  -0.0000096  -0.0002452  -0.0000541  -0.0001309  -0.0001300
           13          14          15          16          17          18
    1   0.0009088  -0.0002511  -0.0001058  -0.0002782  -0.0001552   0.0004816
    2   0.0028252  -0.0003715  -0.0000481  -0.0000347  -0.0001201  -0.0001229
    3  -0.0003175   0.0002142  -0.0001207   0.0001006   0.0003300  -0.0001918
 Gradient of SCF Energy
            1           2           3           4           5           6
    1  -0.0028714   0.0030895   0.0030239  -0.0030539   0.0003370  -0.0091116
    2   0.0017948   0.0014878   0.0025126  -0.0023448  -0.0118825  -0.0096412
    3   0.0048657   0.0146582  -0.0011655  -0.0005944   0.0182612  -0.0050372
            7           8           9          10          11          12
    1   0.0027805   0.0007486  -0.0048134  -0.0056983   0.0081698   0.0073823
    2  -0.0040059   0.0042593  -0.0007081   0.0078401   0.0030497   0.0128948
    3   0.0074561  -0.0060103  -0.0130601  -0.0009169  -0.0139951  -0.0047961
           13          14          15          16          17          18
    1   0.0032702  -0.0023916  -0.0020875  -0.0116241   0.0003666   0.0124834
    2  -0.0060674   0.0007203  -0.0029502  -0.0146058   0.0023409   0.0153057
    3  -0.0006332  -0.0002032   0.0035208  -0.0061433   0.0006329   0.0031605
 Max gradient component =       1.826E-02
 RMS gradient           =       7.176E-03
 Computing fast CPCM-SWIG gradient
 Updating gradient with PCM contributions...
 -- total gradient after adding PCM contribution --
---------------------------------------------------
  Atom         X              Y              Z     
---------------------------------------------------
   1       0.000028       0.001144      -0.000031
   2       0.000222      -0.000260       0.000007
   3      -0.000136      -0.000073      -0.000043
   4       0.000017      -0.000037      -0.000047
   5      -0.000006      -0.000027      -0.000040
   6      -0.000017       0.000026      -0.000013
   7       0.000026      -0.000034       0.000033
   8      -0.000021      -0.000064       0.000004
   9      -0.000026       0.000024       0.000002
  10       0.000003       0.000009       0.000022
  11      -0.000009       0.000009       0.000009
  12       0.000025      -0.000021       0.000009
  13      -0.000166      -0.000586       0.000076
  14      -0.000041      -0.000025       0.000013
  15       0.000099      -0.000073       0.000012
  16      -0.000008      -0.000016      -0.000033
  17       0.000020      -0.000001       0.000025
  18      -0.000009       0.000004      -0.000007
---------------------------------------------------
 Number of fixed atoms: 0
 Gradient time:  CPU 347.39 s  wall 29.04 s
 ----------------------------------------------------------------
             Standard Nuclear Orientation (Angstroms)
    I     Atom           X                Y                Z
 ----------------------------------------------------------------
    1      C       2.5361058953    -1.1485803322    -1.0662123674
    2      O       1.4253313362    -0.2844916275    -1.0660045915
    3      C       3.4624552200    -0.6856090019     0.0667181103
    4      O       2.8088280165    -0.9389126783     1.2708508176
    5      C       3.8947726596     0.7619327028    -0.0936823989
    6      C       4.7570987632     1.2753434574     1.0144899431
    7      O       4.8558726516     0.7454494453     2.1042928906
    8      H       3.0653133528    -1.1010574819    -2.0156224649
    9      H       0.9375509682    -0.4270607252    -1.8851207155
   10      H       3.0131058850     1.4072196480    -0.1228075015
   11      H       4.4097833499     0.9134898896    -1.0421221022
   12      H       5.3014857602     2.2067703463     0.8053098935
   13      O       2.1555741998    -2.4887138467    -0.8921440399
   14      H       1.7902288268    -2.5846491397    -0.0022523462
   15      O       4.6077080137    -1.5643849674     0.1226091115
   16      O       5.3711690753    -1.4323438833    -1.0744107584
   17      H       3.3429888730    -0.5396131990     1.9764485467
   18      H       6.0990652527    -0.8569588065    -0.7955779268
 ----------------------------------------------------------------
 Nuclear Repulsion Energy =         616.48215066 hartrees
 There are       40 alpha and       40 beta electrons
 Discretize the solute cavity surface with Lebedev spheres
	Using 110 Lebedev grid points for each H atom
	Using 194 Lebedev grid points for other atoms
	Atomic van der Waals radii will be scaled by 1.20
 Remove points where switching function is < 1.0e-08
 Keep 1416 surface tesserae and discard 1404 interior tesserae
 Molecular Surface Area = 157.697 Angst**2
 Requested basis set is 6-311++G(2df,2p)
 There are 128 shells and 420 basis functions
 A cutoff of  1.0D-12 yielded   7419 shell pairs
 There are     80025 function pairs (     99836 Cartesian)
 Smallest overlap matrix eigenvalue = 6.49E-06
 Guess MOs from SCF MO coefficient file

 -----------------------------------------------------------------------
  General SCF calculation program by
  Eric Jon Sundstrom, Paul Horn, Yuezhi Mao, Dmitri Zuev, Alec White,
  David Stuck, Shaama M.S., Shane Yost, Joonho Lee, David Small,
  Daniel Levine, Susi Lehtola, Hugh Burton, Evgeny Epifanovsky,
  Bang C. Huynh
 -----------------------------------------------------------------------
 Exchange:     0.1500 Hartree-Fock + 1.0000 wB97M-V + LR-HF
 Correlation:  1.0000 wB97M-V
 Using SG-2 standard quadrature grid
 Nonlocal Correlation:  VV10 with C = 0.0100 and b = 6.00 and scale = 1.00000
 Grid used for NLC:  SG-1 standard quadrature
 
 Citation of the SMD model:
 Marenich, A.V.; Cramer, C.J.; Truhlar, D.G.
 J. Phys. Chem. B 2009, 113, 6378-6396.
 iSolventCode=           1
 Solvent: water                                                           
 
 vradii
            1           2           3           4           5           6
    1   1.8500000   1.5200000   1.8500000   1.5200000   1.8500000   1.8500000
            7           8           9          10          11          12
    1   1.5200000   1.2000000   1.2000000   1.2000000   1.2000000   1.2000000
           13          14          15          16          17          18
    1   1.5200000   1.2000000   1.5200000   1.5200000   1.2000000   1.2000000
 -------------------------------------------------------
 OpenMP BLAS3 based DFT computing Module                
 Release: version 1.0, May 2013, Q-Chem Inc. Pittsburgh 
 -------------------------------------------------------
 A restricted SCF calculation will be
 performed using Roothaan-Hall, DIIS, GDM
 SCF converges when RMS gradient is below 1.0e-07
 ---------------------------------------
  Cycle       Energy         DIIS error
 ---------------------------------------
    1    -608.4933121116      5.22e-04  Roothaan Step
 ---------------------------------------
  Cycle       Energy         DIIS error
 ---------------------------------------
    1    -608.5341020409      6.19e-04  
    2    -608.5406520380      6.04e-04  Done DIIS. Switching to GDM
 ---------------------------------------
  Cycle       Energy        RMS Gradient
 ---------------------------------------
    1    -608.5406520380      2.07e-02   Normal BFGS step
    2    -608.5385715736      3.16e-02  Line search: overstep
    3    -608.5459061406      1.37e-03   Normal BFGS step
    4    -608.5461899716      6.01e-04   Normal BFGS step
    5    -608.5462376839      7.67e-04   Normal BFGS step
    6    -608.5462460925      9.66e-05   Normal BFGS step
    7    -608.5462467012      4.89e-05   Normal BFGS step
    8    -608.5462469319      1.88e-05   Normal BFGS step
    9    -608.5462469396      8.39e-06   Normal BFGS step
   10    -608.5462469445      3.85e-06   Normal BFGS step
   11    -608.5462469449      1.95e-06   Normal BFGS step
   12    -608.5462469450      1.10e-06   Normal BFGS step
   13    -608.5462469451      5.98e-07   Normal BFGS step
   14    -608.5462469450      2.69e-07   Normal BFGS step
   15    -608.5462469451      5.86e-08  Convergence criterion met
 ---------------------------------------
 SCF time:   CPU 1845.83s  wall 129.00s 
(3)  G-ENP(liq) elect-nuc-pol free energy of system     -608.546246945 a.u.
(4)  G-CDS(liq) cavity-dispersion-solvent structure 
     free energy                                                4.4363 kcal/mol
(6)  G-S(liq) free energy of system                     -608.539177228 a.u.
 SCF   energy in the final basis set =     -608.5391772282
 Total energy in the final basis set =     -608.5391772282
 
 --------------------------------------------------------------
 
                    Orbital Energies (a.u.)
 --------------------------------------------------------------
 
 Alpha MOs
 -- Occupied --
-19.4047 -19.3988 -19.3569 -19.3520 -19.3486 -19.3474 -10.4678 -10.4494
-10.4490 -10.3535  -1.2799  -1.2131  -1.2006  -1.1797  -1.1382  -1.0391
 -0.9132  -0.8383  -0.7457  -0.7147  -0.6926  -0.6541  -0.6377  -0.6193
 -0.5950  -0.5828  -0.5737  -0.5667  -0.5506  -0.5377  -0.5286  -0.4845
 -0.4769  -0.4596  -0.4453  -0.4339  -0.4142  -0.4111  -0.3981  -0.3712
 -- Virtual --
  0.0253   0.0364   0.0416   0.0424   0.0482   0.0633   0.0681   0.0703
  0.0774   0.0952   0.1078   0.1167   0.1219   0.1342   0.1359   0.1418
  0.1505   0.1575   0.1619   0.1641   0.1732   0.1813   0.1879   0.1996
  0.2012   0.2096   0.2165   0.2335   0.2382   0.2506   0.2602   0.2728
  0.2764   0.2782   0.2843   0.2887   0.2984   0.3047   0.3100   0.3248
  0.3253   0.3307   0.3388   0.3439   0.3481   0.3556   0.3643   0.3662
  0.3769   0.3796   0.3887   0.3908   0.3960   0.4090   0.4131   0.4227
  0.4270   0.4372   0.4429   0.4544   0.4661   0.4749   0.4839   0.4942
  0.5163   0.5333   0.5750   0.5824   0.5845   0.6050   0.6185   0.6232
  0.6348   0.6496   0.6505   0.6717   0.6766   0.6810   0.6975   0.7148
  0.7249   0.7272   0.7543   0.7595   0.7789   0.7837   0.7972   0.8062
  0.8358   0.8478   0.8714   0.8789   0.8900   0.9346   0.9498   0.9512
  0.9722   0.9871   1.0037   1.0477   1.0531   1.0743   1.0757   1.0978
  1.1147   1.1244   1.1279   1.1427   1.1529   1.1618   1.1727   1.1832
  1.1865   1.1987   1.2059   1.2125   1.2250   1.2473   1.2484   1.2571
  1.2657   1.2805   1.2993   1.3052   1.3185   1.3267   1.3406   1.3523
  1.3697   1.3834   1.3909   1.4060   1.4203   1.4383   1.4650   1.4661
  1.4717   1.4993   1.5110   1.5200   1.5419   1.5544   1.5590   1.5886
  1.5947   1.6195   1.6290   1.6686   1.6747   1.6860   1.6980   1.7152
  1.7425   1.7692   1.7892   1.8034   1.8245   1.8570   1.8984   1.9136
  1.9358   1.9643   1.9735   1.9987   2.0102   2.0458   2.0648   2.0792
  2.1116   2.1366   2.2118   2.2281   2.2559   2.2810   2.2998   2.3372
  2.3644   2.3843   2.4016   2.4539   2.4702   2.4829   2.4898   2.5209
  2.5456   2.5685   2.6010   2.6205   2.6532   2.6959   2.7682   2.7960
  2.8153   2.8414   2.8530   2.8695   2.8912   2.9100   2.9317   2.9743
  3.0042   3.0503   3.0652   3.0988   3.1208   3.1669   3.1873   3.2145
  3.2445   3.2770   3.2980   3.3100   3.3463   3.3577   3.3744   3.3997
  3.4290   3.4372   3.4589   3.4668   3.5105   3.5527   3.5909   3.6006
  3.6182   3.6271   3.6459   3.6717   3.6882   3.7114   3.7411   3.7485
  3.7680   3.7804   3.8077   3.8380   3.8428   3.8446   3.8622   3.8783
  3.9113   3.9281   3.9353   3.9473   3.9766   4.0098   4.0266   4.0453
  4.0646   4.0990   4.1268   4.1429   4.1706   4.2113   4.2254   4.2518
  4.2588   4.2670   4.3007   4.3219   4.3570   4.3688   4.4049   4.4208
  4.4338   4.4457   4.4638   4.5444   4.5680   4.5960   4.6086   4.6802
  4.7170   4.7388   4.7562   4.8173   4.8566   4.8804   5.0112   5.0489
  5.0830   5.1643   5.2002   5.2140   5.2174   5.2380   5.2453   5.2524
  5.2793   5.2895   5.3000   5.3185   5.3346   5.3499   5.3646   5.3802
  5.3896   5.4129   5.4231   5.4449   5.4664   5.4942   5.5061   5.5392
  5.5500   5.5594   5.5782   5.5900   5.6080   5.6221   5.6411   5.6542
  5.6682   5.6839   5.7124   5.7754   5.7837   5.7879   5.8198   5.8731
  5.9179   5.9742   6.0331   6.0477   6.0948   6.1396   6.1617   6.2538
  6.3560   6.4975   6.5888   6.7138   6.7553   6.8221   6.8646   6.9842
  7.0199   7.0422   7.0631   7.0837   7.1000   7.1402   7.1490   7.1909
  7.2523   7.2677   7.2774   7.3095   7.3195   7.3297   7.3475   7.3856
  7.4122   7.4249   7.4667   7.5006   7.5066   7.5583   7.5865   7.6096
[...]
 C          0.026  0.072  0.130    0.120  0.053  0.032    0.098 -0.033  0.010
 C         -0.055 -0.145 -0.097   -0.163 -0.088 -0.046   -0.094  0.043  0.020
 O         -0.018  0.035 -0.037    0.019  0.016 -0.032    0.018 -0.009 -0.025
 H          0.039 -0.012  0.014   -0.142 -0.055 -0.140   -0.006 -0.006  0.042
 H         -0.029  0.034  0.017   -0.077  0.060  0.010    0.089 -0.085 -0.028
 H          0.407  0.616  0.231   -0.037 -0.155  0.109   -0.119 -0.321  0.074
 H          0.174  0.085  0.214    0.281  0.532  0.197    0.124  0.356  0.093
 H         -0.424  0.053 -0.172    0.103 -0.308 -0.323    0.311 -0.246 -0.200
 O         -0.007 -0.011 -0.000   -0.012 -0.046 -0.004    0.002  0.019  0.001
 H          0.002 -0.016  0.003   -0.005  0.051  0.011   -0.016 -0.107 -0.022
 O          0.053 -0.096  0.058   -0.036  0.055 -0.070   -0.294  0.004  0.394
 O          0.006  0.012 -0.022   -0.014 -0.013  0.035    0.218  0.036 -0.362
 H          0.023 -0.005 -0.032   -0.254 -0.104  0.296    0.094  0.062 -0.113
 H          0.006  0.017 -0.036   -0.026  0.011  0.021   -0.006  0.124  0.076
 TransDip  -0.247  0.105 -0.016    0.067 -0.095 -0.116   -0.042 -0.012  0.001

 Mode:                25                     26                     27
 Frequency:      1055.58                1104.14                1172.77
 Force Cnst:      1.5199                 1.9396                 1.5104
 Red. Mass:       2.3151                 2.7003                 1.8639
 IR Active:          YES                    YES                    YES
 IR Intens:      104.432                191.671                120.427
 Raman Active:       YES                    YES                    YES
               X      Y      Z        X      Y      Z        X      Y      Z
 C          0.028 -0.003 -0.077    0.018  0.004  0.011    0.126  0.003 -0.006
 O         -0.027  0.012 -0.011   -0.025  0.026  0.001   -0.098  0.076  0.012
 C          0.109  0.207  0.146    0.209 -0.154 -0.054   -0.022 -0.100  0.041
 O          0.062  0.022 -0.054   -0.038  0.008  0.050    0.015  0.011 -0.037
 C         -0.052 -0.043 -0.004   -0.139  0.080  0.032    0.001  0.014 -0.019
 C          0.038 -0.038 -0.007    0.146 -0.085 -0.055   -0.008  0.011  0.003
 O         -0.006 -0.001  0.024   -0.033  0.020  0.013    0.003 -0.000 -0.000
 H         -0.004 -0.053 -0.097   -0.264 -0.007 -0.146    0.541  0.371  0.245
 H         -0.223  0.219  0.072    0.205 -0.216 -0.099   -0.020 -0.015 -0.025
 H         -0.141 -0.183 -0.113    0.076  0.339 -0.223    0.075  0.124  0.057
 H         -0.247 -0.512 -0.181    0.158 -0.164  0.140    0.053  0.105  0.023
 H         -0.165  0.099  0.091   -0.474  0.350  0.251    0.046 -0.018  0.006
 O         -0.024 -0.078 -0.006    0.004  0.001 -0.001   -0.029 -0.130 -0.005
 H          0.014  0.127  0.037   -0.019 -0.006 -0.012    0.110  0.602  0.149
 O         -0.048 -0.019  0.029   -0.085  0.039  0.023   -0.020  0.024 -0.006
 O          0.023  0.003 -0.037    0.022 -0.000 -0.037    0.005 -0.003 -0.006
 H         -0.338 -0.217  0.355    0.020  0.017  0.001    0.029  0.026 -0.052
 H         -0.017  0.034  0.006   -0.048  0.037  0.081   -0.010 -0.001  0.031
 TransDip  -0.126  0.160  0.256    0.381 -0.192 -0.120    0.313  0.139  0.076

 Mode:                28                     29                     30
 Frequency:      1206.82                1231.37                1263.34
 Force Cnst:      1.0861                 1.3211                 2.2685
 Red. Mass:       1.2657                 1.4788                 2.4124
 IR Active:          YES                    YES                    YES
 IR Intens:       78.853                 57.310                241.178
 Raman Active:       YES                    YES                    YES
               X      Y      Z        X      Y      Z        X      Y      Z
 C          0.025  0.046 -0.024   -0.021 -0.031 -0.003    0.222 -0.109 -0.015
 O          0.004  0.035  0.034    0.001 -0.010 -0.011   -0.150  0.093  0.025
 C         -0.014  0.068 -0.024    0.061 -0.106  0.064    0.033  0.080 -0.062
 O         -0.011 -0.010  0.022    0.022  0.025 -0.031   -0.051 -0.031  0.041
 C          0.017 -0.021  0.002   -0.004 -0.003 -0.030    0.013 -0.009  0.017
 C         -0.039  0.021  0.016   -0.091  0.056  0.031   -0.022  0.006  0.005
 O          0.008 -0.006  0.002    0.019 -0.013  0.006    0.006 -0.003  0.005
 H         -0.405  0.153 -0.254   -0.090 -0.102 -0.046    0.218 -0.601 -0.047
 H          0.533 -0.510 -0.197   -0.087  0.083  0.027   -0.028  0.023 -0.044
 H          0.072  0.065  0.075    0.399  0.581  0.271    0.027  0.009  0.019
 H         -0.159 -0.181 -0.115   -0.262 -0.311 -0.218   -0.129 -0.183 -0.086
 H          0.093 -0.080 -0.076    0.266 -0.175 -0.073    0.016 -0.041 -0.079
 O         -0.016 -0.068 -0.003    0.015  0.045 -0.001   -0.005  0.045  0.010
 H          0.008  0.167  0.038   -0.007 -0.064 -0.025   -0.080 -0.448 -0.087
 O          0.012 -0.017  0.000   -0.027  0.023 -0.007    0.001 -0.013 -0.002
 O         -0.002  0.002  0.004    0.005 -0.004 -0.009   -0.005  0.002  0.003
 H          0.065  0.031 -0.051   -0.097 -0.060  0.097    0.285  0.155 -0.291
 H          0.007 -0.001 -0.018   -0.035  0.007  0.076    0.004  0.003 -0.023
 TransDip   0.211  0.141 -0.128   -0.008 -0.228  0.081    0.392 -0.256 -0.168

 Mode:                31                     32                     33
 Frequency:      1293.86                1336.24                1356.97
 Force Cnst:      2.2096                 2.7711                 2.0504
 Red. Mass:       2.2402                 2.6341                 1.8899
 IR Active:          YES                    YES                    YES
 IR Intens:      321.756                 99.259                 14.687
 Raman Active:       YES                    YES                    YES
               X      Y      Z        X      Y      Z        X      Y      Z
 C          0.013  0.245 -0.011    0.099  0.104 -0.123   -0.042 -0.088  0.050
 O          0.045 -0.064 -0.031   -0.020  0.012  0.021    0.011 -0.003 -0.015
 C          0.082  0.010 -0.045   -0.116 -0.123  0.236    0.003 -0.038  0.113
 O         -0.059 -0.031  0.025    0.047  0.024 -0.080   -0.027 -0.016 -0.039
 C          0.011  0.023  0.013    0.017  0.044 -0.038    0.100  0.146  0.056
 C         -0.034 -0.007 -0.006    0.003 -0.032 -0.029   -0.055 -0.073 -0.049
 O          0.010 -0.000  0.012    0.005  0.016 -0.002    0.016  0.019  0.009
 H          0.157  0.271  0.064   -0.200 -0.128 -0.307   -0.227 -0.006 -0.038
 H         -0.299  0.271  0.126    0.151 -0.145 -0.059   -0.055  0.052  0.017
 H          0.046  0.074  0.008   -0.129 -0.152  0.014   -0.215 -0.296 -0.113
 H         -0.176 -0.262 -0.134    0.202  0.239  0.095   -0.195 -0.332 -0.178
 H          0.016 -0.049 -0.027    0.009  0.025  0.244   -0.044 -0.052  0.153
 O         -0.051 -0.113  0.047   -0.022 -0.016  0.057    0.021  0.030 -0.033
 H         -0.095 -0.393 -0.008   -0.136 -0.649 -0.076    0.082  0.365  0.036
 O          0.002 -0.005  0.007   -0.012  0.032 -0.023   -0.010  0.016 -0.013
 O         -0.002  0.002  0.001    0.010 -0.009 -0.006    0.004 -0.004 -0.001
 H          0.360  0.203 -0.392   -0.005 -0.028 -0.006    0.368  0.215 -0.430
 H          0.005  0.006 -0.023   -0.029 -0.004  0.079   -0.010  0.006  0.018
 TransDip   0.076  0.492 -0.287   -0.151 -0.206  0.191   -0.027 -0.085 -0.084

 Mode:                34                     35                     36
 Frequency:      1392.58                1410.89                1417.59
 Force Cnst:      1.3378                 1.6001                 1.3874
 Red. Mass:       1.1708                 1.3643                 1.1718
 IR Active:          YES                    YES                    YES
 IR Intens:       88.840                 84.566                105.385
 Raman Active:       YES                    YES                    YES
               X      Y      Z        X      Y      Z        X      Y      Z
 C          0.009 -0.012  0.027    0.050 -0.024  0.054   -0.028  0.013 -0.022
 O          0.003 -0.004 -0.012    0.001 -0.007 -0.029    0.001  0.003  0.014
 C          0.019  0.035  0.025    0.010  0.043  0.074   -0.010  0.005 -0.051
 O         -0.015 -0.012 -0.003   -0.018 -0.015 -0.015    0.004  0.003  0.013
 C         -0.055 -0.016 -0.080   -0.036 -0.071 -0.034    0.014  0.035  0.007
 C          0.004  0.013  0.016    0.044  0.044  0.014   -0.017 -0.020 -0.002
 O          0.001  0.008 -0.017   -0.009 -0.030  0.030    0.003  0.013 -0.016
 H         -0.141  0.017 -0.051   -0.372  0.128 -0.162    0.193 -0.062  0.091
 H         -0.070  0.066  0.022   -0.175  0.159  0.054    0.082 -0.074 -0.024
 H         -0.094 -0.052  0.643    0.098  0.115 -0.125   -0.088 -0.105  0.172
 H          0.565 -0.264  0.233   -0.002  0.354  0.047    0.097 -0.250  0.010
 H          0.066  0.002  0.105   -0.123  0.060 -0.388    0.041 -0.025  0.140
 O          0.001 -0.001 -0.010   -0.003 -0.003 -0.011    0.001 -0.000  0.004
 H          0.018  0.094  0.010    0.014  0.110  0.011   -0.005 -0.040 -0.004
 O         -0.008 -0.006 -0.001    0.023  0.012 -0.009    0.051  0.016 -0.001
 O          0.003  0.004  0.007   -0.007 -0.018 -0.027   -0.018 -0.025 -0.041
 H          0.124  0.069 -0.141    0.192  0.099 -0.218   -0.076 -0.041  0.087
 H          0.058  0.004 -0.129   -0.244  0.025  0.477   -0.405  0.048  0.775
 TransDip   0.220  0.046  0.202    0.035  0.263  0.127   -0.213 -0.129  0.215

 Mode:                37                     38                     39
 Frequency:      1431.10                1435.17                1493.10
 Force Cnst:      1.5188                 1.5998                 2.7607
 Red. Mass:       1.2586                 1.3183                 2.1018
 IR Active:          YES                    YES                    YES
 IR Intens:        5.688                139.261                 28.909
 Raman Active:       YES                    YES                    YES
               X      Y      Z        X      Y      Z        X      Y      Z
 C          0.017 -0.002  0.030    0.064 -0.123 -0.008    0.159  0.090  0.138
 O         -0.001 -0.003 -0.010   -0.008  0.012 -0.021   -0.015 -0.014 -0.040
 C          0.016  0.049 -0.001   -0.012  0.003 -0.045   -0.108 -0.079 -0.120
 O         -0.011 -0.009  0.004    0.006  0.005  0.011    0.035  0.023  0.017
 C         -0.027 -0.088  0.016    0.017  0.022  0.018    0.036  0.056  0.028
 C         -0.036 -0.036 -0.019   -0.011 -0.012 -0.000   -0.007 -0.013  0.011
 O          0.016  0.050 -0.045    0.001  0.008 -0.011   -0.002  0.007 -0.017
 H         -0.114 -0.021 -0.039   -0.140  0.873 -0.071   -0.533 -0.270 -0.244
 H         -0.066  0.062  0.020   -0.094  0.070  0.024   -0.304  0.275  0.093
 H          0.151  0.147 -0.143   -0.033 -0.050  0.022   -0.081 -0.105  0.021
 H         -0.079  0.283  0.047   -0.022 -0.118 -0.024   -0.031 -0.182 -0.044
 H          0.313 -0.070  0.822    0.027 -0.018  0.084   -0.003 -0.013  0.014
 O         -0.002 -0.007 -0.010   -0.013  0.035  0.040   -0.011 -0.041 -0.025
 H          0.018  0.089  0.011   -0.098 -0.336 -0.043    0.036  0.208  0.027
 O          0.005 -0.004  0.001    0.000 -0.002  0.001    0.010 -0.002  0.009
 O         -0.002 -0.002 -0.004   -0.001  0.001  0.001   -0.001  0.002  0.000
 H          0.063  0.038 -0.067   -0.087 -0.049  0.102   -0.282 -0.156  0.327
 H         -0.033  0.003  0.064   -0.003  0.001  0.003    0.006 -0.004 -0.007
 TransDip  -0.007  0.073  0.022   -0.020 -0.377  0.026   -0.101  0.058  0.127

 Mode:                40                     41                     42
 Frequency:      1755.65                3019.11                3078.98
 Force Cnst:     16.0599                 5.8373                 5.9509
 Red. Mass:       8.8434                 1.0869                 1.0654
 IR Active:          YES                    YES                    YES
 IR Intens:      384.125                 85.340                 12.378
 Raman Active:       YES                    YES                    YES
               X      Y      Z        X      Y      Z        X      Y      Z
 C         -0.013  0.001 -0.014    0.000 -0.000  0.000   -0.001  0.000  0.000
 O          0.003 -0.000  0.002   -0.000 -0.000 -0.000   -0.000 -0.000 -0.000
 C          0.016 -0.016  0.054    0.000  0.001 -0.000   -0.001 -0.001  0.000
 O         -0.004 -0.002 -0.009    0.000 -0.000  0.000    0.000 -0.000  0.000
 C         -0.007  0.016 -0.051    0.001  0.004 -0.003   -0.040  0.049 -0.035
 C          0.089 -0.245  0.614   -0.043 -0.072  0.013    0.002  0.006 -0.002
 O         -0.040  0.186 -0.394    0.000  0.000  0.001    0.000 -0.001  0.001
 H          0.016 -0.002  0.000   -0.000 -0.000  0.000    0.004  0.000 -0.006
 H          0.014 -0.008 -0.003   -0.000 -0.000 -0.000   -0.000 -0.001 -0.000
 H          0.016  0.014 -0.140    0.039 -0.030 -0.002    0.720 -0.511  0.024
 H         -0.195  0.016 -0.148   -0.038 -0.011  0.056   -0.226 -0.054  0.394
 H         -0.285 -0.208 -0.344    0.498  0.841 -0.176   -0.039 -0.060  0.009
 O          0.003  0.004  0.002   -0.000 -0.000 -0.000    0.000  0.000  0.000
 H         -0.001 -0.007 -0.002    0.000  0.000  0.000   -0.000 -0.000 -0.000
 O         -0.006  0.004 -0.004    0.000 -0.000  0.000    0.000 -0.000 -0.000
 O          0.001  0.000  0.000   -0.000 -0.000 -0.000    0.000 -0.000 -0.000
 H          0.096  0.058 -0.142    0.000  0.001 -0.007   -0.001 -0.001 -0.000
 H          0.011 -0.008 -0.012    0.000  0.001  0.000   -0.000  0.000 -0.000
 TransDip   0.147 -0.170  0.586   -0.134 -0.256  0.065    0.083  0.045  0.061

 Mode:                43                     44                     45
 Frequency:      3124.00                3128.52                3682.80
 Force Cnst:      6.3010                 6.2789                 8.5199
 Red. Mass:       1.0958                 1.0888                 1.0662
 IR Active:          YES                    YES                    YES
 IR Intens:        3.062                 23.719                365.088
 Raman Active:       YES                    YES                    YES
               X      Y      Z        X      Y      Z        X      Y      Z
 C         -0.010 -0.001  0.020    0.038  0.004 -0.073   -0.000  0.000  0.000
 O          0.000  0.000 -0.000    0.000  0.000  0.001   -0.000 -0.000 -0.000
 C          0.001 -0.001 -0.000    0.001 -0.000 -0.000   -0.000 -0.001 -0.002
 O         -0.000 -0.000  0.000    0.000  0.000  0.001   -0.033 -0.025 -0.047
 C          0.061 -0.011 -0.060    0.016 -0.003 -0.017   -0.000  0.000 -0.000
 C          0.003  0.003 -0.000    0.001  0.001 -0.000    0.000 -0.001  0.002
 O          0.000 -0.000 -0.000    0.000 -0.000 -0.000    0.000  0.000 -0.001
 H          0.124  0.012 -0.228   -0.457 -0.042  0.846    0.001  0.000  0.002
 H          0.000  0.002  0.001   -0.000 -0.005 -0.003    0.001  0.000  0.002
 H         -0.353  0.257 -0.029   -0.089  0.065 -0.007    0.000 -0.001 -0.000
 H         -0.399 -0.120  0.747   -0.109 -0.033  0.203   -0.002 -0.003  0.000
 H         -0.019 -0.030  0.006   -0.006 -0.009  0.001   -0.000  0.005 -0.004
 O          0.000 -0.000 -0.000   -0.001  0.000  0.002    0.000  0.000 -0.000
 H         -0.001  0.002  0.004    0.005 -0.006 -0.016   -0.003 -0.002  0.003
 O          0.000  0.000 -0.000   -0.000  0.000 -0.000   -0.000 -0.000  0.000
 O         -0.000 -0.001 -0.000    0.000 -0.000  0.000    0.001  0.001  0.000
 H         -0.000 -0.001  0.000   -0.001 -0.001  0.000    0.520  0.399  0.752
 H         -0.001  0.002  0.000    0.000 -0.000  0.001   -0.013 -0.010 -0.005
 TransDip  -0.050  0.024  0.002    0.108  0.022 -0.111    0.297  0.317  0.431

 Mode:                46                     47                     48
 Frequency:      3758.70                3780.25                3823.45
 Force Cnst:      8.8950                 8.9733                 9.1887
 Red. Mass:       1.0686                 1.0658                 1.0668
 IR Active:          YES                    YES                    YES
 IR Intens:      137.194                126.118                145.316
 Raman Active:       YES                    YES                    YES
               X      Y      Z        X      Y      Z        X      Y      Z
 C         -0.000 -0.000 -0.000    0.001  0.000 -0.002    0.000 -0.000 -0.001
 O         -0.000 -0.000 -0.000   -0.001 -0.001 -0.001   -0.033 -0.008 -0.053
 C         -0.001  0.001 -0.000   -0.000 -0.000  0.000    0.000 -0.000  0.000
 O         -0.000 -0.001 -0.001    0.000  0.000  0.000    0.000  0.000  0.000
 C         -0.000 -0.000  0.000   -0.000  0.000 -0.000    0.000  0.000  0.000
 C          0.000 -0.000  0.000    0.000 -0.000  0.000   -0.000 -0.000 -0.000
 O         -0.000  0.000 -0.000    0.000  0.000 -0.000    0.000 -0.000  0.000
 H         -0.000  0.000  0.000   -0.007 -0.002  0.014    0.002 -0.002  0.004
 H          0.001  0.000  0.002    0.013  0.004  0.020    0.512  0.137  0.845
 H          0.000 -0.000 -0.000    0.000 -0.000  0.000    0.000 -0.000 -0.000
 H          0.000  0.000 -0.001   -0.000  0.000  0.000   -0.000  0.000 -0.000
 H         -0.000 -0.000 -0.000   -0.000 -0.000 -0.000    0.000  0.000  0.000
 O         -0.000 -0.000  0.000    0.024  0.008 -0.057   -0.000 -0.001  0.001
 H          0.002  0.001 -0.006   -0.381 -0.118  0.914    0.009  0.003 -0.022
 O          0.001  0.000 -0.000    0.000  0.000 -0.000    0.000 -0.000  0.000
 O         -0.048 -0.038 -0.018   -0.000 -0.000 -0.000    0.000  0.000  0.000
 H          0.009  0.007  0.013   -0.002 -0.001 -0.003   -0.001 -0.001 -0.002
 H          0.745  0.593  0.299    0.005  0.004  0.002   -0.002 -0.001 -0.001
 TransDip   0.331  0.175  0.028   -0.121 -0.105  0.322    0.248 -0.015  0.296

 STANDARD THERMODYNAMIC QUANTITIES AT   298.15 K  AND     1.00 ATM

   This Molecule has  0 Imaginary Frequencies
   Zero point vibrational energy:       85.322 kcal/mol

   Atom    1 Element C  Has Mass   12.00000
   Atom    2 Element O  Has Mass   15.99491
   Atom    3 Element C  Has Mass   12.00000
   Atom    4 Element O  Has Mass   15.99491
   Atom    5 Element C  Has Mass   12.00000
   Atom    6 Element C  Has Mass   12.00000
   Atom    7 Element O  Has Mass   15.99491
   Atom    8 Element H  Has Mass    1.00783
   Atom    9 Element H  Has Mass    1.00783
   Atom   10 Element H  Has Mass    1.00783
   Atom   11 Element H  Has Mass    1.00783
   Atom   12 Element H  Has Mass    1.00783
   Atom   13 Element O  Has Mass   15.99491
   Atom   14 Element H  Has Mass    1.00783
   Atom   15 Element O  Has Mass   15.99491
   Atom   16 Element O  Has Mass   15.99491
   Atom   17 Element H  Has Mass    1.00783
   Atom   18 Element H  Has Mass    1.00783
   Molecular Mass:   152.032100 amu
   Principal axes and moments of inertia in amu*Bohr^2:
                             1           2           3
    Eigenvalues --      924.80042  1719.75518  2004.99110
          X               0.65201     0.74535    -0.13904
          Y               0.53217    -0.58049    -0.61629
          Z               0.54007    -0.32784     0.77514
   Rotational Symmetry Number is   1
   The Molecule is an Asymmetric Top
   Translational Enthalpy:        0.889 kcal/mol
   Rotational Enthalpy:           0.889 kcal/mol
   Vibrational Enthalpy:         90.703 kcal/mol
   gas constant (RT):             0.592 kcal/mol
   Translational Entropy:        40.967  cal/mol.K
   Rotational Entropy:           29.546  cal/mol.K
   Vibrational Entropy:          33.440  cal/mol.K

   Total Enthalpy:               93.073 kcal/mol
   Total Entropy:               103.952  cal/mol.K
 Total job time:  17350.69s(wall), 240501.95s(cpu) 
 Wed Jun 26 02:06:30 2024

        *************************************************************
        *                                                           *
        *  Thank you very much for using Q-Chem.  Have a nice day.  *
        *                                                           *
        *************************************************************


