
Running Job 1 of 1 Q_in.in
qchem Q_in.in_282452.0 /scratch/ari.fischer/qChem2186613.hpc-mn1/qchem282452/ 0
/usr/local/qchem-5.4.1/exe/qcprog.exe_s Q_in.in_282452.0 /scratch/ari.fischer/qChem2186613.hpc-mn1/qchem282452/
                  Welcome to Q-Chem
     A Quantum Leap Into The Future Of Chemistry


 Q-Chem 5.4, Q-Chem, Inc., Pleasanton, CA (2021)

 License issued to: Nanyang Technological University (site)

 E. Epifanovsky,  A. T. B. Gilbert,  Xintian Feng,  Joonho Lee,  Yuezhi Mao,  
 N. Mardirossian,  P. Pokhilko,  A. White,  M. Wormit,  M. P. Coons,  
 A. L. Dempwolff,  Zhengting Gan,  D. Hait,  P. R. Horn,  L. D. Jacobson,  
 I. Kaliman,  J. Kussmann,  A. W. Lange,  Ka Un Lao,  D. S. Levine,  Jie Liu,  
 S. C. McKenzie,  A. F. Morrison,  K. Nanda,  F. Plasser,  D. R. Rehn,  
 M. L. Vidal,  Zhi-Qiang You,  Ying Zhu,  B. Alam,  B. Albrecht,  
 A. Aldossary,  E. Alguire,  J. H. Andersen,  D. Barton,  K. Begam,  A. Behn,  
 Y. A. Bernard,  E. J. Berquist,  H. Burton,  A. Carreras,  K. Carter-Fenk,  
 R. Chakraborty,  A. D. Chien,  K. D. Closser,  V. Cofer-Shabica,  
 S. Dasgupta,  Jia Deng,  M. de Wergifosse,  M. Diedenhofen,  Hainam Do,  
 S. Ehlert,  Po-Tung Fang,  S. Fatehi,  Qingguo Feng,  T. Friedhoff,  
 J. Gayvert,  Qinghui Ge,  G. Gidofalvi,  M. Goldey,  J. Gomes,  
 C. Gonzalez-Espinoza,  S. Gulania,  A. Gunina,  M. W. D. Hanson-Heine,  
 P. H. P. Harbach,  A. W. Hauser,  M. F. Herbst,  M. Hernandez Vera,  
 M. Hodecker,  Z. C. Holden,  S. Houck,  Xunkun Huang,  Kerwin Hui,  
 B. C. Huynh,  M. Ivanov,  Hyunjun Ji,  Hanjie Jiang,  B. Kaduk,  S. Kaehler,  
 K. Khistyaev,  Jaehoon Kim,  P. Klunzinger,  Z. Koczor-Benda,  
 Joong Hoon Koh,  D. Kosenkov,  L. Koulias,  T. Kowalczyk,  C. M. Krauter,  
 K. Kue,  A. Kunitsa,  T. Kus,  A. Landau,  K. V. Lawler,  D. Lefrancois,  
 S. Lehtola,  Rain Li,  Yi-Pei Li,  Jiashu Liang,  M. Liebenthal,  
 Hung-Hsuan Lin,  You-Sheng Lin,  Fenglai Liu,  Kuan-Yu Liu,  
 M. Loipersberger,  A. Luenser,  A. Manjanath,  P. Manohar,  E. Mansoor,  
 S. F. Manzer,  Shan-Ping Mao,  A. V. Marenich,  T. Markovich,  S. Mason,  
 S. A. Maurer,  P. F. McLaughlin,  M. F. S. J. Menger,  J.-M. Mewes,  
 S. A. Mewes,  P. Morgante,  J. W. Mullinax,  K. J. Oosterbaan,  G. Paran,  
 Alexander C. Paul,  Suranjan K. Paul,  F. Pavosevic,  Zheng Pei,  S. Prager,  
 E. I. Proynov,  E. Ramos,  B. Rana,  A. E. Rask,  A. Rettig,  R. M. Richard,  
 F. Rob,  E. Rossomme,  T. Scheele,  M. Scheurer,  M. Schneider,  
 N. Sergueev,  S. M. Sharada,  W. Skomorowski,  D. W. Small,  C. J. Stein,  
 Yu-Chuan Su,  E. J. Sundstrom,  Zhen Tao,  J. Thirman,  T. Tsuchimochi,  
 N. M. Tubman,  S. P. Veccham,  O. Vydrov,  J. Wenzel,  J. Witte,  A. Yamada,  
 Kun Yao,  S. Yeganeh,  S. R. Yost,  A. Zech,  Igor Ying Zhang,  Xing Zhang,  
 Yu Zhang,  D. Zuev,  A. Aspuru-Guzik,  A. T. Bell,  N. A. Besley,  
 K. B. Bravaya,  B. R. Brooks,  D. Casanova,  Jeng-Da Chai,  S. Coriani,  
 C. J. Cramer,  A. E. DePrince, III,  R. A. DiStasio Jr.,  A. Dreuw,  
 B. D. Dunietz,  T. R. Furlani,  W. A. Goddard III,  S. Grimme,  
 S. Hammes-Schiffer,  T. Head-Gordon,  W. J. Hehre,  Chao-Ping Hsu,  
 T.-C. Jagau,  Yousung Jung,  A. Klamt,  Jing Kong,  D. S. Lambrecht,  
 WanZhen Liang,  N. J. Mayhall,  C. W. McCurdy,  J. B. Neaton,  
 C. Ochsenfeld,  J. A. Parkhill,  R. Peverati,  V. A. Rassolov,  Yihan Shao,  
 L. V. Slipchenko,  T. Stauch,  R. P. Steele,  J. E. Subotnik,  
 A. J. W. Thom,  A. Tkatchenko,  D. G. Truhlar,  T. Van Voorhis,  
 T. A. Wesolowski,  K. B. Whaley,  H. L. Woodcock III,  P. M. Zimmerman,  
 S. Faraji,  P. M. W. Gill,  M. Head-Gordon,  J. M. Herbert,  A. I. Krylov

 Additional authors for Version 5.4.1: 
 S. Kotaru,  Shaozhi Li,  Xiangyuan Li,  F. Matz,  A. Molle,  Haisheng Ren,  
 Yingli Su,  Hung-Yi Tsai,  C. Utku,  Fang Wang

 Contributors to earlier versions of Q-Chem not listed above: 
 R. D. Adamson,  B. Austin,  R. Baer,  J. Baker,  G. J. O. Beran,  
 K. Brandhorst,  S. T. Brown,  E. F. C. Byrd,  A. K. Chakraborty,  
 G. K. L. Chan,  Chun-Min Chang,  Yunqing Chen,  C.-L. Cheng,  
 Siu Hung Chien,  D. M. Chipman,  D. L. Crittenden,  H. Dachsel,  
 R. J. Doerksen,  A. D. Dutoi,  R. G. Edgar,  J. Fosso-Tande,  
 L. Fusti-Molnar,  D. Ghosh,  A. Ghysels,  A. Golubeva-Zadorozhnaya,  
 J. Gonthier,  M. S. Gordon,  S. R. Gwaltney,  G. Hawkins,  J. E. Herr,  
 A. Heyden,  S. Hirata,  E. G. Hohenstein,  G. Kedziora,  F. J. Keil,  
 C. Kelley,  Jihan Kim,  R. A. King,  R. Z. Khaliullin,  P. P. Korambath,  
 W. Kurlancheek,  A. Laurent,  A. M. Lee,  M. S. Lee,  S. V. Levchenko,  
 Ching Yeh Lin,  D. Liotard,  E. Livshits,  R. C. Lochan,  I. Lotan,  
 L. A. Martinez-Martinez,  P. E. Maslen,  N. Nair,  D. P. O'Neill,  
 D. Neuhauser,  E. Neuscamman,  C. M. Oana,  R. Olivares-Amaya,  R. Olson,  
 T. M. Perrine,  B. Peters,  P. A. Pieniazek,  A. Prociuk,  Y. M. Rhee,  
 J. Ritchie,  M. A. Rohrdanz,  E. Rosta,  N. J. Russ,  H. F. Schaefer III,  
 M. W. Schmidt,  N. E. Schultz,  S. Sharma,  N. Shenvi,  C. D. Sherrill,  
 A. C. Simmonett,  A. Sodt,  T. Stein,  D. Stuck,  K. S. Thanthiriwatte,  
 V. Vanovschi,  L. Vogt,  Tao Wang,  A. Warshel,  M. A. Watson,  
 C. F. Williams,  Q. Wu,  X. Xu,  Jun Yang,  W. Zhang,  Yan Zhao

 Please cite Q-Chem as follows:
 Y. Shao et al., Mol. Phys. 113, 184-215 (2015)
 DOI: 10.1080/00268976.2014.952696

 Q-Chem 5.4.1 for Intel X86 EM64T Linux

 Parts of Q-Chem use Armadillo 9.800.1 (Horizon Scraper).
 http://arma.sourceforge.net/

 Q-Chem begins on Mon Jun 24 22:52:58 2024  

 Host: 
0

     Scratch files written to /scratch/ari.fischer/qChem2186613.hpc-mn1/qchem282452//
 Aug1521 |scratch|qcdevops|jenkins|workspace|build_RNUM 8249   
 Processing $rem in /usr/local/qchem-5.4.1/config/preferences:
 Processing $rem in /home/ari.fischer/.qchemrc:
 Symmetry turned off for PCM/SM12/SMD calculation

 Checking the input file for inconsistencies... 	...done.

--------------------------------------------------------------
User input:
--------------------------------------------------------------
$molecule
0 1
C         2.5320053208   -1.1512963477   -1.0802929307
O         1.4312918067   -0.2724169069   -1.0828305950
C         3.4613848868   -0.6796391450    0.0462025997
O         2.7973859922   -0.9300275476    1.2492103785
C         3.8967649599    0.7734475654   -0.1030527529
C         4.7556943587    1.2558779629    1.0300788065
O         4.7876526869    0.7263186994    2.1312533242
H         3.0589922174   -1.1341598869   -2.0377887892
H         0.9026283563   -0.4855557782   -1.8696363551
H         3.0090703788    1.4184042378   -0.1280198896
H         4.4220161202    0.9325674964   -1.0493498407
H         5.3632363212    2.1554976169    0.8356103739
O         2.1445857452   -2.4861734980   -0.8681364482
H         1.8259792326   -2.5334786326    0.0518806779
O         4.6077090769   -1.5563261516    0.1110440709
O         5.3751513285   -1.4058584584   -1.0925878931
H         3.3603109445   -0.5375692703    1.9493992489
H         6.1025783663   -0.8307821557   -0.7882218860
$end

$rem
BASIS = 6-311++G(2df,2p)
GUI = 2
JOB_TYPE = Optimization
METHOD = wB97M-V
SCF_ALGORITHM = DIIS_GDM
MAX_SCF_CYCLES = 400
GEOM_OPT_MAX_CYCLES = 150
SCF_CONVERGENCE = 7
THRESH = 12
Solvent_method = SMD
$end
--------------------------------------------------------------
 ----------------------------------------------------------------
             Standard Nuclear Orientation (Angstroms)
    I     Atom           X                Y                Z
 ----------------------------------------------------------------
    1      C       2.5320053208    -1.1512963477    -1.0802929307
    2      O       1.4312918067    -0.2724169069    -1.0828305950
    3      C       3.4613848868    -0.6796391450     0.0462025997
    4      O       2.7973859922    -0.9300275476     1.2492103785
    5      C       3.8967649599     0.7734475654    -0.1030527529
    6      C       4.7556943587     1.2558779629     1.0300788065
    7      O       4.7876526869     0.7263186994     2.1312533242
    8      H       3.0589922174    -1.1341598869    -2.0377887892
    9      H       0.9026283563    -0.4855557782    -1.8696363551
   10      H       3.0090703788     1.4184042378    -0.1280198896
   11      H       4.4220161202     0.9325674964    -1.0493498407
   12      H       5.3632363212     2.1554976169     0.8356103739
   13      O       2.1445857452    -2.4861734980    -0.8681364482
   14      H       1.8259792326    -2.5334786326     0.0518806779
   15      O       4.6077090769    -1.5563261516     0.1110440709
   16      O       5.3751513285    -1.4058584584    -1.0925878931
   17      H       3.3603109445    -0.5375692703     1.9493992489
   18      H       6.1025783663    -0.8307821557    -0.7882218860
 ----------------------------------------------------------------
 Nuclear Repulsion Energy =         616.59657603 hartrees
 There are       40 alpha and       40 beta electrons
 Requested basis set is 6-311++G(2df,2p)
 There are 128 shells and 420 basis functions

 Total QAlloc Memory Limit 288000 MB
 Mega-Array Size       188 MB
 MEM_STATIC part       192 MB
 
 Citation of the SMD model:
 Marenich, A.V.; Cramer, C.J.; Truhlar, D.G.
 J. Phys. Chem. B 2009, 113, 6378-6396.
 iSolventCode=           1
 Solvent: water                                                           
 
 vradii
            1           2           3           4           5           6
    1   1.8500000   1.5200000   1.8500000   1.5200000   1.8500000   1.8500000
            7           8           9          10          11          12
    1   1.5200000   1.2000000   1.2000000   1.2000000   1.2000000   1.2000000
           13          14          15          16          17          18
    1   1.5200000   1.2000000   1.5200000   1.5200000   1.2000000   1.2000000
 Changing PCM_VDW_RADII to SMD_RADIUS
 Discretize the solute cavity surface with Lebedev spheres
	Using 110 Lebedev grid points for each H atom
	Using 194 Lebedev grid points for other atoms
	Atomic van der Waals radii will be scaled by 1.20
 Remove points where switching function is < 1.0e-08
 Keep 1401 surface tesserae and discard 1419 interior tesserae
 Molecular Surface Area = 157.218 Angst**2
 A cutoff of  1.0D-12 yielded   7421 shell pairs
 There are     80014 function pairs (     99821 Cartesian)
 Smallest overlap matrix eigenvalue = 6.75E-06

 Scale SEOQF with 1.000000e-02/1.000000e-01/1.000000e-01

 Standard Electronic Orientation quadrupole field applied
 Nucleus-field energy     =     0.0000000030 hartrees
 Guess from superposition of atomic densities
 Warning:  Energy on first SCF cycle will be non-variational
 SAD guess density has 80.000000 electrons

 -----------------------------------------------------------------------
  General SCF calculation program by
  Eric Jon Sundstrom, Paul Horn, Yuezhi Mao, Dmitri Zuev, Alec White,
  David Stuck, Shaama M.S., Shane Yost, Joonho Lee, David Small,
  Daniel Levine, Susi Lehtola, Hugh Burton, Evgeny Epifanovsky,
  Bang C. Huynh
 -----------------------------------------------------------------------
 Exchange:     0.1500 Hartree-Fock + 1.0000 wB97M-V + LR-HF
 Correlation:  1.0000 wB97M-V
 Using SG-2 standard quadrature grid
 Nonlocal Correlation:  VV10 with C = 0.0100 and b = 6.00 and scale = 1.00000
 Grid used for NLC:  SG-1 standard quadrature
 
 Citation of the SMD model:
 Marenich, A.V.; Cramer, C.J.; Truhlar, D.G.
 J. Phys. Chem. B 2009, 113, 6378-6396.
 iSolventCode=           1
 Solvent: water                                                           
 
 vradii
            1           2           3           4           5           6
    1   1.8500000   1.5200000   1.8500000   1.5200000   1.8500000   1.8500000
            7           8           9          10          11          12
    1   1.5200000   1.2000000   1.2000000   1.2000000   1.2000000   1.2000000
           13          14          15          16          17          18
    1   1.5200000   1.2000000   1.5200000   1.5200000   1.2000000   1.2000000
 using 16 threads for integral computing
 -------------------------------------------------------
 OpenMP Integral computing Module                
 Release: version 1.0, May 2013, Q-Chem Inc. Pittsburgh 
 -------------------------------------------------------
 -------------------------------------------------------
 OpenMP BLAS3 based DFT computing Module                
 Release: version 1.0, May 2013, Q-Chem Inc. Pittsburgh 
 -------------------------------------------------------
 A restricted SCF calculation will be
 performed using DIIS, GDM
 SCF converges when RMS gradient is below 1.0e-07
 ---------------------------------------
  Cycle       Energy         DIIS error
 ---------------------------------------
    1    -610.4502398799      2.41e-02  
    2    -608.3516057663      3.34e-03  Done DIIS. Switching to GDM
 ---------------------------------------
  Cycle       Energy        RMS Gradient
 ---------------------------------------
    1    -608.3516057663      1.07e-01   Descent step
    2    -608.5253662409      2.10e-02   Normal BFGS step
    3    -608.5429342414      1.52e-02   Normal BFGS step
    4    -608.5445992577      4.40e-03   Normal BFGS step
    5    -608.5452914703      9.99e-04   Normal BFGS step
    6    -608.5453292000      3.99e-04   Normal BFGS step
    7    -608.5453388250      1.34e-04   Normal BFGS step
    8    -608.5453393790      4.97e-05   Normal BFGS step
    9    -608.5453394887      2.19e-05   Normal BFGS step
   10    -608.5453395083      1.23e-05   Normal BFGS step
   11    -608.5453395108      7.31e-06   Normal BFGS step
   12    -608.5453395113      3.67e-06   Normal BFGS step
   13    -608.5453395115      2.18e-06   Normal BFGS step
   14    -608.5453395115      7.88e-07   Normal BFGS step
   15    -608.5453395116      1.48e-07   Normal BFGS step
   16    -608.5453395115      3.69e-08  Convergence criterion met
 ---------------------------------------
 SCF time:   CPU 1801.73s  wall 125.00s 
(3)  G-ENP(liq) elect-nuc-pol free energy of system     -608.545339512 a.u.
(4)  G-CDS(liq) cavity-dispersion-solvent structure 
     free energy                                                4.3575 kcal/mol
(6)  G-S(liq) free energy of system                     -608.538395413 a.u.
 SCF   energy in the final basis set =     -608.5383954132
 Total energy in the final basis set =     -608.5383954132
 
 --------------------------------------------------------------
 
                    Orbital Energies (a.u.)
 --------------------------------------------------------------
 
 Alpha MOs
 -- Occupied --
-19.4056 -19.4000 -19.3563 -19.3543 -19.3497 -19.3484 -10.4682 -10.4525
-10.4492 -10.3559  -1.2769  -1.2124  -1.1996  -1.1767  -1.1371  -1.0388
 -0.9112  -0.8361  -0.7420  -0.7150  -0.6903  -0.6511  -0.6345  -0.6189
 -0.5945  -0.5815  -0.5734  -0.5639  -0.5512  -0.5380  -0.5285  -0.4851
 -0.4772  -0.4616  -0.4448  -0.4321  -0.4159  -0.4110  -0.3989  -0.3725
 -- Virtual --
  0.0253   0.0361   0.0400   0.0417   0.0474   0.0635   0.0676   0.0702
  0.0772   0.0945   0.1080   0.1162   0.1206   0.1332   0.1355   0.1416
  0.1507   0.1574   0.1610   0.1647   0.1734   0.1820   0.1874   0.1988
  0.2015   0.2083   0.2175   0.2319   0.2356   0.2507   0.2599   0.2725
  0.2760   0.2768   0.2848   0.2881   0.2965   0.3062   0.3089   0.3218
  0.3252   0.3307   0.3377   0.3451   0.3463   0.3538   0.3632   0.3660
  0.3762   0.3798   0.3893   0.3906   0.3936   0.4097   0.4121   0.4233
  0.4253   0.4372   0.4433   0.4539   0.4644   0.4735   0.4870   0.4923
  0.5138   0.5279   0.5730   0.5819   0.5859   0.6026   0.6160   0.6192
  0.6332   0.6476   0.6496   0.6681   0.6745   0.6821   0.6956   0.7128
  0.7218   0.7338   0.7530   0.7549   0.7763   0.7859   0.7966   0.8068
  0.8334   0.8382   0.8689   0.8820   0.8875   0.9338   0.9467   0.9539
  0.9742   0.9878   1.0104   1.0510   1.0568   1.0715   1.0744   1.0959
  1.1134   1.1217   1.1277   1.1422   1.1547   1.1652   1.1728   1.1822
  1.1861   1.1980   1.2075   1.2168   1.2227   1.2453   1.2488   1.2570
  1.2668   1.2826   1.2990   1.3075   1.3133   1.3325   1.3383   1.3495
  1.3708   1.3835   1.3907   1.3989   1.4162   1.4369   1.4637   1.4669
  1.4701   1.4994   1.5063   1.5258   1.5417   1.5513   1.5572   1.5815
  1.5943   1.6204   1.6303   1.6638   1.6769   1.6836   1.6997   1.7140
  1.7422   1.7588   1.7873   1.7997   1.8286   1.8526   1.8978   1.9122
  1.9334   1.9490   1.9751   1.9927   2.0104   2.0388   2.0664   2.0845
  2.1137   2.1285   2.2126   2.2403   2.2551   2.2795   2.3140   2.3326
  2.3620   2.3871   2.4022   2.4595   2.4725   2.4821   2.4972   2.5228
  2.5532   2.5643   2.6008   2.6243   2.6588   2.6944   2.7673   2.7837
  2.8164   2.8425   2.8504   2.8694   2.8900   2.8989   2.9360   2.9771
  2.9993   3.0462   3.0664   3.0933   3.1240   3.1671   3.1830   3.2100
  3.2445   3.2760   3.2905   3.3083   3.3434   3.3617   3.3769   3.3966
  3.4268   3.4352   3.4536   3.4634   3.5039   3.5536   3.5848   3.6002
  3.6146   3.6216   3.6450   3.6691   3.6892   3.7092   3.7419   3.7461
  3.7663   3.7792   3.8068   3.8362   3.8399   3.8492   3.8604   3.8762
  3.9065   3.9255   3.9336   3.9444   3.9700   4.0081   4.0179   4.0395
  4.0551   4.0890   4.1285   4.1417   4.1649   4.2048   4.2180   4.2379
  4.2522   4.2593   4.2849   4.3032   4.3544   4.3567   4.3914   4.4133
  4.4245   4.4435   4.4573   4.5420   4.5545   4.5890   4.6047   4.6711
  4.7039   4.7248   4.7537   4.8123   4.8550   4.8759   5.0132   5.0488
  5.0826   5.1677   5.1978   5.2136   5.2171   5.2339   5.2462   5.2567
  5.2793   5.2848   5.2979   5.3224   5.3356   5.3501   5.3616   5.3802
  5.3915   5.4123   5.4231   5.4389   5.4650   5.4888   5.5008   5.5317
  5.5454   5.5597   5.5785   5.5791   5.5983   5.6061   5.6280   5.6367
  5.6622   5.6694   5.7026   5.7596   5.7787   5.7870   5.8103   5.8553
  5.9064   5.9578   6.0085   6.0229   6.0628   6.1182   6.1591   6.2243
  6.3278   6.4928   6.5823   6.6758   6.7456   6.8134   6.8331   6.9754
  7.0176   7.0411   7.0654   7.0851   7.0945   7.1358   7.1448   7.1882
  7.2287   7.2449   7.2627   7.2869   7.2994   7.3247   7.3398   7.3861
  7.4050   7.4209   7.4611   7.4967   7.5020   7.5546   7.5837   7.5976
  7.6519   7.6847   7.7514   7.7656   7.8354   7.8617   7.8923   7.9093
  8.0124   8.2102  24.6381  24.7713  24.8427  24.9573  50.4939  50.5922
 50.6247  50.6410  50.6905  50.7140
 --------------------------------------------------------------
 
          Ground-State Mulliken Net Atomic Charges

     Atom                 Charge (a.u.)
  ----------------------------------------
      1 C                    -0.103703
      2 O                    -0.432459
      3 C                     0.099878
      4 O                    -0.400096
      5 C                    -0.315741
      6 C                     0.045444
      7 O                    -0.366992
      8 H                     0.295052
      9 H                     0.344096
     10 H                     0.247939
     11 H                     0.254055
     12 H                     0.224017
     13 O                    -0.452300
     14 H                     0.348360
     15 O                    -0.166947
     16 O                    -0.296240
     17 H                     0.333622
     18 H                     0.342013
  ----------------------------------------
  Sum of atomic charges =     0.000000

 -----------------------------------------------------------------
                    Cartesian Multipole Moments
 -----------------------------------------------------------------
    Charge (ESU x 10^10)
                -0.0000
    Dipole Moment (Debye)
         X       1.6594      Y       5.8408      Z      -3.2792
       Tot       6.9008
    Quadrupole Moments (Debye-Ang)
        XX     -41.1081     XY      25.8499     YY     -66.7585
        XZ     -12.3071     YZ      -4.0136     ZZ     -61.1483
    Octopole Moments (Debye-Ang^2)
       XXX    -487.6960    XXY     146.0513    XYY    -237.8907
       YYY     139.2114    XXZ     -67.0725    XYZ     -15.9245
       YYZ      16.4662    XZZ    -241.1277    YZZ      29.9987
       ZZZ     -27.3249
    Hexadecapole Moments (Debye-Ang^3)
      XXXX   -4063.1628   XXXY     765.9255   XXYY   -1066.7796
      XYYY     424.1577   YYYY    -713.5431   XXXZ    -477.4542
      XXYZ    -107.1100   XYYZ      12.4992   YYYZ    -157.6534
      XXZZ   -1115.8164   XYZZ      75.5660   YYZZ    -211.5740
      XZZZ    -194.3248   YZZZ    -130.3763   ZZZZ    -489.9688
 -----------------------------------------------------------------
 Calculating analytic gradient of the SCF energy
 Gradient of CDS energy
            1           2           3           4           5           6
    1  -0.0022242   0.0015185  -0.0016536   0.0017202  -0.0001790   0.0004605
    2  -0.0015299  -0.0012184  -0.0006862   0.0006644  -0.0000224   0.0000869
    3   0.0000118   0.0002851   0.0030234  -0.0032830  -0.0003147   0.0020600
            7           8           9          10          11          12
    1   0.0000378   0.0002724  -0.0004248  -0.0002082   0.0000386   0.0000281
    2   0.0005476  -0.0000781   0.0001827  -0.0000394  -0.0000926   0.0000824
    3  -0.0011835  -0.0000005  -0.0002331  -0.0000528  -0.0001329  -0.0001233
           13          14          15          16          17          18
    1   0.0009117  -0.0002510  -0.0001041  -0.0002716  -0.0001506   0.0004791
    2   0.0027812  -0.0003584  -0.0000448  -0.0000320  -0.0001208  -0.0001222
    3  -0.0003940   0.0002304  -0.0001233   0.0000964   0.0003225  -0.0001885
 Gradient of SCF Energy
            1           2           3           4           5           6
    1  -0.0064725   0.0060737   0.0037322  -0.0099621   0.0000975  -0.0092836
    2   0.0002330   0.0076882   0.0029424  -0.0050610  -0.0122074  -0.0075874
    3   0.0064102   0.0215426  -0.0020909  -0.0034405   0.0181267  -0.0101631
            7           8           9          10          11          12
    1   0.0016036   0.0026452  -0.0078788  -0.0084663   0.0100194   0.0105084
    2  -0.0082796   0.0029268  -0.0044625   0.0089289   0.0033658   0.0151853
    3   0.0159597  -0.0082602  -0.0178845  -0.0011893  -0.0166616  -0.0051834
           13          14          15          16          17          18
    1   0.0062940  -0.0034654  -0.0026576  -0.0152917   0.0056084   0.0168956
    2  -0.0089444   0.0032473  -0.0042638  -0.0180674   0.0047365   0.0196192
    3  -0.0079454   0.0058886   0.0081583  -0.0142246   0.0035070   0.0074505
 Max gradient component =       2.154E-02
 RMS gradient           =       9.756E-03
 Computing fast CPCM-SWIG gradient
 Updating gradient with PCM contributions...
 -- total gradient after adding PCM contribution --
---------------------------------------------------
  Atom         X              Y              Z     
---------------------------------------------------
   1      -0.003862      -0.000833       0.002205
   2       0.003019       0.004879       0.007993
   3       0.000881      -0.000356      -0.000886
   4      -0.006934      -0.003342      -0.003472
   5      -0.000008       0.000304       0.000015
   6       0.000214       0.001901      -0.005034
   7      -0.000263      -0.004458       0.008388
   8       0.002007      -0.000864      -0.002662
   9      -0.002785      -0.002789      -0.005744
  10      -0.002884       0.001376      -0.000369
  11       0.001453       0.000217      -0.002844
  12       0.001868       0.002359      -0.000513
  13       0.003370      -0.003310      -0.007933
  14      -0.001493       0.002604       0.006636
  15      -0.000557      -0.001209       0.005090
  16      -0.003412      -0.003416      -0.007703
  17       0.005129       0.002782       0.003362
  18       0.004258       0.004155       0.003471
---------------------------------------------------
 Number of fixed atoms: 0
 Gradient time:  CPU 330.83 s  wall 27.27 s
 Geometry Optimization Parameters
   NAtoms,    NIC,     NZ,  NCons,   NDum,   NFix, NCnnct, MaxDiis
       18     116       0       0       0       0       0       0


** GEOMETRY OPTIMIZATION IN DELOCALIZED INTERNAL COORDINATES **
   Searching for a Minimum

   Optimization Cycle:   1

                       Coordinates (Angstroms)
     ATOM                X               Y               Z
      1  C         2.5320053208   -1.1512963477   -1.0802929307
      2  O         1.4312918067   -0.2724169069   -1.0828305950
      3  C         3.4613848868   -0.6796391450    0.0462025997
      4  O         2.7973859922   -0.9300275476    1.2492103785
      5  C         3.8967649599    0.7734475654   -0.1030527529
      6  C         4.7556943587    1.2558779629    1.0300788065
      7  O         4.7876526869    0.7263186994    2.1312533242
      8  H         3.0589922174   -1.1341598869   -2.0377887892
      9  H         0.9026283563   -0.4855557782   -1.8696363551
     10  H         3.0090703788    1.4184042378   -0.1280198896
     11  H         4.4220161202    0.9325674964   -1.0493498407
     12  H         5.3632363212    2.1554976169    0.8356103739
     13  O         2.1445857452   -2.4861734980   -0.8681364482
     14  H         1.8259792326   -2.5334786326    0.0518806779
     15  O         4.6077090769   -1.5563261516    0.1110440709
     16  O         5.3751513285   -1.4058584584   -1.0925878931
     17  H         3.3603109445   -0.5375692703    1.9493992489
     18  H         6.1025783663   -0.8307821557   -0.7882218860
   Point Group: c1    Number of degrees of freedom:    48


   Energy is   -608.538395413


 Attempting to generate delocalized internal coordinates
 Initial Hessian constructed with Jon Baker's OPTIMIZE code

 48 Hessian modes will be used to form the next step
  Hessian Eigenvalues:
     0.004426    0.004593    0.005973    0.008981    0.009001    0.009747
     0.014515    0.014844    0.016080    0.041747    0.048710    0.055072
     0.058266    0.062144    0.063370    0.091804    0.096767    0.097056
     0.129883    0.160000    0.160000    0.160000    0.160000    0.160000
     0.172603    0.182585    0.190851    0.206937    0.219468    0.220009
     0.250000    0.289967    0.299622    0.322210    0.333708    0.339556
     0.343622    0.344600    0.389623    0.402248    0.442329    0.446310
     0.461691    0.513084    0.521771    0.524138    0.530545    0.943674

 Minimum search - taking simple RFO step
 Searching for Lamda that Minimizes Along All modes
 Value Taken    Lamda =  -0.00135486
 Step Taken.  Stepsize is  0.125704

                             Maximum     Tolerance    Cnvgd?
         Gradient           0.006890      0.000300      NO
         Displacement       0.053053      0.001200      NO
         Energy change     *********      0.000001      NO


 New Cartesian Coordinates Obtained by Inverse Iteration

 Displacement from previous Coordinates is:  0.281633
 ----------------------------------------------------------------
             Standard Nuclear Orientation (Angstroms)
    I     Atom           X                Y                Z
 ----------------------------------------------------------------
    1      C       2.5378625900    -1.1441455342    -1.0752399074
    2      O       1.4307485452    -0.2755115055    -1.0883844224
    3      C       3.4604932293    -0.6777085536     0.0599892075
    4      O       2.8009214769    -0.9377633549     1.2622292395
    5      C       3.8851151341     0.7752607209    -0.0891649816
    6      C       4.7608517346     1.2745449678     1.0167772257
    7      O       4.8353827919     0.7536811251     2.1141607137
    8      H       3.0679132174    -1.1083784454    -2.0247625989
    9      H       0.9124899211    -0.4675840222    -1.8792116545
   10      H       2.9982346218     1.4134327168    -0.0956795762
   11      H       4.3877975959     0.9406208968    -1.0409856598
   12      H       5.3407450439     2.1823131670     0.8038790954
   13      O       2.1468311610    -2.4818234095    -0.8886651211
   14      H       1.8101987212    -2.5744491111     0.0142816296
   15      O       4.6094932174    -1.5500541019     0.1187460760
   16      O       5.3723475214    -1.4186487851    -1.0837073809
   17      H       3.3393968418    -0.5440140568     1.9715932675
   18      H       6.1376147351    -0.9009429143    -0.7910930521
 ----------------------------------------------------------------
 Nuclear Repulsion Energy =         616.00046154 hartrees
 There are       40 alpha and       40 beta electrons
 Discretize the solute cavity surface with Lebedev spheres
	Using 110 Lebedev grid points for each H atom
	Using 194 Lebedev grid points for other atoms
	Atomic van der Waals radii will be scaled by 1.20
 Remove points where switching function is < 1.0e-08
 Keep 1407 surface tesserae and discard 1413 interior tesserae
 Molecular Surface Area = 157.878 Angst**2
 Applying Cartesian multipole field
    Component          Value
    ---------          -----
     (2,0,0)        1.00000E-12
     (0,2,0)        2.00000E-11
     (0,0,2)       -3.00000E-11
 Nucleus-field energy     =     0.0000000032 hartrees
 Requested basis set is 6-311++G(2df,2p)
 There are 128 shells and 420 basis functions
 A cutoff of  1.0D-12 yielded   7415 shell pairs
 There are     80009 function pairs (     99820 Cartesian)
 Smallest overlap matrix eigenvalue = 6.69E-06
 Guess MOs from SCF MO coefficient file

 -----------------------------------------------------------------------
  General SCF calculation program by
  Eric Jon Sundstrom, Paul Horn, Yuezhi Mao, Dmitri Zuev, Alec White,
  David Stuck, Shaama M.S., Shane Yost, Joonho Lee, David Small,
  Daniel Levine, Susi Lehtola, Hugh Burton, Evgeny Epifanovsky,
  Bang C. Huynh
 -----------------------------------------------------------------------
 Exchange:     0.1500 Hartree-Fock + 1.0000 wB97M-V + LR-HF
 Correlation:  1.0000 wB97M-V
 Using SG-2 standard quadrature grid
 Nonlocal Correlation:  VV10 with C = 0.0100 and b = 6.00 and scale = 1.00000
 Grid used for NLC:  SG-1 standard quadrature
 
 Citation of the SMD model:
 Marenich, A.V.; Cramer, C.J.; Truhlar, D.G.
 J. Phys. Chem. B 2009, 113, 6378-6396.
 iSolventCode=           1
 Solvent: water                                                           
 
 vradii
            1           2           3           4           5           6
    1   1.8500000   1.5200000   1.8500000   1.5200000   1.8500000   1.8500000
            7           8           9          10          11          12
    1   1.5200000   1.2000000   1.2000000   1.2000000   1.2000000   1.2000000
           13          14          15          16          17          18
    1   1.5200000   1.2000000   1.5200000   1.5200000   1.2000000   1.2000000
 -------------------------------------------------------
 OpenMP BLAS3 based DFT computing Module                
 Release: version 1.0, May 2013, Q-Chem Inc. Pittsburgh 
 -------------------------------------------------------
 A restricted SCF calculation will be
 performed using Roothaan-Hall, DIIS, GDM
 SCF converges when RMS gradient is below 1.0e-07
 ---------------------------------------
  Cycle       Energy         DIIS error
 ---------------------------------------
    1    -608.4919267310      6.01e-04  Roothaan Step
 ---------------------------------------
  Cycle       Energy         DIIS error
 ---------------------------------------
    1    -608.5340539172      6.16e-04  
    2    -608.5403248020      6.13e-04  Done DIIS. Switching to GDM
 ---------------------------------------
  Cycle       Energy        RMS Gradient
 ---------------------------------------
    1    -608.5403248020      2.06e-02   Normal BFGS step
    2    -608.5380086283      3.12e-02  Line search: overstep
    3    -608.5457493122      1.42e-03   Normal BFGS step
    4    -608.5460456029      6.49e-04   Normal BFGS step
    5    -608.5460937301      7.97e-04   Normal BFGS step
    6    -608.5461023567      9.94e-05   Normal BFGS step
    7    -608.5461029658      6.76e-05   Normal BFGS step
    8    -608.5461032278      3.75e-05   Normal BFGS step
    9    -608.5461032402      2.09e-05   Normal BFGS step
   10    -608.5461032479      1.11e-05   Normal BFGS step
   11    -608.5461032488      4.43e-06   Normal BFGS step
   12    -608.5461032491      1.15e-06   Normal BFGS step
   13    -608.5461032492      2.37e-07   Normal BFGS step
   14    -608.5461032492      1.10e-07   Normal BFGS step
   15    -608.5461032492      5.06e-08  Convergence criterion met
 ---------------------------------------
 SCF time:   CPU 1862.51s  wall 129.00s 
(3)  G-ENP(liq) elect-nuc-pol free energy of system     -608.546103249 a.u.
(4)  G-CDS(liq) cavity-dispersion-solvent structure 
     free energy                                                4.4334 kcal/mol
(6)  G-S(liq) free energy of system                     -608.539038189 a.u.
 SCF   energy in the final basis set =     -608.5390381895
 Total energy in the final basis set =     -608.5390381895
 
 --------------------------------------------------------------
 
                    Orbital Energies (a.u.)
 --------------------------------------------------------------
 
 Alpha MOs
 -- Occupied --
-19.4052 -19.3990 -19.3572 -19.3522 -19.3484 -19.3475 -10.4688 -10.4496
-10.4494 -10.3537  -1.2783  -1.2125  -1.2001  -1.1788  -1.1375  -1.0400
 -0.9125  -0.8380  -0.7451  -0.7144  -0.6915  -0.6537  -0.6377  -0.6188
 -0.5948  -0.5830  -0.5735  -0.5658  -0.5504  -0.5374  -0.5285  -0.4847
 -0.4773  -0.4611  -0.4443  -0.4326  -0.4168  -0.4108  -0.3966  -0.3716
 -- Virtual --
  0.0253   0.0362   0.0416   0.0419   0.0478   0.0632   0.0681   0.0697
  0.0771   0.0952   0.1078   0.1166   0.1211   0.1338   0.1359   0.1420
  0.1505   0.1570   0.1616   0.1645   0.1734   0.1817   0.1873   0.1996
  0.2009   0.2093   0.2174   0.2327   0.2374   0.2512   0.2600   0.2723
  0.2763   0.2768   0.2849   0.2876   0.2972   0.3054   0.3090   0.3229
  0.3256   0.3308   0.3389   0.3448   0.3473   0.3547   0.3638   0.3661
  0.3773   0.3793   0.3888   0.3910   0.3971   0.4090   0.4126   0.4221
  0.4260   0.4381   0.4438   0.4549   0.4664   0.4746   0.4832   0.4930
  0.5158   0.5295   0.5743   0.5837   0.5870   0.6050   0.6177   0.6228
  0.6323   0.6484   0.6508   0.6698   0.6764   0.6817   0.6979   0.7164
  0.7248   0.7305   0.7546   0.7563   0.7799   0.7862   0.7991   0.8064
  0.8360   0.8442   0.8676   0.8790   0.8859   0.9327   0.9459   0.9570
  0.9668   0.9874   1.0069   1.0503   1.0575   1.0676   1.0747   1.0956
  1.1127   1.1245   1.1272   1.1426   1.1541   1.1598   1.1736   1.1809
  1.1883   1.1967   1.2040   1.2147   1.2234   1.2449   1.2498   1.2563
  1.2644   1.2814   1.3010   1.3037   1.3173   1.3296   1.3417   1.3507
  1.3697   1.3815   1.3900   1.4025   1.4192   1.4412   1.4665   1.4682
  1.4699   1.4968   1.5108   1.5235   1.5426   1.5511   1.5600   1.5826
  1.5926   1.6202   1.6308   1.6665   1.6767   1.6862   1.7030   1.7149
  1.7399   1.7651   1.7862   1.8024   1.8269   1.8531   1.9009   1.9085
  1.9305   1.9538   1.9729   1.9947   2.0098   2.0445   2.0675   2.0790
  2.1128   2.1344   2.2126   2.2267   2.2544   2.2772   2.2980   2.3370
  2.3656   2.3829   2.4012   2.4547   2.4688   2.4795   2.4893   2.5209
  2.5495   2.5677   2.6012   2.6224   2.6508   2.6956   2.7670   2.7882
  2.8201   2.8428   2.8480   2.8691   2.8867   2.9026   2.9322   2.9722
  3.0035   3.0499   3.0662   3.0963   3.1156   3.1667   3.1835   3.2142
  3.2440   3.2761   3.2929   3.3144   3.3437   3.3559   3.3754   3.3970
  3.4282   3.4329   3.4548   3.4643   3.5089   3.5533   3.5849   3.6026
  3.6148   3.6233   3.6465   3.6701   3.6893   3.7116   3.7418   3.7457
  3.7681   3.7830   3.8083   3.8394   3.8434   3.8455   3.8607   3.8756
  3.9076   3.9230   3.9338   3.9465   3.9695   4.0047   4.0245   4.0442
  4.0593   4.0974   4.1289   4.1407   4.1684   4.2117   4.2275   4.2507
  4.2585   4.2649   4.2950   4.3205   4.3560   4.3676   4.4025   4.4232
  4.4324   4.4444   4.4610   4.5504   4.5641   4.5957   4.6080   4.6737
  4.7131   4.7337   4.7562   4.8181   4.8597   4.8801   5.0180   5.0477
  5.0823   5.1663   5.1974   5.2114   5.2145   5.2372   5.2468   5.2518
  5.2790   5.2880   5.2990   5.3208   5.3339   5.3486   5.3636   5.3813
  5.3862   5.4063   5.4228   5.4441   5.4628   5.4875   5.5055   5.5361
  5.5489   5.5661   5.5845   5.5878   5.6116   5.6227   5.6397   5.6512
  5.6663   5.6805   5.7087   5.7729   5.7772   5.7854   5.8210   5.8684
  5.9164   5.9693   6.0236   6.0417   6.0857   6.1336   6.1543   6.2426
  6.3504   6.4937   6.5853   6.7056   6.7506   6.8171   6.8507   6.9792
  7.0188   7.0425   7.0633   7.0836   7.0974   7.1362   7.1484   7.1905
  7.2522   7.2643   7.2747   7.3035   7.3168   7.3275   7.3440   7.3820
  7.4081   7.4195   7.4599   7.5022   7.5077   7.5584   7.5876   7.6048
  7.6670   7.6856   7.7555   7.7682   7.8387   7.8626   7.8905   7.9111
  8.0148   8.2056  24.6512  24.7837  24.8476  24.9828  50.4953  50.5935
 50.6274  50.6424  50.6906  50.7164
 --------------------------------------------------------------
 
          Ground-State Mulliken Net Atomic Charges

     Atom                 Charge (a.u.)
  ----------------------------------------
      1 C                    -0.106385
      2 O                    -0.431711
      3 C                     0.088363
      4 O                    -0.394356
      5 C                    -0.303831
      6 C                     0.043464
      7 O                    -0.374201
      8 H                     0.302327
      9 H                     0.341538
     10 H                     0.250382
     11 H                     0.250825
     12 H                     0.223021
     13 O                    -0.455394
     14 H                     0.348421
     15 O                    -0.159631
     16 O                    -0.295519
     17 H                     0.332312
     18 H                     0.340375
  ----------------------------------------
  Sum of atomic charges =     0.000000

 -----------------------------------------------------------------
                    Cartesian Multipole Moments
 -----------------------------------------------------------------
    Charge (ESU x 10^10)
                -0.0000
    Dipole Moment (Debye)
         X       1.5194      Y       5.6264      Z      -3.2531
       Tot       6.6744
    Quadrupole Moments (Debye-Ang)
        XX     -41.9476     XY      24.6303     YY     -66.2970
        XZ     -12.7202     YZ      -4.2030     ZZ     -61.0351
    Octopole Moments (Debye-Ang^2)
       XXX    -490.8766    XXY     137.5984    XYY    -237.1686
       YYY     136.8384    XXZ     -71.4336    XYZ     -16.4501
       YYZ      16.4114    XZZ    -241.4937    YZZ      30.0768
       ZZZ     -26.5510
    Hexadecapole Moments (Debye-Ang^3)
      XXXX   -4068.2367   XXXY     706.8345   XXYY   -1064.8765
      XYYY     418.6648   YYYY    -711.1263   XXXZ    -512.8478
      XXYZ    -109.0422   XYYZ      10.3905   YYYZ    -159.5640
      XXZZ   -1121.4050   XYZZ      73.4050   YYZZ    -214.1036
      XZZZ    -194.7129   YZZZ    -133.0236   ZZZZ    -485.0117
 -----------------------------------------------------------------
 Calculating analytic gradient of the SCF energy
 Gradient of CDS energy
            1           2           3           4           5           6
    1  -0.0024307   0.0017533  -0.0017005   0.0017689  -0.0001837   0.0005198
    2  -0.0013791  -0.0013746  -0.0007307   0.0007116  -0.0000278   0.0001314
    3  -0.0000029   0.0002697   0.0031259  -0.0033839  -0.0003051   0.0019959
            7           8           9          10          11          12
    1  -0.0000016   0.0002461  -0.0004201  -0.0002045   0.0000355   0.0000168
    2   0.0005185  -0.0000385   0.0001860  -0.0000446  -0.0000884   0.0000751
    3  -0.0011341  -0.0000155  -0.0002393  -0.0000504  -0.0001362  -0.0001308
           13          14          15          16          17          18
    1   0.0009099  -0.0002504  -0.0001113  -0.0002793  -0.0001569   0.0004888
    2   0.0027606  -0.0003689  -0.0000465  -0.0000236  -0.0001224  -0.0001380
    3  -0.0003342   0.0002194  -0.0001243   0.0001053   0.0003311  -0.0001905
 Gradient of SCF Energy
            1           2           3           4           5           6
    1  -0.0013583   0.0033100   0.0030248  -0.0058024   0.0004136  -0.0090096
    2   0.0013478   0.0026710   0.0020295  -0.0031085  -0.0108841  -0.0078601
    3   0.0042389   0.0135989  -0.0014194  -0.0011427   0.0166917  -0.0062328
            7           8           9          10          11          12
    1   0.0027054   0.0002736  -0.0057060  -0.0054124   0.0077038   0.0080287
    2  -0.0040091   0.0043846  -0.0016280   0.0071222   0.0033837   0.0119561
    3   0.0087706  -0.0058171  -0.0126351  -0.0004816  -0.0131065  -0.0042525
           13          14          15          16          17          18
    1   0.0027003  -0.0025875  -0.0032621  -0.0112825   0.0019019   0.0143585
    2  -0.0063448   0.0003997  -0.0028952  -0.0131378   0.0028851   0.0136878
    3  -0.0014909   0.0009375   0.0050268  -0.0078410   0.0021845   0.0029707
 Max gradient component =       1.669E-02
 RMS gradient           =       6.995E-03
 Computing fast CPCM-SWIG gradient
 Updating gradient with PCM contributions...
 -- total gradient after adding PCM contribution --
---------------------------------------------------
  Atom         X              Y              Z     
---------------------------------------------------
   1       0.000985       0.000575      -0.000136
   2       0.000271       0.000105      -0.000050
   3       0.000457      -0.000561      -0.000759
   4      -0.002703      -0.001064      -0.000601
   5      -0.000408       0.000925      -0.000004
   6       0.000228       0.001456      -0.001744
   7       0.000255      -0.000352       0.001518
   8      -0.000325       0.000333      -0.000234
   9      -0.000668      -0.000214      -0.000395
  10       0.000023      -0.000308       0.000071
  11       0.000005       0.000139       0.000341
  12       0.000159      -0.000477       0.000489
  13      -0.000561      -0.000834      -0.000840
  14      -0.000365      -0.000304       0.001185
  15      -0.000985       0.000053       0.001535
  16       0.001146       0.000254      -0.001244
  17       0.001499       0.000740       0.001552
  18       0.000986      -0.000468      -0.000686
---------------------------------------------------
 Number of fixed atoms: 0
 Gradient time:  CPU 331.05 s  wall 27.34 s
 Geometry Optimization Parameters
   NAtoms,    NIC,     NZ,  NCons,   NDum,   NFix, NCnnct, MaxDiis
       18     116       0       0       0       0       0       0

 Cartesian Hessian Update
 Hessian updated using BFGS update


** GEOMETRY OPTIMIZATION IN DELOCALIZED INTERNAL COORDINATES **
   Searching for a Minimum

   Optimization Cycle:   2

                       Coordinates (Angstroms)
     ATOM                X               Y               Z
      1  C         2.5378625900   -1.1441455342   -1.0752399074
      2  O         1.4307485452   -0.2755115055   -1.0883844224
      3  C         3.4604932293   -0.6777085536    0.0599892075
      4  O         2.8009214769   -0.9377633549    1.2622292395
      5  C         3.8851151341    0.7752607209   -0.0891649816
      6  C         4.7608517346    1.2745449678    1.0167772257
      7  O         4.8353827919    0.7536811251    2.1141607137
      8  H         3.0679132174   -1.1083784454   -2.0247625989
      9  H         0.9124899211   -0.4675840222   -1.8792116545
     10  H         2.9982346218    1.4134327168   -0.0956795762
     11  H         4.3877975959    0.9406208968   -1.0409856598
     12  H         5.3407450439    2.1823131670    0.8038790954
     13  O         2.1468311610   -2.4818234095   -0.8886651211
     14  H         1.8101987212   -2.5744491111    0.0142816296
     15  O         4.6094932174   -1.5500541019    0.1187460760
     16  O         5.3723475214   -1.4186487851   -1.0837073809
     17  H         3.3393968418   -0.5440140568    1.9715932675
     18  H         6.1376147351   -0.9009429143   -0.7910930521
   Point Group: c1    Number of degrees of freedom:    48


   Energy is   -608.539038189

 Hessian updated using BFGS update

 45 Hessian modes will be used to form the next step
  Hessian Eigenvalues:
     0.004591    0.004946    0.006099    0.008903    0.009001    0.009984
     0.014397    0.014828    0.015955    0.041743    0.047999    0.055110
     0.058706    0.062104    0.062968    0.092366    0.096509    0.097267
     0.129672    0.150001    0.170154    0.173293    0.184253    0.189106
     0.207368    0.219954    0.223253    0.264724    0.290996    0.293738
     0.317437    0.335076    0.339771    0.342846    0.344478    0.388367
     0.391641    0.441574    0.446856    0.458474    0.488129    0.521868
     0.524623    0.530788    0.925197

 Minimum search - taking simple RFO step
 Searching for Lamda that Minimizes Along All modes
 Value Taken    Lamda =  -0.00046970
 Step Taken.  Stepsize is  0.240208

                             Maximum     Tolerance    Cnvgd?
         Gradient           0.002221      0.000300      NO
         Displacement       0.155733      0.001200      NO
         Energy change     -0.000643      0.000001      NO


 New Cartesian Coordinates Obtained by Inverse Iteration

 Displacement from previous Coordinates is:  0.415612
 ----------------------------------------------------------------
             Standard Nuclear Orientation (Angstroms)
    I     Atom           X                Y                Z
 ----------------------------------------------------------------
    1      C       2.5432418639    -1.1503028130    -1.0698094431
    2      O       1.4417808303    -0.2759053245    -1.0941572346
    3      C       3.4607016437    -0.6886618112     0.0699458375
    4      O       2.7993497239    -0.9368595403     1.2714524356
    5      C       3.8983938012     0.7555746043    -0.0908665490
    6      C       4.7806790991     1.2555814933     1.0054048745
    7      O       4.8624400876     0.7394818482     2.1014882749
    8      H       3.0826875829    -1.1161599965    -2.0118862859
    9      H       0.9365048459    -0.4519980871    -1.8932330452
   10      H       3.0204850036     1.4035192951    -0.0988681305
   11      H       4.3980794257     0.9084437028    -1.0447872967
   12      H       5.3534487712     2.1645927298     0.7845082102
   13      O       2.1437867844    -2.4849137173    -0.8911442960
   14      H       1.7922849924    -2.5866212822     0.0012073324
   15      O       4.6023101626    -1.5675947970     0.1356806278
   16      O       5.3764607209    -1.4251967775    -1.0518380774
   17      H       3.3252424467    -0.5373700995     1.9806994025
   18      H       6.0165603139    -0.7467796275    -0.7990345369
 ----------------------------------------------------------------
 Nuclear Repulsion Energy =         617.27261155 hartrees
 There are       40 alpha and       40 beta electrons
 Discretize the solute cavity surface with Lebedev spheres
	Using 110 Lebedev grid points for each H atom
	Using 194 Lebedev grid points for other atoms
	Atomic van der Waals radii will be scaled by 1.20
 Remove points where switching function is < 1.0e-08
 Keep 1404 surface tesserae and discard 1416 interior tesserae
 Molecular Surface Area = 156.751 Angst**2
 Applying Cartesian multipole field
    Component          Value
    ---------          -----
     (2,0,0)        1.00000E-12
     (0,2,0)        2.00000E-11
     (0,0,2)       -3.00000E-11
 Nucleus-field energy     =     0.0000000032 hartrees
 Requested basis set is 6-311++G(2df,2p)
 There are 128 shells and 420 basis functions
 A cutoff of  1.0D-12 yielded   7424 shell pairs
 There are     80040 function pairs (     99847 Cartesian)
 Smallest overlap matrix eigenvalue = 6.27E-06
 Guess MOs from SCF MO coefficient file

 -----------------------------------------------------------------------
  General SCF calculation program by
  Eric Jon Sundstrom, Paul Horn, Yuezhi Mao, Dmitri Zuev, Alec White,
  David Stuck, Shaama M.S., Shane Yost, Joonho Lee, David Small,
  Daniel Levine, Susi Lehtola, Hugh Burton, Evgeny Epifanovsky,
  Bang C. Huynh
 -----------------------------------------------------------------------
 Exchange:     0.1500 Hartree-Fock + 1.0000 wB97M-V + LR-HF
 Correlation:  1.0000 wB97M-V
 Using SG-2 standard quadrature grid
 Nonlocal Correlation:  VV10 with C = 0.0100 and b = 6.00 and scale = 1.00000
 Grid used for NLC:  SG-1 standard quadrature
 
 Citation of the SMD model:
 Marenich, A.V.; Cramer, C.J.; Truhlar, D.G.
 J. Phys. Chem. B 2009, 113, 6378-6396.
 iSolventCode=           1
 Solvent: water                                                           
 
 vradii
            1           2           3           4           5           6
    1   1.8500000   1.5200000   1.8500000   1.5200000   1.8500000   1.8500000
            7           8           9          10          11          12
    1   1.5200000   1.2000000   1.2000000   1.2000000   1.2000000   1.2000000
           13          14          15          16          17          18
    1   1.5200000   1.2000000   1.5200000   1.5200000   1.2000000   1.2000000
 -------------------------------------------------------
 OpenMP BLAS3 based DFT computing Module                
 Release: version 1.0, May 2013, Q-Chem Inc. Pittsburgh 
 -------------------------------------------------------
 A restricted SCF calculation will be
 performed using Roothaan-Hall, DIIS, GDM
 SCF converges when RMS gradient is below 1.0e-07
 ---------------------------------------
  Cycle       Energy         DIIS error
 ---------------------------------------
    1    -608.4853177798      7.58e-04  Roothaan Step
 ---------------------------------------
  Cycle       Energy         DIIS error
 ---------------------------------------
    1    -608.5324587540      6.51e-04  
    2    -608.5396732228      6.30e-04  Done DIIS. Switching to GDM
 ---------------------------------------
  Cycle       Energy        RMS Gradient
 ---------------------------------------
    1    -608.5396732228      2.15e-02   Normal BFGS step
    2    -608.5374826415      3.23e-02  Line search: overstep
    3    -608.5453852662      1.43e-03   Normal BFGS step
    4    -608.5456904351      6.16e-04   Normal BFGS step
    5    -608.5457435538      8.34e-04   Normal BFGS step
    6    -608.5457522121      9.05e-05   Normal BFGS step
    7    -608.5457528544      4.34e-05   Normal BFGS step
    8    -608.5457530694      1.41e-05   Normal BFGS step
    9    -608.5457530790      7.62e-06   Normal BFGS step
   10    -608.5457530826      3.71e-06   Normal BFGS step
   11    -608.5457530830      1.78e-06   Normal BFGS step
   12    -608.5457530831      9.95e-07   Normal BFGS step
   13    -608.5457530832      6.11e-07   Normal BFGS step
   14    -608.5457530831      3.07e-07   Normal BFGS step
   15    -608.5457530832      6.90e-08  Convergence criterion met
 ---------------------------------------
 SCF time:   CPU 1856.34s  wall 128.00s 
(3)  G-ENP(liq) elect-nuc-pol free energy of system     -608.545753083 a.u.
(4)  G-CDS(liq) cavity-dispersion-solvent structure 
     free energy                                                4.3618 kcal/mol
(6)  G-S(liq) free energy of system                     -608.538802171 a.u.
 SCF   energy in the final basis set =     -608.5388021714
 Total energy in the final basis set =     -608.5388021714
 
 --------------------------------------------------------------
 
                    Orbital Energies (a.u.)
 --------------------------------------------------------------
 
 Alpha MOs
 -- Occupied --
-19.4057 -19.3997 -19.3570 -19.3520 -19.3481 -19.3472 -10.4683 -10.4490
-10.4490 -10.3535  -1.2824  -1.2134  -1.2013  -1.1803  -1.1383  -1.0401
 -0.9151  -0.8393  -0.7472  -0.7150  -0.6951  -0.6539  -0.6404  -0.6198
 -0.5955  -0.5829  -0.5744  -0.5667  -0.5506  -0.5384  -0.5302  -0.4849
 -0.4778  -0.4589  -0.4480  -0.4328  -0.4134  -0.4093  -0.4026  -0.3713
 -- Virtual --
  0.0252   0.0364   0.0417   0.0421   0.0485   0.0633   0.0680   0.0713
  0.0772   0.0951   0.1078   0.1174   0.1217   0.1343   0.1366   0.1417
  0.1506   0.1585   0.1615   0.1646   0.1734   0.1807   0.1875   0.2004
  0.2009   0.2083   0.2170   0.2336   0.2371   0.2517   0.2598   0.2729
  0.2761   0.2775   0.2845   0.2896   0.2986   0.3059   0.3135   0.3238
  0.3257   0.3323   0.3392   0.3438   0.3465   0.3552   0.3646   0.3659
  0.3777   0.3801   0.3879   0.3908   0.3947   0.4089   0.4139   0.4219
  0.4288   0.4381   0.4402   0.4542   0.4621   0.4731   0.4891   0.4977
  0.5144   0.5320   0.5757   0.5805   0.5826   0.6061   0.6195   0.6241
  0.6366   0.6493   0.6542   0.6704   0.6751   0.6842   0.6956   0.7099
  0.7221   0.7306   0.7534   0.7618   0.7760   0.7847   0.7956   0.8037
  0.8327   0.8455   0.8700   0.8843   0.8967   0.9382   0.9426   0.9499
  0.9868   0.9893   1.0048   1.0473   1.0516   1.0731   1.0798   1.0951
  1.1156   1.1266   1.1281   1.1409   1.1528   1.1603   1.1749   1.1838
  1.1853   1.1989   1.2048   1.2127   1.2246   1.2483   1.2520   1.2573
  1.2626   1.2834   1.2990   1.3098   1.3208   1.3276   1.3399   1.3520
  1.3715   1.3833   1.3898   1.4063   1.4166   1.4357   1.4642   1.4676
  1.4717   1.5039   1.5099   1.5236   1.5417   1.5547   1.5690   1.5909
  1.5970   1.6235   1.6310   1.6677   1.6774   1.6833   1.6953   1.7182
  1.7422   1.7677   1.7846   1.8035   1.8270   1.8536   1.8950   1.9159
  1.9443   1.9635   1.9794   1.9950   2.0094   2.0431   2.0701   2.0826
  2.1152   2.1406   2.2095   2.2294   2.2595   2.2841   2.2975   2.3380
  2.3613   2.3847   2.3972   2.4532   2.4676   2.4834   2.4917   2.5196
  2.5503   2.5681   2.6038   2.6221   2.6510   2.6923   2.7707   2.7982
  2.8185   2.8404   2.8518   2.8680   2.8921   2.9068   2.9368   2.9874
  3.0061   3.0501   3.0672   3.0996   3.1390   3.1688   3.1831   3.2164
  3.2445   3.2829   3.2997   3.3104   3.3444   3.3619   3.3754   3.3982
  3.4308   3.4405   3.4572   3.4680   3.5117   3.5546   3.5969   3.6058
  3.6211   3.6278   3.6520   3.6703   3.6904   3.7115   3.7404   3.7447
  3.7676   3.7809   3.8104   3.8378   3.8422   3.8447   3.8621   3.8837
  3.9114   3.9305   3.9397   3.9474   3.9751   4.0233   4.0291   4.0458
  4.0667   4.1026   4.1333   4.1443   4.1732   4.2170   4.2293   4.2516
  4.2613   4.2710   4.3039   4.3311   4.3635   4.3734   4.4091   4.4288
  4.4387   4.4514   4.4673   4.5513   4.5703   4.5998   4.6142   4.6858
  4.7217   4.7390   4.7576   4.8201   4.8516   4.8878   5.0034   5.0497
  5.0875   5.1650   5.1982   5.2104   5.2192   5.2385   5.2435   5.2523
  5.2819   5.2878   5.2974   5.3221   5.3358   5.3479   5.3634   5.3826
  5.3897   5.4175   5.4281   5.4437   5.4740   5.4922   5.5035   5.5378
  5.5510   5.5620   5.5843   5.5978   5.6069   5.6253   5.6427   5.6593
  5.6746   5.6882   5.7140   5.7813   5.7854   5.7990   5.8236   5.8780
  5.9190   5.9764   6.0349   6.0563   6.0987   6.1401   6.1605   6.2564
  6.3610   6.5034   6.5892   6.7202   6.7562   6.8252   6.8671   6.9845
  7.0191   7.0454   7.0625   7.0850   7.0992   7.1472   7.1520   7.1929
  7.2635   7.2735   7.2815   7.3127   7.3258   7.3340   7.3503   7.3928
  7.4157   7.4287   7.4685   7.4909   7.5069   7.5590   7.5876   7.6149
  7.6672   7.6884   7.7582   7.7723   7.8418   7.8655   7.8925   7.9116
  8.0219   8.2055  24.6591  24.7950  24.8571  24.9963  50.4982  50.5965
 50.6293  50.6461  50.6926  50.7206
 --------------------------------------------------------------
 
          Ground-State Mulliken Net Atomic Charges

     Atom                 Charge (a.u.)
  ----------------------------------------
      1 C                    -0.080765
      2 O                    -0.430590
      3 C                     0.071548
      4 O                    -0.394881
      5 C                    -0.344704
      6 C                     0.058667
      7 O                    -0.372669
      8 H                     0.302994
      9 H                     0.341243
     10 H                     0.250375
     11 H                     0.270476
     12 H                     0.222123
     13 O                    -0.456452
     14 H                     0.347887
     15 O                    -0.159783
     16 O                    -0.297288
     17 H                     0.331047
     18 H                     0.340770
  ----------------------------------------
  Sum of atomic charges =     0.000000

 -----------------------------------------------------------------
                    Cartesian Multipole Moments
 -----------------------------------------------------------------
    Charge (ESU x 10^10)
                -0.0000
    Dipole Moment (Debye)
         X       1.1759      Y       5.9470      Z      -3.3566
       Tot       6.9294
    Quadrupole Moments (Debye-Ang)
        XX     -46.0232     XY      26.8771     YY     -66.6752
        XZ     -13.2784     YZ      -4.2793     ZZ     -60.6570
    Octopole Moments (Debye-Ang^2)
       XXX    -528.2051    XXY     153.4964    XYY    -240.7231
       YYY     137.8620    XXZ     -73.6331    XYZ     -17.1099
       YYZ      16.1429    XZZ    -240.4659    YZZ      30.9874
       ZZZ     -27.0705
    Hexadecapole Moments (Debye-Ang^3)
      XXXX   -4375.6593   XXXY     816.2065   XXYY   -1089.2118
      XYYY     423.9334   YYYY    -708.9808   XXXZ    -519.6252
      XXYZ    -114.9763   XYYZ       9.2116   YYYZ    -156.6278
      XXZZ   -1119.2943   XYZZ      76.1002   YYZZ    -213.4904
      XZZZ    -198.7616   YZZZ    -129.7444   ZZZZ    -478.1490
 -----------------------------------------------------------------
 Calculating analytic gradient of the SCF energy
 Gradient of CDS energy
            1           2           3           4           5           6
    1  -0.0026600   0.0018613  -0.0017981   0.0018654  -0.0001734   0.0005262
    2  -0.0016302  -0.0014783  -0.0007332   0.0007107  -0.0000228   0.0001356
    3   0.0000111   0.0002885   0.0032924  -0.0035435  -0.0003012   0.0019559
            7           8           9          10          11          12
    1  -0.0000056   0.0002448  -0.0004143  -0.0002034   0.0000314   0.0000124
    2   0.0004989  -0.0000359   0.0001923  -0.0000431  -0.0000945   0.0000740
    3  -0.0011051  -0.0000100  -0.0002451  -0.0000506  -0.0001161  -0.0001342
           13          14          15          16          17          18
    1   0.0010306  -0.0002540  -0.0000904  -0.0002700  -0.0001613   0.0004585
    2   0.0031086  -0.0003689  -0.0000450  -0.0000589  -0.0001163  -0.0000928
    3  -0.0003650   0.0002143  -0.0001163   0.0000942   0.0003324  -0.0002017
 Gradient of SCF Energy
            1           2           3           4           5           6
    1  -0.0019044   0.0022455   0.0053101  -0.0016187   0.0000107  -0.0095323
    2   0.0013099   0.0010194   0.0036054  -0.0015773  -0.0126119  -0.0106414
    3   0.0040095   0.0109420  -0.0022082   0.0005660   0.0193211  -0.0058733
            7           8           9          10          11          12
    1   0.0025006   0.0001491  -0.0042940  -0.0049723   0.0086663   0.0074024
    2  -0.0028724   0.0046086  -0.0005698   0.0071659   0.0024331   0.0119335
    3   0.0055516  -0.0051095  -0.0104547  -0.0002814  -0.0129556  -0.0045456
           13          14          15          16          17          18
    1   0.0019811  -0.0016573  -0.0019519  -0.0089143  -0.0006313   0.0072108
    2  -0.0046198   0.0000070  -0.0023302  -0.0155076   0.0017301   0.0169174
    3   0.0014649  -0.0020161   0.0034707  -0.0051683   0.0001547   0.0031321
 Max gradient component =       1.932E-02
 RMS gradient           =       6.786E-03
 Computing fast CPCM-SWIG gradient
 Updating gradient with PCM contributions...
 -- total gradient after adding PCM contribution --
---------------------------------------------------
  Atom         X              Y              Z     
---------------------------------------------------
   1       0.001776       0.000408      -0.000755
   2      -0.000802      -0.001215      -0.003073
   3       0.001522       0.000611      -0.001199
   4       0.001536       0.000718       0.001371
   5       0.000152       0.000280      -0.000112
   6       0.000578      -0.001245      -0.000390
   7      -0.000260       0.001210      -0.002047
   8      -0.000819       0.000343       0.000883
   9       0.000699       0.000617       0.002170
  10       0.000858      -0.000754       0.000306
  11      -0.000100      -0.000581       0.001456
  12      -0.000660      -0.001083       0.000508
  13      -0.001510       0.000731       0.002373
  14       0.000732      -0.000732      -0.002022
  15      -0.000189       0.000539       0.000462
  16       0.001032       0.001077       0.000097
  17      -0.001072      -0.000743      -0.000667
  18      -0.003470      -0.000179       0.000639
---------------------------------------------------
 Number of fixed atoms: 0
 Gradient time:  CPU 331.81 s  wall 27.33 s
 Geometry Optimization Parameters
   NAtoms,    NIC,     NZ,  NCons,   NDum,   NFix, NCnnct, MaxDiis
       18     116       0       0       0       0       0       0

 Cartesian Hessian Update
 Hessian updated using BFGS update


** GEOMETRY OPTIMIZATION IN DELOCALIZED INTERNAL COORDINATES **
   Searching for a Minimum

   Optimization Cycle:   3

                       Coordinates (Angstroms)
     ATOM                X               Y               Z
      1  C         2.5432418639   -1.1503028130   -1.0698094431
      2  O         1.4417808303   -0.2759053245   -1.0941572346
      3  C         3.4607016437   -0.6886618112    0.0699458375
      4  O         2.7993497239   -0.9368595403    1.2714524356
      5  C         3.8983938012    0.7555746043   -0.0908665490
      6  C         4.7806790991    1.2555814933    1.0054048745
      7  O         4.8624400876    0.7394818482    2.1014882749
      8  H         3.0826875829   -1.1161599965   -2.0118862859
      9  H         0.9365048459   -0.4519980871   -1.8932330452
     10  H         3.0204850036    1.4035192951   -0.0988681305
     11  H         4.3980794257    0.9084437028   -1.0447872967
     12  H         5.3534487712    2.1645927298    0.7845082102
     13  O         2.1437867844   -2.4849137173   -0.8911442960
     14  H         1.7922849924   -2.5866212822    0.0012073324
     15  O         4.6023101626   -1.5675947970    0.1356806278
     16  O         5.3764607209   -1.4251967775   -1.0518380774
     17  H         3.3252424467   -0.5373700995    1.9806994025
     18  H         6.0165603139   -0.7467796275   -0.7990345369
   Point Group: c1    Number of degrees of freedom:    48


   Energy is   -608.538802171

 Hessian updated using BFGS update

 46 Hessian modes will be used to form the next step
  Hessian Eigenvalues:
     0.004585    0.006025    0.008719    0.008777    0.009095    0.013750
     0.014620    0.014899    0.015903    0.041957    0.050337    0.055323
     0.058369    0.062080    0.063036    0.091599    0.096702    0.098609
     0.129418    0.154734    0.163681    0.169344    0.179209    0.184378
     0.187443    0.206959    0.219951    0.222653    0.278534    0.291395
     0.310957    0.328413    0.334905    0.340291    0.343883    0.346895
     0.382684    0.409909    0.440555    0.443602    0.456640    0.493006
     0.522567    0.523910    0.531202    0.929038

 Minimum search - taking simple RFO step
 Searching for Lamda that Minimizes Along All modes
 Value Taken    Lamda =  -0.00072874
 Step Taken.  Stepsize is  0.162485

                             Maximum     Tolerance    Cnvgd?
         Gradient           0.007371      0.000300      NO
         Displacement       0.104181      0.001200      NO
         Energy change      0.000236      0.000001      NO


 New Cartesian Coordinates Obtained by Inverse Iteration

 Displacement from previous Coordinates is:  0.300308
 ----------------------------------------------------------------
             Standard Nuclear Orientation (Angstroms)
    I     Atom           X                Y                Z
 ----------------------------------------------------------------
    1      C       2.5386662917    -1.1452788140    -1.0709030284
    2      O       1.4339799010    -0.2741460547    -1.0804331991
    3      C       3.4618075998    -0.6828110684     0.0632365475
    4      O       2.8061088583    -0.9368723903     1.2663792691
    5      C       3.8903023704     0.7661126825    -0.0929606446
    6      C       4.7608486645     1.2688771107     1.0139696025
    7      O       4.8408632217     0.7443970310     2.1076910449
    8      H       3.0727230760    -1.1080387204    -2.0177097522
    9      H       0.9254779835    -0.4507138908    -1.8797109064
   10      H       3.0056821574     1.4075147974    -0.1038638951
   11      H       4.3932034436     0.9267762650    -1.0458757896
   12      H       5.3295800812     2.1843110909     0.8007085803
   13      O       2.1500954701    -2.4824819291    -0.8904177950
   14      H       1.8066252057    -2.5776710844     0.0076993159
   15      O       4.6063092257    -1.5606372727     0.1209413984
   16      O       5.3718084466    -1.4268981350    -1.0747559333
   17      H       3.3382313617    -0.5360426273     1.9721452447
   18      H       6.1021247410    -0.8575671905    -0.7913779596
 ----------------------------------------------------------------
 Nuclear Repulsion Energy =         616.85227483 hartrees
 There are       40 alpha and       40 beta electrons
 Discretize the solute cavity surface with Lebedev spheres
	Using 110 Lebedev grid points for each H atom
	Using 194 Lebedev grid points for other atoms
	Atomic van der Waals radii will be scaled by 1.20
 Remove points where switching function is < 1.0e-08
 Keep 1410 surface tesserae and discard 1410 interior tesserae
 Molecular Surface Area = 157.454 Angst**2
 Applying Cartesian multipole field
    Component          Value
    ---------          -----
     (2,0,0)        1.00000E-12
     (0,2,0)        2.00000E-11
     (0,0,2)       -3.00000E-11
 Nucleus-field energy     =     0.0000000032 hartrees
 Requested basis set is 6-311++G(2df,2p)
 There are 128 shells and 420 basis functions
 A cutoff of  1.0D-12 yielded   7422 shell pairs
 There are     80054 function pairs (     99866 Cartesian)
 Smallest overlap matrix eigenvalue = 6.51E-06
 Guess MOs from SCF MO coefficient file

 -----------------------------------------------------------------------
  General SCF calculation program by
  Eric Jon Sundstrom, Paul Horn, Yuezhi Mao, Dmitri Zuev, Alec White,
  David Stuck, Shaama M.S., Shane Yost, Joonho Lee, David Small,
  Daniel Levine, Susi Lehtola, Hugh Burton, Evgeny Epifanovsky,
  Bang C. Huynh
 -----------------------------------------------------------------------
 Exchange:     0.1500 Hartree-Fock + 1.0000 wB97M-V + LR-HF
 Correlation:  1.0000 wB97M-V
 Using SG-2 standard quadrature grid
 Nonlocal Correlation:  VV10 with C = 0.0100 and b = 6.00 and scale = 1.00000
 Grid used for NLC:  SG-1 standard quadrature
 
 Citation of the SMD model:
 Marenich, A.V.; Cramer, C.J.; Truhlar, D.G.
 J. Phys. Chem. B 2009, 113, 6378-6396.
 iSolventCode=           1
 Solvent: water                                                           
 
 vradii
            1           2           3           4           5           6
    1   1.8500000   1.5200000   1.8500000   1.5200000   1.8500000   1.8500000
            7           8           9          10          11          12
    1   1.5200000   1.2000000   1.2000000   1.2000000   1.2000000   1.2000000
           13          14          15          16          17          18
    1   1.5200000   1.2000000   1.5200000   1.5200000   1.2000000   1.2000000
 -------------------------------------------------------
 OpenMP BLAS3 based DFT computing Module                
 Release: version 1.0, May 2013, Q-Chem Inc. Pittsburgh 
 -------------------------------------------------------
 A restricted SCF calculation will be
 performed using Roothaan-Hall, DIIS, GDM
 SCF converges when RMS gradient is below 1.0e-07
 ---------------------------------------
  Cycle       Energy         DIIS error
 ---------------------------------------
    1    -608.4909617329      6.22e-04  Roothaan Step
 ---------------------------------------
  Cycle       Energy         DIIS error
 ---------------------------------------
    1    -608.5343032617      6.08e-04  
    2    -608.5409262442      5.85e-04  Done DIIS. Switching to GDM
 ---------------------------------------
  Cycle       Energy        RMS Gradient
 ---------------------------------------
    1    -608.5409262442      1.93e-02   Normal BFGS step
    2    -608.5390971177      2.96e-02  Line search: overstep
    3    -608.5458563871      1.37e-03   Normal BFGS step
    4    -608.5461419256      6.29e-04   Normal BFGS step
    5    -608.5461912267      7.56e-04   Normal BFGS step
    6    -608.5461997936      8.79e-05   Normal BFGS step
    7    -608.5462004489      6.85e-05   Normal BFGS step
    8    -608.5462006988      3.81e-05   Normal BFGS step
    9    -608.5462007125      2.13e-05   Normal BFGS step
   10    -608.5462007197      1.06e-05   Normal BFGS step
   11    -608.5462007207      3.93e-06   Normal BFGS step
   12    -608.5462007210      1.09e-06   Normal BFGS step
   13    -608.5462007210      2.05e-07   Normal BFGS step
   14    -608.5462007210      1.04e-07   Normal BFGS step
   15    -608.5462007210      4.49e-08  Convergence criterion met
 ---------------------------------------
 SCF time:   CPU 1875.11s  wall 130.00s 
(3)  G-ENP(liq) elect-nuc-pol free energy of system     -608.546200721 a.u.
(4)  G-CDS(liq) cavity-dispersion-solvent structure 
     free energy                                                4.4233 kcal/mol
(6)  G-S(liq) free energy of system                     -608.539151728 a.u.
 SCF   energy in the final basis set =     -608.5391517280
 Total energy in the final basis set =     -608.5391517280
 
 --------------------------------------------------------------
 
                    Orbital Energies (a.u.)
 --------------------------------------------------------------
 
 Alpha MOs
 -- Occupied --
-19.4049 -19.3989 -19.3567 -19.3522 -19.3485 -19.3474 -10.4679 -10.4495
-10.4488 -10.3534  -1.2802  -1.2133  -1.2010  -1.1797  -1.1383  -1.0395
 -0.9133  -0.8384  -0.7457  -0.7149  -0.6928  -0.6539  -0.6384  -0.6194
 -0.5951  -0.5828  -0.5738  -0.5663  -0.5509  -0.5379  -0.5292  -0.4847
 -0.4773  -0.4602  -0.4453  -0.4329  -0.4149  -0.4109  -0.3982  -0.3713
 -- Virtual --
  0.0253   0.0363   0.0417   0.0421   0.0481   0.0633   0.0681   0.0702
  0.0773   0.0953   0.1079   0.1170   0.1218   0.1342   0.1361   0.1420
  0.1507   0.1576   0.1617   0.1644   0.1734   0.1814   0.1878   0.2000
  0.2010   0.2093   0.2174   0.2333   0.2376   0.2512   0.2603   0.2730
  0.2766   0.2775   0.2848   0.2887   0.2982   0.3057   0.3100   0.3240
  0.3255   0.3312   0.3395   0.3445   0.3474   0.3552   0.3642   0.3661
  0.3774   0.3798   0.3893   0.3912   0.3959   0.4092   0.4130   0.4226
  0.4275   0.4380   0.4431   0.4551   0.4657   0.4745   0.4847   0.4939
  0.5158   0.5315   0.5749   0.5829   0.5858   0.6055   0.6188   0.6233
  0.6339   0.6496   0.6512   0.6708   0.6766   0.6822   0.6978   0.7152
  0.7240   0.7294   0.7548   0.7590   0.7787   0.7853   0.7977   0.8058
  0.8354   0.8454   0.8693   0.8814   0.8898   0.9366   0.9477   0.9522
  0.9718   0.9873   1.0057   1.0490   1.0551   1.0723   1.0745   1.0966
  1.1138   1.1252   1.1268   1.1429   1.1539   1.1610   1.1734   1.1825
  1.1867   1.1982   1.2053   1.2139   1.2248   1.2473   1.2500   1.2569
  1.2649   1.2813   1.3009   1.3061   1.3181   1.3284   1.3411   1.3514
  1.3710   1.3830   1.3921   1.4047   1.4195   1.4397   1.4663   1.4676
  1.4719   1.4993   1.5117   1.5230   1.5426   1.5539   1.5613   1.5867
  1.5946   1.6215   1.6312   1.6684   1.6765   1.6858   1.7001   1.7164
  1.7420   1.7682   1.7859   1.8028   1.8265   1.8544   1.9014   1.9128
  1.9361   1.9581   1.9747   1.9975   2.0109   2.0458   2.0679   2.0806
  2.1146   2.1370   2.2140   2.2306   2.2571   2.2808   2.3024   2.3379
  2.3649   2.3841   2.4011   2.4553   2.4701   2.4835   2.4901   2.5214
  2.5489   2.5688   2.6024   2.6220   2.6530   2.6952   2.7698   2.7927
  2.8198   2.8426   2.8522   2.8691   2.8909   2.9063   2.9335   2.9746
  3.0046   3.0505   3.0671   3.0981   3.1214   3.1677   3.1861   3.2141
  3.2454   3.2781   3.2957   3.3136   3.3461   3.3599   3.3752   3.3974
  3.4302   3.4359   3.4572   3.4664   3.5108   3.5538   3.5894   3.6027
  3.6174   3.6256   3.6478   3.6717   3.6896   3.7123   3.7424   3.7463
  3.7676   3.7822   3.8092   3.8392   3.8449   3.8453   3.8620   3.8781
  3.9103   3.9281   3.9358   3.9483   3.9746   4.0097   4.0265   4.0460
  4.0634   4.0991   4.1309   4.1448   4.1709   4.2130   4.2272   4.2520
  4.2598   4.2685   4.3000   4.3251   4.3608   4.3695   4.4054   4.4240
  4.4356   4.4465   4.4646   4.5496   4.5667   4.5978   4.6108   4.6797
  4.7171   4.7374   4.7569   4.8171   4.8583   4.8818   5.0113   5.0487
  5.0834   5.1655   5.1995   5.2127   5.2169   5.2381   5.2465   5.2529
  5.2799   5.2884   5.2989   5.3212   5.3350   5.3494   5.3639   5.3826
  5.3889   5.4137   5.4238   5.4453   5.4678   5.4908   5.5067   5.5378
  5.5505   5.5646   5.5850   5.5915   5.6100   5.6236   5.6415   5.6553
  5.6712   5.6844   5.7134   5.7770   5.7837   5.7899   5.8210   5.8734
  5.9181   5.9740   6.0309   6.0496   6.0947   6.1394   6.1630   6.2543
  6.3554   6.4993   6.5887   6.7130   6.7555   6.8234   6.8638   6.9829
  7.0207   7.0430   7.0656   7.0846   7.0993   7.1407   7.1504   7.1927
  7.2557   7.2696   7.2787   7.3092   7.3211   7.3302   7.3490   7.3869
  7.4133   7.4256   7.4679   7.5015   7.5088   7.5590   7.5882   7.6096
  7.6681   7.6868   7.7576   7.7713   7.8432   7.8642   7.8941   7.9124
  8.0210   8.2040  24.6545  24.7903  24.8561  24.9880  50.4961  50.5955
 50.6289  50.6453  50.6928  50.7195
 --------------------------------------------------------------
 
          Ground-State Mulliken Net Atomic Charges

     Atom                 Charge (a.u.)
  ----------------------------------------
      1 C                    -0.098664
      2 O                    -0.431008
      3 C                     0.083877
      4 O                    -0.395699
      5 C                    -0.310187
      6 C                     0.045344
      7 O                    -0.373584
      8 H                     0.302150
      9 H                     0.340946
     10 H                     0.250926
     11 H                     0.255307
     12 H                     0.222320
     13 O                    -0.454952
     14 H                     0.348160
     15 O                    -0.160516
     16 O                    -0.296278
     17 H                     0.331434
     18 H                     0.340425
  ----------------------------------------
  Sum of atomic charges =     0.000000

 -----------------------------------------------------------------
                    Cartesian Multipole Moments
 -----------------------------------------------------------------
    Charge (ESU x 10^10)
                -0.0000
    Dipole Moment (Debye)
         X       1.4076      Y       5.7845      Z      -3.2989
       Tot       6.8062
    Quadrupole Moments (Debye-Ang)
        XX     -43.2611     XY      25.5074     YY     -66.4749
        XZ     -12.8834     YZ      -4.2311     ZZ     -60.9066
    Octopole Moments (Debye-Ang^2)
       XXX    -502.5967    XXY     143.2914    XYY    -238.6152
       YYY     137.5785    XXZ     -71.8133    XYZ     -16.5611
       YYZ      16.3764    XZZ    -241.0867    YZZ      30.7716
       ZZZ     -26.7035
    Hexadecapole Moments (Debye-Ang^3)
      XXXX   -4161.7806   XXXY     745.0674   XXYY   -1074.2781
      XYYY     423.1796   YYYY    -711.1528   XXXZ    -512.2352
      XXYZ    -110.5021   XYYZ      10.5573   YYYZ    -158.4515
      XXZZ   -1119.8178   XYZZ      75.8540   YYZZ    -214.0160
      XZZZ    -195.0818   YZZZ    -131.8640   ZZZZ    -481.8511
 -----------------------------------------------------------------
 Calculating analytic gradient of the SCF energy
 Gradient of CDS energy
            1           2           3           4           5           6
    1  -0.0026175   0.0018082  -0.0017843   0.0018497  -0.0001777   0.0005215
    2  -0.0017578  -0.0014287  -0.0007504   0.0007281  -0.0000252   0.0001287
    3   0.0000413   0.0002702   0.0033005  -0.0035513  -0.0003039   0.0019749
            7           8           9          10          11          12
    1  -0.0000060   0.0002515  -0.0004165  -0.0002031   0.0000323   0.0000146
    2   0.0005136  -0.0000465   0.0001919  -0.0000444  -0.0000917   0.0000775
    3  -0.0011138  -0.0000086  -0.0002412  -0.0000516  -0.0001325  -0.0001327
           13          14          15          16          17          18
    1   0.0010355  -0.0002514  -0.0001039  -0.0002781  -0.0001563   0.0004816
    2   0.0031968  -0.0003683  -0.0000454  -0.0000340  -0.0001189  -0.0001254
    3  -0.0003834   0.0002163  -0.0001217   0.0001007   0.0003289  -0.0001922
 Gradient of SCF Energy
            1           2           3           4           5           6
    1  -0.0028756   0.0030462   0.0032130  -0.0026412   0.0005071  -0.0096110
    2   0.0005130   0.0025962   0.0025821  -0.0017330  -0.0120056  -0.0094222
    3   0.0044984   0.0136224  -0.0010844  -0.0001236   0.0174704  -0.0043592
            7           8           9          10          11          12
    1   0.0023902   0.0007475  -0.0048015  -0.0054558   0.0078372   0.0078226
    2  -0.0039317   0.0040817  -0.0012942   0.0074552   0.0032115   0.0124806
    3   0.0069981  -0.0054668  -0.0120361  -0.0004852  -0.0138673  -0.0048991
           13          14          15          16          17          18
    1   0.0032950  -0.0019664  -0.0024179  -0.0114888   0.0001158   0.0122835
    2  -0.0051446   0.0007769  -0.0028250  -0.0142930   0.0020587   0.0148932
    3  -0.0003898  -0.0006624   0.0034848  -0.0062617   0.0002498   0.0033118
 Max gradient component =       1.747E-02
 RMS gradient           =       6.962E-03
 Computing fast CPCM-SWIG gradient
 Updating gradient with PCM contributions...
 -- total gradient after adding PCM contribution --
---------------------------------------------------
  Atom         X              Y              Z     
---------------------------------------------------
   1      -0.000111      -0.000272      -0.000048
   2       0.000032       0.000317      -0.000340
   3       0.000305      -0.000140      -0.000264
   4       0.000438       0.000442       0.000398
   5      -0.000157       0.000122      -0.000088
   6      -0.000158      -0.000016       0.000414
   7      -0.000186      -0.000035      -0.000424
   8       0.000009      -0.000084       0.000275
   9       0.000177      -0.000095       0.000463
  10       0.000107      -0.000171       0.000147
  11      -0.000148       0.000033       0.000020
  12       0.000037      -0.000229      -0.000050
  13      -0.000009       0.000338       0.000329
  14       0.000310       0.000054      -0.000451
  15      -0.000276       0.000118       0.000033
  16       0.000228       0.000136      -0.000015
  17      -0.000262      -0.000236      -0.000354
  18      -0.000334      -0.000282      -0.000045
---------------------------------------------------
 Number of fixed atoms: 0
 Gradient time:  CPU 332.34 s  wall 27.39 s
 Geometry Optimization Parameters
   NAtoms,    NIC,     NZ,  NCons,   NDum,   NFix, NCnnct, MaxDiis
       18     116       0       0       0       0       0       0

 Cartesian Hessian Update
 Hessian updated using BFGS update


** GEOMETRY OPTIMIZATION IN DELOCALIZED INTERNAL COORDINATES **
   Searching for a Minimum

   Optimization Cycle:   4

                       Coordinates (Angstroms)
     ATOM                X               Y               Z
      1  C         2.5386662917   -1.1452788140   -1.0709030284
      2  O         1.4339799010   -0.2741460547   -1.0804331991
[...]
  0.4269   0.4372   0.4429   0.4544   0.4661   0.4750   0.4839   0.4942
  0.5163   0.5333   0.5750   0.5824   0.5845   0.6051   0.6185   0.6232
  0.6348   0.6496   0.6505   0.6717   0.6766   0.6810   0.6975   0.7148
  0.7249   0.7272   0.7544   0.7596   0.7789   0.7837   0.7972   0.8062
  0.8358   0.8478   0.8714   0.8789   0.8901   0.9346   0.9498   0.9512
  0.9722   0.9871   1.0037   1.0477   1.0531   1.0743   1.0757   1.0978
  1.1147   1.1244   1.1280   1.1427   1.1529   1.1618   1.1727   1.1832
  1.1864   1.1987   1.2060   1.2124   1.2251   1.2473   1.2483   1.2571
  1.2657   1.2805   1.2993   1.3053   1.3185   1.3267   1.3407   1.3522
  1.3696   1.3834   1.3909   1.4060   1.4204   1.4383   1.4650   1.4662
  1.4717   1.4993   1.5110   1.5200   1.5418   1.5543   1.5590   1.5886
  1.5947   1.6195   1.6290   1.6687   1.6747   1.6861   1.6980   1.7153
  1.7424   1.7693   1.7892   1.8034   1.8245   1.8569   1.8983   1.9137
  1.9358   1.9643   1.9736   1.9988   2.0102   2.0457   2.0648   2.0792
  2.1117   2.1366   2.2117   2.2281   2.2558   2.2810   2.2998   2.3374
  2.3643   2.3844   2.4017   2.4538   2.4701   2.4828   2.4897   2.5209
  2.5456   2.5685   2.6010   2.6205   2.6532   2.6959   2.7681   2.7960
  2.8153   2.8413   2.8530   2.8695   2.8913   2.9101   2.9317   2.9742
  3.0042   3.0502   3.0653   3.0988   3.1207   3.1669   3.1874   3.2145
  3.2444   3.2769   3.2981   3.3098   3.3462   3.3578   3.3744   3.3995
  3.4289   3.4372   3.4588   3.4668   3.5105   3.5529   3.5908   3.6006
  3.6184   3.6271   3.6458   3.6717   3.6882   3.7113   3.7410   3.7485
  3.7679   3.7805   3.8077   3.8380   3.8428   3.8445   3.8620   3.8783
  3.9113   3.9282   3.9353   3.9474   3.9766   4.0099   4.0267   4.0454
  4.0648   4.0991   4.1269   4.1429   4.1705   4.2114   4.2254   4.2519
  4.2590   4.2672   4.3009   4.3218   4.3570   4.3687   4.4049   4.4208
  4.4338   4.4458   4.4642   4.5446   4.5681   4.5961   4.6086   4.6803
  4.7170   4.7388   4.7562   4.8174   4.8566   4.8804   5.0112   5.0489
  5.0830   5.1643   5.2002   5.2141   5.2174   5.2380   5.2453   5.2523
  5.2793   5.2894   5.3000   5.3185   5.3346   5.3499   5.3644   5.3801
  5.3895   5.4129   5.4231   5.4449   5.4665   5.4941   5.5061   5.5391
  5.5501   5.5594   5.5784   5.5901   5.6080   5.6222   5.6410   5.6542
  5.6681   5.6839   5.7127   5.7755   5.7837   5.7880   5.8197   5.8731
  5.9180   5.9740   6.0334   6.0471   6.0944   6.1398   6.1609   6.2537
  6.3560   6.4977   6.5890   6.7138   6.7545   6.8222   6.8645   6.9842
  7.0199   7.0422   7.0631   7.0837   7.1000   7.1402   7.1490   7.1909
  7.2523   7.2678   7.2773   7.3094   7.3196   7.3296   7.3474   7.3857
  7.4121   7.4248   7.4667   7.5006   7.5067   7.5583   7.5864   7.6096
  7.6664   7.6844   7.7577   7.7712   7.8441   7.8627   7.8946   7.9122
  8.0210   8.2038  24.6545  24.7874  24.8537  24.9876  50.4956  50.5946
 50.6293  50.6442  50.6922  50.7185
 --------------------------------------------------------------
 
          Ground-State Mulliken Net Atomic Charges

     Atom                 Charge (a.u.)
  ----------------------------------------
      1 C                    -0.101211
      2 O                    -0.430369
      3 C                     0.094273
      4 O                    -0.396652
      5 C                    -0.309746
      6 C                     0.042603
      7 O                    -0.376223
      8 H                     0.302127
      9 H                     0.340168
     10 H                     0.249534
     11 H                     0.255014
     12 H                     0.222955
     13 O                    -0.456100
     14 H                     0.348817
     15 O                    -0.159504
     16 O                    -0.298122
     17 H                     0.331335
     18 H                     0.341102
  ----------------------------------------
  Sum of atomic charges =     0.000000

 -----------------------------------------------------------------
                    Cartesian Multipole Moments
 -----------------------------------------------------------------
    Charge (ESU x 10^10)
                -0.0000
    Dipole Moment (Debye)
         X       1.3347      Y       5.8923      Z      -3.3852
       Tot       6.9253
    Quadrupole Moments (Debye-Ang)
        XX     -44.0307     XY      25.8169     YY     -66.5899
        XZ     -13.2039     YZ      -4.3590     ZZ     -60.7279
    Octopole Moments (Debye-Ang^2)
       XXX    -508.2859    XXY     144.4057    XYY    -239.3849
       YYY     138.5083    XXZ     -73.4223    XYZ     -16.7668
       YYZ      16.4101    XZZ    -240.8219    YZZ      31.2605
       ZZZ     -27.2686
    Hexadecapole Moments (Debye-Ang^3)
      XXXX   -4202.5678   XXXY     748.9096   XXYY   -1078.8241
      XYYY     427.1433   YYYY    -714.7842   XXXZ    -522.4967
      XXYZ    -111.5693   XYYZ      10.5223   YYYZ    -158.8029
      XXZZ   -1120.4734   XYZZ      76.5706   YYZZ    -214.9100
      XZZZ    -196.7718   YZZZ    -132.6551   ZZZZ    -479.3961
 -----------------------------------------------------------------
 Calculating analytic gradient of the SCF energy
 Gradient of CDS energy
            1           2           3           4           5           6
    1  -0.0025904   0.0018440  -0.0017954   0.0018594  -0.0001736   0.0005427
    2  -0.0015930  -0.0014404  -0.0007549   0.0007296  -0.0000235   0.0001230
    3   0.0000242   0.0002547   0.0033338  -0.0035825  -0.0003046   0.0019727
            7           8           9          10          11          12
    1  -0.0000257   0.0002499  -0.0004093  -0.0002016   0.0000260   0.0000114
    2   0.0005206  -0.0000484   0.0002003  -0.0000426  -0.0000983   0.0000800
    3  -0.0011142  -0.0000104  -0.0002451  -0.0000542  -0.0001310  -0.0001300
           13          14          15          16          17          18
    1   0.0009706  -0.0002509  -0.0001056  -0.0002780  -0.0001552   0.0004816
    2   0.0030434  -0.0003705  -0.0000478  -0.0000346  -0.0001201  -0.0001229
    3  -0.0003461   0.0002143  -0.0001207   0.0001007   0.0003300  -0.0001918
 Gradient of SCF Energy
            1           2           3           4           5           6
    1  -0.0028879   0.0028670   0.0030748  -0.0030620   0.0003583  -0.0091035
    2   0.0006810   0.0017574   0.0026506  -0.0023396  -0.0118500  -0.0096291
    3   0.0049019   0.0146610  -0.0010993  -0.0005984   0.0182858  -0.0050343
            7           8           9          10          11          12
    1   0.0027784   0.0007636  -0.0047972  -0.0056890   0.0081686   0.0073827
    2  -0.0040056   0.0043430  -0.0007151   0.0078335   0.0030462   0.0128922
    3   0.0074526  -0.0060225  -0.0130500  -0.0009140  -0.0139886  -0.0047936
           13          14          15          16          17          18
    1   0.0034332  -0.0023895  -0.0021267  -0.0116220   0.0003683   0.0124829
    2  -0.0054899   0.0007316  -0.0029440  -0.0146048   0.0023389   0.0153037
    3  -0.0007335  -0.0002000   0.0034861  -0.0061424   0.0006288   0.0031605
 Max gradient component =       1.829E-02
 RMS gradient           =       7.166E-03
 Computing fast CPCM-SWIG gradient
 Updating gradient with PCM contributions...
 -- total gradient after adding PCM contribution --
---------------------------------------------------
  Atom         X              Y              Z     
---------------------------------------------------
   1       0.000007       0.000039       0.000006
   2       0.000012       0.000002       0.000021
   3      -0.000077       0.000071       0.000026
   4       0.000009      -0.000041      -0.000054
   5       0.000027      -0.000005      -0.000003
   6      -0.000016       0.000035      -0.000016
   7       0.000025      -0.000035       0.000033
   8      -0.000005       0.000024      -0.000014
   9      -0.000020       0.000024      -0.000001
  10       0.000001       0.000009       0.000023
  11      -0.000009       0.000008       0.000009
  12       0.000026      -0.000020       0.000011
  13      -0.000007      -0.000028      -0.000003
  14      -0.000035      -0.000002       0.000003
  15       0.000055      -0.000066      -0.000024
  16      -0.000007      -0.000018      -0.000032
  17       0.000021      -0.000000       0.000022
  18      -0.000008       0.000005      -0.000007
---------------------------------------------------
 Number of fixed atoms: 0
 Gradient time:  CPU 330.37 s  wall 27.30 s
 Geometry Optimization Parameters
   NAtoms,    NIC,     NZ,  NCons,   NDum,   NFix, NCnnct, MaxDiis
       18     116       0       0       0       0       0       0

 Cartesian Hessian Update
 Hessian updated using BFGS update


** GEOMETRY OPTIMIZATION IN DELOCALIZED INTERNAL COORDINATES **
   Searching for a Minimum

   Optimization Cycle:  10

                       Coordinates (Angstroms)
     ATOM                X               Y               Z
      1  C         2.5361058953   -1.1475803322   -1.0662123674
      2  O         1.4253313362   -0.2844916275   -1.0660045915
      3  C         3.4624552200   -0.6856090019    0.0667181103
      4  O         2.8088280165   -0.9389126783    1.2708508176
      5  C         3.8947726596    0.7619327028   -0.0936823989
      6  C         4.7570987632    1.2753434574    1.0144899431
      7  O         4.8558726516    0.7454494453    2.1042928906
      8  H         3.0653133528   -1.1010574819   -2.0156224649
      9  H         0.9375509682   -0.4270607252   -1.8851207155
     10  H         3.0131058850    1.4072196480   -0.1228075015
     11  H         4.4097833499    0.9134898896   -1.0421221022
     12  H         5.3014857602    2.2067703463    0.8053098935
     13  O         2.1555741998   -2.4887138467   -0.8921440399
     14  H         1.7902288268   -2.5846491397   -0.0022523462
     15  O         4.6077080137   -1.5643849674    0.1226091115
     16  O         5.3711690753   -1.4323438833   -1.0744107584
     17  H         3.3429888730   -0.5396131990    1.9764485467
     18  H         6.0990652527   -0.8569588065   -0.7955779268
   Point Group: c1    Number of degrees of freedom:    48


   Energy is   -608.539178195

 Hessian updated using BFGS update

 48 Hessian modes will be used to form the next step
  Hessian Eigenvalues:
     0.001587    0.004960    0.007046    0.010702    0.011356    0.013982
     0.014804    0.015630    0.040551    0.048860    0.052313    0.056321
     0.059303    0.062990    0.063599    0.092391    0.096466    0.108627
     0.131592    0.158326    0.159664    0.162541    0.167726    0.178749
     0.183049    0.185491    0.197325    0.208456    0.221107    0.274785
     0.298490    0.304610    0.312816    0.334580    0.339170    0.343340
     0.346527    0.375719    0.388981    0.407268    0.442013    0.451070
     0.467371    0.491817    0.520422    0.523305    0.529906    0.932561

 Minimum search - taking simple RFO step
 Searching for Lamda that Minimizes Along All modes
 Value Taken    Lamda =  -0.00000016
 Step Taken.  Stepsize is  0.003564

                             Maximum     Tolerance    Cnvgd?
         Gradient           0.000050      0.000300     YES
         Displacement       0.001452      0.001200      NO
         Energy change     -0.000001      0.000001     YES

 Final energy is   -608.539178194787     


 ******************************
 **  OPTIMIZATION CONVERGED  **
 ******************************

                       Coordinates (Angstroms)
     ATOM                X               Y               Z
      1  C         2.5361058953   -1.1475803322   -1.0662123674
      2  O         1.4253313362   -0.2844916275   -1.0660045915
      3  C         3.4624552200   -0.6856090019    0.0667181103
      4  O         2.8088280165   -0.9389126783    1.2708508176
      5  C         3.8947726596    0.7619327028   -0.0936823989
      6  C         4.7570987632    1.2753434574    1.0144899431
      7  O         4.8558726516    0.7454494453    2.1042928906
      8  H         3.0653133528   -1.1010574819   -2.0156224649
      9  H         0.9375509682   -0.4270607252   -1.8851207155
     10  H         3.0131058850    1.4072196480   -0.1228075015
     11  H         4.4097833499    0.9134898896   -1.0421221022
     12  H         5.3014857602    2.2067703463    0.8053098935
     13  O         2.1555741998   -2.4887138467   -0.8921440399
     14  H         1.7902288268   -2.5846491397   -0.0022523462
     15  O         4.6077080137   -1.5643849674    0.1226091115
     16  O         5.3711690753   -1.4323438833   -1.0744107584
     17  H         3.3429888730   -0.5396131990    1.9764485467
     18  H         6.0990652527   -0.8569588065   -0.7955779268

Z-matrix Print:
$molecule
0 1
O 
O  1 1.425891
H  2 0.968839 1 102.454300
C  1 1.444637 2 109.612523 3 100.846448 0
O  4 1.393315 1 103.171893 2 178.893400 0
H  5 0.970894 4 107.170058 1 72.395206 0
C  4 1.519212 1 110.983330 2 -59.269662 0
H  7 1.089836 4 111.030275 1 63.792577 0
H  7 1.092968 4 109.621646 1 -179.406925 0
C  7 1.495073 4 114.398155 1 -60.015454 0
H  10 1.098940 7 115.829184 4 164.182156 0
O  10 1.215818 7 124.165391 4 -17.470811 0
C  4 1.534624 1 108.903791 2 64.943919 0
H  13 1.087936 4 109.739639 1 -60.737421 0
O  13 1.404900 4 111.063329 1 56.506366 0
H  15 0.966741 13 108.128265 4 53.027162 0
O  13 1.406678 4 106.968318 1 178.788317 0
H  17 0.963954 13 107.981144 4 167.216852 0
$end

 
 --------------------------------------------------------------
 
                    Orbital Energies (a.u.)
 --------------------------------------------------------------
 
 Alpha MOs
 -- Occupied --
-19.4047 -19.3988 -19.3569 -19.3520 -19.3487 -19.3473 -10.4678 -10.4494
-10.4490 -10.3535  -1.2799  -1.2131  -1.2006  -1.1797  -1.1381  -1.0391
 -0.9133  -0.8383  -0.7456  -0.7146  -0.6926  -0.6542  -0.6377  -0.6193
 -0.5950  -0.5828  -0.5737  -0.5667  -0.5506  -0.5377  -0.5286  -0.4845
 -0.4769  -0.4596  -0.4453  -0.4339  -0.4142  -0.4111  -0.3981  -0.3712
 -- Virtual --
  0.0253   0.0364   0.0416   0.0424   0.0482   0.0633   0.0681   0.0703
  0.0774   0.0952   0.1078   0.1167   0.1219   0.1342   0.1359   0.1418
  0.1505   0.1575   0.1619   0.1641   0.1732   0.1813   0.1879   0.1996
  0.2012   0.2096   0.2165   0.2335   0.2382   0.2506   0.2602   0.2728
  0.2764   0.2782   0.2843   0.2887   0.2983   0.3047   0.3099   0.3247
  0.3254   0.3307   0.3388   0.3439   0.3481   0.3555   0.3643   0.3662
  0.3769   0.3796   0.3887   0.3908   0.3961   0.4090   0.4131   0.4227
  0.4269   0.4372   0.4429   0.4544   0.4661   0.4750   0.4839   0.4942
  0.5163   0.5333   0.5750   0.5824   0.5845   0.6051   0.6185   0.6232
  0.6348   0.6496   0.6505   0.6717   0.6766   0.6810   0.6975   0.7148
  0.7249   0.7272   0.7544   0.7596   0.7789   0.7837   0.7972   0.8062
  0.8358   0.8478   0.8714   0.8789   0.8901   0.9346   0.9498   0.9512
  0.9722   0.9871   1.0037   1.0477   1.0531   1.0743   1.0757   1.0978
  1.1147   1.1244   1.1280   1.1427   1.1529   1.1618   1.1727   1.1832
  1.1864   1.1987   1.2060   1.2124   1.2251   1.2473   1.2483   1.2571
  1.2657   1.2805   1.2993   1.3053   1.3185   1.3267   1.3407   1.3522
  1.3696   1.3834   1.3909   1.4060   1.4204   1.4383   1.4650   1.4662
  1.4717   1.4993   1.5110   1.5200   1.5418   1.5543   1.5590   1.5886
  1.5947   1.6195   1.6290   1.6687   1.6747   1.6861   1.6980   1.7153
  1.7424   1.7693   1.7892   1.8034   1.8245   1.8569   1.8983   1.9137
  1.9358   1.9643   1.9736   1.9988   2.0102   2.0457   2.0648   2.0792
  2.1117   2.1366   2.2117   2.2281   2.2558   2.2810   2.2998   2.3374
  2.3643   2.3844   2.4017   2.4538   2.4701   2.4828   2.4897   2.5209
  2.5456   2.5685   2.6010   2.6205   2.6532   2.6959   2.7681   2.7960
  2.8153   2.8413   2.8530   2.8695   2.8913   2.9101   2.9317   2.9742
  3.0042   3.0502   3.0653   3.0988   3.1207   3.1669   3.1874   3.2145
  3.2444   3.2769   3.2981   3.3098   3.3462   3.3578   3.3744   3.3995
  3.4289   3.4372   3.4588   3.4668   3.5105   3.5529   3.5908   3.6006
  3.6184   3.6271   3.6458   3.6717   3.6882   3.7113   3.7410   3.7485
  3.7679   3.7805   3.8077   3.8380   3.8428   3.8445   3.8620   3.8783
  3.9113   3.9282   3.9353   3.9474   3.9766   4.0099   4.0267   4.0454
  4.0648   4.0991   4.1269   4.1429   4.1705   4.2114   4.2254   4.2519
  4.2590   4.2672   4.3009   4.3218   4.3570   4.3687   4.4049   4.4208
  4.4338   4.4458   4.4642   4.5446   4.5681   4.5961   4.6086   4.6803
  4.7170   4.7388   4.7562   4.8174   4.8566   4.8804   5.0112   5.0489
  5.0830   5.1643   5.2002   5.2141   5.2174   5.2380   5.2453   5.2523
  5.2793   5.2894   5.3000   5.3185   5.3346   5.3499   5.3644   5.3801
  5.3895   5.4129   5.4231   5.4449   5.4665   5.4941   5.5061   5.5391
  5.5501   5.5594   5.5784   5.5901   5.6080   5.6222   5.6410   5.6542
  5.6681   5.6839   5.7127   5.7755   5.7837   5.7880   5.8197   5.8731
  5.9180   5.9740   6.0334   6.0471   6.0944   6.1398   6.1609   6.2537
  6.3560   6.4977   6.5890   6.7138   6.7545   6.8222   6.8645   6.9842
  7.0199   7.0422   7.0631   7.0837   7.1000   7.1402   7.1490   7.1909
  7.2523   7.2678   7.2773   7.3094   7.3196   7.3296   7.3474   7.3857
  7.4121   7.4248   7.4667   7.5006   7.5067   7.5583   7.5864   7.6096
  7.6664   7.6844   7.7577   7.7712   7.8441   7.8627   7.8946   7.9122
  8.0210   8.2038  24.6545  24.7874  24.8537  24.9876  50.4956  50.5946
 50.6293  50.6442  50.6922  50.7185
 --------------------------------------------------------------
 
          Ground-State Mulliken Net Atomic Charges

     Atom                 Charge (a.u.)
  ----------------------------------------
      1 C                    -0.101211
      2 O                    -0.430369
      3 C                     0.094273
      4 O                    -0.396652
      5 C                    -0.309746
      6 C                     0.042603
      7 O                    -0.376223
      8 H                     0.302127
      9 H                     0.340168
     10 H                     0.249534
     11 H                     0.255014
     12 H                     0.222955
     13 O                    -0.456100
     14 H                     0.348817
     15 O                    -0.159504
     16 O                    -0.298122
     17 H                     0.331335
     18 H                     0.341102
  ----------------------------------------
  Sum of atomic charges =     0.000000

 -----------------------------------------------------------------
                    Cartesian Multipole Moments
 -----------------------------------------------------------------
    Charge (ESU x 10^10)
                -0.0000
    Dipole Moment (Debye)
         X       1.3347      Y       5.8923      Z      -3.3852
       Tot       6.9253
    Quadrupole Moments (Debye-Ang)
        XX     -44.0307     XY      25.8169     YY     -66.5899
        XZ     -13.2039     YZ      -4.3590     ZZ     -60.7279
    Octopole Moments (Debye-Ang^2)
       XXX    -508.2859    XXY     144.4057    XYY    -239.3849
       YYY     138.5083    XXZ     -73.4223    XYZ     -16.7668
       YYZ      16.4101    XZZ    -240.8219    YZZ      31.2605
       ZZZ     -27.2686
    Hexadecapole Moments (Debye-Ang^3)
      XXXX   -4202.5678   XXXY     748.9096   XXYY   -1078.8241
      XYYY     427.1433   YYYY    -714.7842   XXXZ    -522.4967
      XXYZ    -111.5693   XYYZ      10.5223   YYYZ    -158.8029
      XXZZ   -1120.4734   XYZZ      76.5706   YYZZ    -214.9100
      XZZZ    -196.7718   YZZZ    -132.6551   ZZZZ    -479.3961
 -----------------------------------------------------------------
 Total job time:  1571.93s(wall), 22028.01s(cpu) 
 Mon Jun 24 23:19:10 2024

        *************************************************************
        *                                                           *
        *  Thank you very much for using Q-Chem.  Have a nice day.  *
        *                                                           *
        *************************************************************


