
Running Job 1 of 1 Q_in.in
qchem Q_in.in_180936.0 /scratch/ari.fischer/qChem1423037.hpc-mn1/qchem180936/ 0
/usr/local/qchem-5.4.1/exe/qcprog.exe_s Q_in.in_180936.0 /scratch/ari.fischer/qChem1423037.hpc-mn1/qchem180936/
                  Welcome to Q-Chem
     A Quantum Leap Into The Future Of Chemistry


 Q-Chem 5.4, Q-Chem, Inc., Pleasanton, CA (2021)

 License issued to: Nanyang Technological University (site)

 E. Epifanovsky,  A. T. B. Gilbert,  Xintian Feng,  Joonho Lee,  Yuezhi Mao,  
 N. Mardirossian,  P. Pokhilko,  A. White,  M. Wormit,  M. P. Coons,  
 A. L. Dempwolff,  Zhengting Gan,  D. Hait,  P. R. Horn,  L. D. Jacobson,  
 I. Kaliman,  J. Kussmann,  A. W. Lange,  Ka Un Lao,  D. S. Levine,  Jie Liu,  
 S. C. McKenzie,  A. F. Morrison,  K. Nanda,  F. Plasser,  D. R. Rehn,  
 M. L. Vidal,  Zhi-Qiang You,  Ying Zhu,  B. Alam,  B. Albrecht,  
 A. Aldossary,  E. Alguire,  J. H. Andersen,  D. Barton,  K. Begam,  A. Behn,  
 Y. A. Bernard,  E. J. Berquist,  H. Burton,  A. Carreras,  K. Carter-Fenk,  
 R. Chakraborty,  A. D. Chien,  K. D. Closser,  V. Cofer-Shabica,  
 S. Dasgupta,  Jia Deng,  M. de Wergifosse,  M. Diedenhofen,  Hainam Do,  
 S. Ehlert,  Po-Tung Fang,  S. Fatehi,  Qingguo Feng,  T. Friedhoff,  
 J. Gayvert,  Qinghui Ge,  G. Gidofalvi,  M. Goldey,  J. Gomes,  
 C. Gonzalez-Espinoza,  S. Gulania,  A. Gunina,  M. W. D. Hanson-Heine,  
 P. H. P. Harbach,  A. W. Hauser,  M. F. Herbst,  M. Hernandez Vera,  
 M. Hodecker,  Z. C. Holden,  S. Houck,  Xunkun Huang,  Kerwin Hui,  
 B. C. Huynh,  M. Ivanov,  Hyunjun Ji,  Hanjie Jiang,  B. Kaduk,  S. Kaehler,  
 K. Khistyaev,  Jaehoon Kim,  P. Klunzinger,  Z. Koczor-Benda,  
 Joong Hoon Koh,  D. Kosenkov,  L. Koulias,  T. Kowalczyk,  C. M. Krauter,  
 K. Kue,  A. Kunitsa,  T. Kus,  A. Landau,  K. V. Lawler,  D. Lefrancois,  
 S. Lehtola,  Rain Li,  Yi-Pei Li,  Jiashu Liang,  M. Liebenthal,  
 Hung-Hsuan Lin,  You-Sheng Lin,  Fenglai Liu,  Kuan-Yu Liu,  
 M. Loipersberger,  A. Luenser,  A. Manjanath,  P. Manohar,  E. Mansoor,  
 S. F. Manzer,  Shan-Ping Mao,  A. V. Marenich,  T. Markovich,  S. Mason,  
 S. A. Maurer,  P. F. McLaughlin,  M. F. S. J. Menger,  J.-M. Mewes,  
 S. A. Mewes,  P. Morgante,  J. W. Mullinax,  K. J. Oosterbaan,  G. Paran,  
 Alexander C. Paul,  Suranjan K. Paul,  F. Pavosevic,  Zheng Pei,  S. Prager,  
 E. I. Proynov,  E. Ramos,  B. Rana,  A. E. Rask,  A. Rettig,  R. M. Richard,  
 F. Rob,  E. Rossomme,  T. Scheele,  M. Scheurer,  M. Schneider,  
 N. Sergueev,  S. M. Sharada,  W. Skomorowski,  D. W. Small,  C. J. Stein,  
 Yu-Chuan Su,  E. J. Sundstrom,  Zhen Tao,  J. Thirman,  T. Tsuchimochi,  
 N. M. Tubman,  S. P. Veccham,  O. Vydrov,  J. Wenzel,  J. Witte,  A. Yamada,  
 Kun Yao,  S. Yeganeh,  S. R. Yost,  A. Zech,  Igor Ying Zhang,  Xing Zhang,  
 Yu Zhang,  D. Zuev,  A. Aspuru-Guzik,  A. T. Bell,  N. A. Besley,  
 K. B. Bravaya,  B. R. Brooks,  D. Casanova,  Jeng-Da Chai,  S. Coriani,  
 C. J. Cramer,  A. E. DePrince, III,  R. A. DiStasio Jr.,  A. Dreuw,  
 B. D. Dunietz,  T. R. Furlani,  W. A. Goddard III,  S. Grimme,  
 S. Hammes-Schiffer,  T. Head-Gordon,  W. J. Hehre,  Chao-Ping Hsu,  
 T.-C. Jagau,  Yousung Jung,  A. Klamt,  Jing Kong,  D. S. Lambrecht,  
 WanZhen Liang,  N. J. Mayhall,  C. W. McCurdy,  J. B. Neaton,  
 C. Ochsenfeld,  J. A. Parkhill,  R. Peverati,  V. A. Rassolov,  Yihan Shao,  
 L. V. Slipchenko,  T. Stauch,  R. P. Steele,  J. E. Subotnik,  
 A. J. W. Thom,  A. Tkatchenko,  D. G. Truhlar,  T. Van Voorhis,  
 T. A. Wesolowski,  K. B. Whaley,  H. L. Woodcock III,  P. M. Zimmerman,  
 S. Faraji,  P. M. W. Gill,  M. Head-Gordon,  J. M. Herbert,  A. I. Krylov

 Additional authors for Version 5.4.1: 
 S. Kotaru,  Shaozhi Li,  Xiangyuan Li,  F. Matz,  A. Molle,  Haisheng Ren,  
 Yingli Su,  Hung-Yi Tsai,  C. Utku,  Fang Wang

 Contributors to earlier versions of Q-Chem not listed above: 
 R. D. Adamson,  B. Austin,  R. Baer,  J. Baker,  G. J. O. Beran,  
 K. Brandhorst,  S. T. Brown,  E. F. C. Byrd,  A. K. Chakraborty,  
 G. K. L. Chan,  Chun-Min Chang,  Yunqing Chen,  C.-L. Cheng,  
 Siu Hung Chien,  D. M. Chipman,  D. L. Crittenden,  H. Dachsel,  
 R. J. Doerksen,  A. D. Dutoi,  R. G. Edgar,  J. Fosso-Tande,  
 L. Fusti-Molnar,  D. Ghosh,  A. Ghysels,  A. Golubeva-Zadorozhnaya,  
 J. Gonthier,  M. S. Gordon,  S. R. Gwaltney,  G. Hawkins,  J. E. Herr,  
 A. Heyden,  S. Hirata,  E. G. Hohenstein,  G. Kedziora,  F. J. Keil,  
 C. Kelley,  Jihan Kim,  R. A. King,  R. Z. Khaliullin,  P. P. Korambath,  
 W. Kurlancheek,  A. Laurent,  A. M. Lee,  M. S. Lee,  S. V. Levchenko,  
 Ching Yeh Lin,  D. Liotard,  E. Livshits,  R. C. Lochan,  I. Lotan,  
 L. A. Martinez-Martinez,  P. E. Maslen,  N. Nair,  D. P. O'Neill,  
 D. Neuhauser,  E. Neuscamman,  C. M. Oana,  R. Olivares-Amaya,  R. Olson,  
 T. M. Perrine,  B. Peters,  P. A. Pieniazek,  A. Prociuk,  Y. M. Rhee,  
 J. Ritchie,  M. A. Rohrdanz,  E. Rosta,  N. J. Russ,  H. F. Schaefer III,  
 M. W. Schmidt,  N. E. Schultz,  S. Sharma,  N. Shenvi,  C. D. Sherrill,  
 A. C. Simmonett,  A. Sodt,  T. Stein,  D. Stuck,  K. S. Thanthiriwatte,  
 V. Vanovschi,  L. Vogt,  Tao Wang,  A. Warshel,  M. A. Watson,  
 C. F. Williams,  Q. Wu,  X. Xu,  Jun Yang,  W. Zhang,  Yan Zhao

 Please cite Q-Chem as follows:
 Y. Shao et al., Mol. Phys. 113, 184-215 (2015)
 DOI: 10.1080/00268976.2014.952696

 Q-Chem 5.4.1 for Intel X86 EM64T Linux

 Parts of Q-Chem use Armadillo 9.800.1 (Horizon Scraper).
 http://arma.sourceforge.net/

 Q-Chem begins on Fri Jan 27 13:54:58 2023  

 Host: 
0

     Scratch files written to /scratch/ari.fischer/qChem1423037.hpc-mn1/qchem180936//
 Aug1521 |scratch|qcdevops|jenkins|workspace|build_RNUM 8249   
 Processing $rem in /usr/local/qchem-5.4.1/config/preferences:
 Processing $rem in /home/ari.fischer/.qchemrc:
 Symmetry turned off for PCM/SM12/SMD calculation


!!********************************************.
!!******************Warning*******************.
!!Desired Analytical derivatives not available.
!!Finite difference job might take a long time.
!!********************************************.
!!********************************************.


 2-order derivative to be evaluated numerically with 1-order analytical derivatives

 Checking the input file for inconsistencies... 	...done.

--------------------------------------------------------------
User input:
--------------------------------------------------------------
$molecule
0 2
C        -0.8310754451    0.1509603146    1.3093907329
C        -1.4120055601   -0.8921755864    1.9896700104
C        -1.9868045686   -1.9553395540    1.2855605997
C        -1.9877030975   -1.9573239331   -0.1043068545
C        -1.4043429108   -0.9135568858   -0.7970489634
C        -0.7711669069    0.1424518608   -0.1043138726
C        -0.3751189910    1.4135656787   -0.8159855675
H        -0.3881055362    0.9807512944    1.8452198149
H        -1.4298862379   -0.8906848464    3.0708686732
H        -2.4430952802   -2.7726055246    1.8269513952
H        -2.4495696300   -2.7714800783   -0.6450870285
H        -1.4123477259   -0.9078898075   -1.8791718772
H        -1.2390048778    2.0814073835   -0.8504992322
O         0.1302499620    1.1991022628   -2.1268953221
H         0.4078125748    1.9107336308   -0.2475801204
H        -0.6096699429    1.0561144877   -2.7258527717
O         1.1337396770   -0.7751381791   -0.2587517663
H         1.1675632808   -0.5606097504   -1.2041027546
$end

$rem
BASIS = 6-311++G(2df,2p)
GUI = 2
JOB_TYPE = Frequency
METHOD = wB97M-V
SOLVENT_METHOD = SMD
SCF_ALGORITHM = DIIS_GDM
MAX_SCF_CYCLES = 400
SCF_CONVERGENCE = 7
THRESH = 12
UNRESTRICTED = 1
SYMMETRY_IGNORE = 1
$end
--------------------------------------------------------------
 ----------------------------------------------------------------
             Standard Nuclear Orientation (Angstroms)
    I     Atom           X                Y                Z
 ----------------------------------------------------------------
    1      C      -0.8310754451     0.1509603146     1.3093907329
    2      C      -1.4120055601    -0.8921755864     1.9896700104
    3      C      -1.9868045686    -1.9553395540     1.2855605997
    4      C      -1.9877030975    -1.9573239331    -0.1043068545
    5      C      -1.4043429108    -0.9135568858    -0.7970489634
    6      C      -0.7711669069     0.1424518608    -0.1043138726
    7      C      -0.3751189910     1.4135656787    -0.8159855675
    8      H      -0.3881055362     0.9807512944     1.8452198149
    9      H      -1.4298862379    -0.8906848464     3.0708686732
   10      H      -2.4430952802    -2.7726055246     1.8269513952
   11      H      -2.4495696300    -2.7714800783    -0.6450870285
   12      H      -1.4123477259    -0.9078898075    -1.8791718772
   13      H      -1.2390048778     2.0814073835    -0.8504992322
   14      O       0.1302499620     1.1991022628    -2.1268953221
   15      H       0.4078125748     1.9107336308    -0.2475801204
   16      H      -0.6096699429     1.0561144877    -2.7258527717
   17      O       1.1337396770    -0.7751381791    -0.2587517663
   18      H       1.1675632808    -0.5606097504    -1.2041027546
 ----------------------------------------------------------------
 Nuclear Repulsion Energy =         439.10892347 hartrees
 There are       34 alpha and       33 beta electrons
 Requested basis set is 6-311++G(2df,2p)
 There are 126 shells and 396 basis functions

 Total QAlloc Memory Limit 288000 MB
 Mega-Array Size       188 MB
 MEM_STATIC part       192 MB
 
 Citation of the SMD model:
 Marenich, A.V.; Cramer, C.J.; Truhlar, D.G.
 J. Phys. Chem. B 2009, 113, 6378-6396.
 iSolventCode=           1
 Solvent: water                                                           
 
 vradii
            1           2           3           4           5           6
    1   1.8500000   1.8500000   1.8500000   1.8500000   1.8500000   1.8500000
            7           8           9          10          11          12
    1   1.8500000   1.2000000   1.2000000   1.2000000   1.2000000   1.2000000
           13          14          15          16          17          18
    1   1.2000000   1.5200000   1.2000000   1.2000000   1.5200000   1.2000000
 Changing PCM_VDW_RADII to SMD_RADIUS
 Discretize the solute cavity surface with Lebedev spheres
	Using 110 Lebedev grid points for each H atom
	Using 194 Lebedev grid points for other atoms
	Atomic van der Waals radii will be scaled by 1.20
 Remove points where switching function is < 1.0e-08
 Keep 1333 surface tesserae and discard 1403 interior tesserae
 Molecular Surface Area = 155.291 Angst**2
 A cutoff of  1.0D-12 yielded   7325 shell pairs
 There are     73211 function pairs (     90849 Cartesian)
 Smallest overlap matrix eigenvalue = 7.91E-07
 Linear dependence detected in AO basis
 Tighter screening thresholds may be required for diffuse basis sets
 Use S2THRESH > 14 and THRESH = 14 in case of SCF convergence issues
 Number of orthogonalized atomic orbitals = 395
 Maximum deviation from orthogonality = 5.828E-11
 Guess from superposition of atomic densities
 Warning:  Energy on first SCF cycle will be non-variational
 SAD guess density has 67.000000 electrons

 -----------------------------------------------------------------------
  General SCF calculation program by
  Eric Jon Sundstrom, Paul Horn, Yuezhi Mao, Dmitri Zuev, Alec White,
  David Stuck, Shaama M.S., Shane Yost, Joonho Lee, David Small,
  Daniel Levine, Susi Lehtola, Hugh Burton, Evgeny Epifanovsky,
  Bang C. Huynh
 -----------------------------------------------------------------------
 Exchange:     0.1500 Hartree-Fock + 1.0000 wB97M-V + LR-HF
 Correlation:  1.0000 wB97M-V
 Using SG-2 standard quadrature grid
 Nonlocal Correlation:  VV10 with C = 0.0100 and b = 6.00 and scale = 1.00000
 Grid used for NLC:  SG-1 standard quadrature
 using 8 threads for integral computing
 -------------------------------------------------------
 OpenMP Integral computing Module                
 Release: version 1.0, May 2013, Q-Chem Inc. Pittsburgh 
 -------------------------------------------------------
 
 Citation of the SMD model:
 Marenich, A.V.; Cramer, C.J.; Truhlar, D.G.
 J. Phys. Chem. B 2009, 113, 6378-6396.
 iSolventCode=           1
 Solvent: water                                                           
 
 vradii
            1           2           3           4           5           6
    1   1.8500000   1.8500000   1.8500000   1.8500000   1.8500000   1.8500000
            7           8           9          10          11          12
    1   1.8500000   1.2000000   1.2000000   1.2000000   1.2000000   1.2000000
           13          14          15          16          17          18
    1   1.2000000   1.5200000   1.2000000   1.2000000   1.5200000   1.2000000
 -------------------------------------------------------
 OpenMP BLAS3 based DFT computing Module                
 Release: version 1.0, May 2013, Q-Chem Inc. Pittsburgh 
 -------------------------------------------------------
 A unrestricted SCF calculation will be
 performed using DIIS, GDM
 SCF converges when RMS gradient is below 1.0e-07
 ---------------------------------------
  Cycle       Energy         DIIS error
 ---------------------------------------
    1    -424.8899154786      1.26e-02  
    2    -422.3473723306      1.48e-03  Done DIIS. Switching to GDM
 ---------------------------------------
  Cycle       Energy        RMS Gradient
 ---------------------------------------
    1    -422.3473723306      2.65e-01   Descent step
    2    -422.4823990906      2.13e-02   Normal BFGS step
    3    -422.4994859970      4.20e-02   Normal BFGS step
    4    -422.5040652437      1.63e-02   Normal BFGS step
    5    -422.5053981033      1.29e-02   Normal BFGS step
    6    -422.5063002872      8.97e-03   Normal BFGS step
    7    -422.5066661040      3.10e-03   Normal BFGS step
    8    -422.5067400511      1.64e-03   Normal BFGS step
    9    -422.5067661373      9.44e-04   Normal BFGS step
   10    -422.5067737049      6.61e-04   Normal BFGS step
   11    -422.5067771694      2.76e-04   Normal BFGS step
   12    -422.5067780736      1.73e-04   Normal BFGS step
   13    -422.5067783195      1.04e-04   Normal BFGS step
   14    -422.5067784066      7.63e-05   Normal BFGS step
   15    -422.5067784492      4.52e-05   Normal BFGS step
   16    -422.5067784684      2.94e-05   Normal BFGS step
   17    -422.5067784820      2.18e-05   Normal BFGS step
   18    -422.5067784857      7.31e-06   Normal BFGS step
   19    -422.5067784861      2.43e-06   Normal BFGS step
   20    -422.5067784862      2.48e-06   Normal BFGS step
   21    -422.5067784863      8.83e-07   Normal BFGS step
   22    -422.5067784863      4.19e-07   Normal BFGS step
   23    -422.5067784862      2.58e-07   Normal BFGS step
   24    -422.5067784863      1.98e-07   Normal BFGS step
   25    -422.5067784863      7.36e-08  Convergence criterion met
 ---------------------------------------
 SCF time:   CPU 2705.38s  wall 348.00s 
<S^2> =          0.780848493
(3)  G-ENP(liq) elect-nuc-pol free energy of system     -422.506778486 a.u.
(4)  G-CDS(liq) cavity-dispersion-solvent structure 
     free energy                                                3.4226 kcal/mol
(6)  G-S(liq) free energy of system                     -422.501324164 a.u.
 SCF   energy in the final basis set =     -422.5013241638
 Total energy in the final basis set =     -422.5013241638
 
 --------------------------------------------------------------
 
                    Orbital Energies (a.u.)
 --------------------------------------------------------------
 
 Alpha MOs
 -- Occupied --
-19.3430 -19.3373 -10.3921 -10.3831 -10.3592 -10.3574 -10.3555 -10.3485
-10.3471  -1.1627  -1.0925  -0.9955  -0.8991  -0.8811  -0.8052  -0.7296
 -0.7108  -0.6440  -0.6204  -0.5843  -0.5709  -0.5585  -0.5373  -0.5327
 -0.5244  -0.5056  -0.4645  -0.4527  -0.4448  -0.4391  -0.4181  -0.3978
 -0.3561  -0.3195
 -- Virtual --
  0.0239   0.0347   0.0368   0.0459   0.0528   0.0553   0.0564   0.0616
  0.0750   0.0860   0.0880   0.1007   0.1082   0.1287   0.1346   0.1365
  0.1494   0.1547   0.1549   0.1573   0.1623   0.1626   0.1689   0.1716
  0.1782   0.1803   0.1921   0.2000   0.2076   0.2161   0.2179   0.2202
  0.2281   0.2411   0.2505   0.2575   0.2609   0.2622   0.2783   0.2818
  0.2922   0.2958   0.3046   0.3075   0.3287   0.3334   0.3389   0.3429
  0.3482   0.3494   0.3538   0.3588   0.3731   0.3867   0.3965   0.4070
  0.4204   0.4278   0.4417   0.4531   0.4734   0.4860   0.5210   0.5447
  0.5457   0.5743   0.5803   0.5901   0.5931   0.6074   0.6077   0.6135
  0.6231   0.6267   0.6486   0.6539   0.6635   0.6747   0.6832   0.6904
  0.7056   0.7085   0.7262   0.7294   0.7323   0.7357   0.7424   0.7525
  0.7709   0.7754   0.7780   0.7887   0.8022   0.8249   0.8275   0.8378
  0.8439   0.8579   0.8692   0.8786   0.8847   0.8979   0.9126   0.9295
  0.9451   0.9659   1.0086   1.0272   1.0350   1.0363   1.0635   1.0647
  1.0956   1.1041   1.1085   1.1184   1.1341   1.1576   1.1670   1.1793
  1.1855   1.1977   1.2143   1.2296   1.2472   1.2542   1.2672   1.2847
  1.3042   1.3236   1.3365   1.3498   1.3531   1.3807   1.3849   1.3973
  1.4007   1.4155   1.4300   1.4376   1.4482   1.4519   1.4606   1.4746
  1.4900   1.4985   1.5233   1.5439   1.5553   1.5597   1.5789   1.5856
  1.5968   1.6015   1.6458   1.6481   1.6912   1.7232   1.7549   1.7635
  1.7836   1.7956   1.8130   1.8279   1.8730   1.9136   1.9412   1.9704
  2.0085   2.0216   2.0529   2.0837   2.1085   2.1193   2.1311   2.1773
  2.2009   2.2695   2.3860   2.3921   2.4142   2.5596   2.5852   2.6044
  2.6357   2.6832   2.7003   2.7391   2.7547   2.7928   2.8037   2.8104
  2.8174   2.8265   2.8501   2.8556   2.8661   2.8746   2.8936   2.9007
  2.9182   2.9212   2.9293   2.9542   2.9689   2.9828   2.9915   3.0080
  3.0129   3.0323   3.0958   3.1375   3.1625   3.1662   3.1827   3.1956
  3.2090   3.2217   3.2426   3.2439   3.2478   3.2677   3.2765   3.2899
  3.3058   3.3381   3.3521   3.3723   3.3744   3.3932   3.4203   3.4304
  3.4484   3.4688   3.4739   3.4910   3.4940   3.5083   3.5126   3.5458
  3.5575   3.5891   3.6028   3.6158   3.6403   3.6541   3.6740   3.7042
  3.7335   3.7470   3.7836   3.7949   3.8055   3.8116   3.8267   3.8313
  3.8416   3.8720   3.8932   3.8993   3.9134   3.9206   3.9467   3.9600
  3.9683   3.9976   4.0222   4.0546   4.0693   4.0905   4.1180   4.1322
  4.1546   4.1727   4.1914   4.2068   4.2308   4.2689   4.2810   4.2954
  4.3322   4.3500   4.3690   4.3890   4.4073   4.4375   4.4660   4.4742
  4.4966   4.5079   4.5283   4.5344   4.5492   4.5715   4.5798   4.5963
  4.6056   4.6426   4.6981   4.7497   4.7720   4.7969   4.8227   4.8656
  4.9589   5.0390   5.1063   5.1481   5.1591   5.1663   5.1998   5.2105
  5.2292   5.2684   5.2727   5.2917   5.3099   5.3261   5.3350   5.3707
  5.4040   5.4496   5.4739   5.5274   5.5340   5.5902   5.6679   5.6849
  5.7018   5.7321   5.7583   5.7994   5.8538   5.8777   5.9024   5.9657
  6.0747   6.2575   6.5976   6.6457   7.0306   7.0607   7.1016   7.1435
  7.1937   7.2999   7.3178   7.3269   7.4393   7.5850   7.6684   7.7992
 24.2038  24.7525  24.7979  24.8155  24.9852  25.0707  25.4936  50.5370
 50.6052
 
 Beta MOs
 -- Occupied --
-19.3430 -19.3199 -10.3919 -10.3828 -10.3561 -10.3544 -10.3529 -10.3497
-10.3486  -1.1625  -1.0531  -0.9902  -0.8954  -0.8786  -0.8021  -0.7271
 -0.7087  -0.6426  -0.6183  -0.5822  -0.5684  -0.5462  -0.5315  -0.5273
 -0.5221  -0.4845  -0.4619  -0.4497  -0.4406  -0.4012  -0.3943  -0.3586
 -0.3467
 -- Virtual --
 -0.0610   0.0240   0.0350   0.0370   0.0505   0.0534   0.0555   0.0650
  0.0701   0.0793   0.0860   0.0886   0.1008   0.1088   0.1296   0.1350
  0.1370   0.1495   0.1549   0.1556   0.1583   0.1626   0.1634   0.1692
  0.1740   0.1789   0.1811   0.1922   0.2008   0.2077   0.2163   0.2179
  0.2202   0.2288   0.2417   0.2517   0.2587   0.2613   0.2641   0.2796
  0.2834   0.2930   0.2960   0.3056   0.3081   0.3325   0.3345   0.3394
  0.3439   0.3488   0.3502   0.3556   0.3603   0.3746   0.3869   0.3975
  0.4081   0.4216   0.4291   0.4433   0.4545   0.4758   0.4874   0.5224
  0.5459   0.5471   0.5757   0.5818   0.5924   0.5952   0.6086   0.6108
  0.6155   0.6249   0.6285   0.6508   0.6566   0.6660   0.6776   0.6846
  0.6924   0.7077   0.7114   0.7278   0.7308   0.7337   0.7365   0.7430
  0.7544   0.7711   0.7776   0.7798   0.7897   0.8059   0.8268   0.8316
  0.8369   0.8467   0.8608   0.8730   0.8802   0.8868   0.8998   0.9142
  0.9305   0.9480   0.9670   1.0096   1.0303   1.0368   1.0390   1.0648
  1.0684   1.0965   1.1057   1.1115   1.1202   1.1346   1.1601   1.1702
  1.1807   1.1879   1.2003   1.2151   1.2304   1.2499   1.2599   1.2682
  1.2857   1.3064   1.3274   1.3428   1.3521   1.3576   1.3862   1.3872
  1.4010   1.4077   1.4201   1.4328   1.4400   1.4517   1.4535   1.4638
  1.4766   1.4927   1.5002   1.5260   1.5476   1.5593   1.5615   1.5817
  1.5877   1.5999   1.6040   1.6470   1.6517   1.6932   1.7251   1.7573
  1.7662   1.7909   1.8041   1.8145   1.8405   1.8805   1.9190   1.9531
  1.9798   2.0110   2.0311   2.0584   2.0874   2.1161   2.1247   2.1351
  2.1827   2.2070   2.2714   2.3891   2.3945   2.4169   2.5623   2.5910
  2.6064   2.6380   2.6869   2.7063   2.7426   2.7621   2.7990   2.8078
  2.8139   2.8241   2.8298   2.8558   2.8621   2.8715   2.8790   2.8975
  2.9044   2.9250   2.9280   2.9332   2.9616   2.9736   2.9890   2.9963
  3.0133   3.0206   3.0404   3.0989   3.1385   3.1667   3.1710   3.1871
  3.1968   3.2128   3.2254   3.2443   3.2496   3.2528   3.2701   3.2804
  3.2932   3.3090   3.3422   3.3573   3.3759   3.3807   3.3973   3.4246
  3.4336   3.4537   3.4750   3.4783   3.4942   3.4977   3.5124   3.5168
  3.5517   3.5610   3.5936   3.6094   3.6198   3.6472   3.6582   3.6772
  3.7074   3.7376   3.7501   3.7884   3.8000   3.8071   3.8152   3.8322
  3.8340   3.8457   3.8772   3.8972   3.9029   3.9176   3.9251   3.9525
  3.9642   3.9738   4.0012   4.0250   4.0591   4.0718   4.0955   4.1208
  4.1368   4.1572   4.1776   4.1935   4.2100   4.2334   4.2719   4.2852
  4.2993   4.3371   4.3535   4.3729   4.3924   4.4095   4.4392   4.4713
  4.4768   4.5035   4.5148   4.5344   4.5410   4.5554   4.5757   4.5859
  4.6011   4.6113   4.6470   4.7019   4.7540   4.7775   4.8022   4.8294
  4.8686   4.9666   5.0464   5.1175   5.1671   5.1746   5.1797   5.2164
  5.2495   5.2564   5.2861   5.2996   5.3096   5.3283   5.3342   5.3435
  5.3927   5.4204   5.4713   5.5094   5.5379   5.5400   5.5929   5.6834
  5.6981   5.7132   5.7405   5.7692   5.8051   5.8660   5.8839   5.9072
  5.9676   6.0755   6.2631   6.6023   6.6460   7.0653   7.1131   7.1392
  7.1988   7.2495   7.3186   7.3215   7.3368   7.4591   7.6225   7.6795
  7.7999  24.2047  24.7531  24.7989  24.8160  24.9868  25.0717  25.4950
 50.5487  50.6059
 --------------------------------------------------------------
 
          Ground-State Mulliken Net Atomic Charges

     Atom                 Charge (a.u.)    Spin (a.u.)
  --------------------------------------------------------
      1 C                     0.023332       0.167083
      2 C                    -0.496276      -0.071341
      3 C                    -0.242434       0.200861
      4 C                    -0.485163      -0.085594
      5 C                    -0.548849       0.216229
      6 C                     0.496988      -0.028009
      7 C                    -0.361477       0.003649
      8 H                     0.293216      -0.004898
      9 H                     0.283654       0.002462
     10 H                     0.285022      -0.003683
     11 H                     0.287572       0.002627
     12 H                     0.288901      -0.004975
     13 H                     0.199121      -0.002259
     14 O                    -0.422600       0.002022
     15 H                     0.248179       0.000894
     16 H                     0.340591      -0.000123
     17 O                    -0.510643       0.613737
     18 H                     0.320867      -0.008681
  --------------------------------------------------------
  Sum of atomic charges =     0.000000
  Sum of spin   charges =     1.000000

 -----------------------------------------------------------------
                    Cartesian Multipole Moments
 -----------------------------------------------------------------
    Charge (ESU x 10^10)
                 0.0000
    Dipole Moment (Debye)
         X      -5.4699      Y       1.2537      Z      -0.7033
       Tot       5.6557
    Quadrupole Moments (Debye-Ang)
        XX     -54.7437     XY       4.2629     YY     -51.0831
        XZ       3.0980     YZ       0.9007     ZZ     -43.8563
    Octopole Moments (Debye-Ang^2)
       XXX     130.9001    XXY      12.7065    XYY      22.5391
       YYY      55.2317    XXZ      -5.5940    XYZ      11.0409
       YYZ       5.0812    XZZ      23.0895    YZZ      11.8191
       ZZZ      -4.9166
    Hexadecapole Moments (Debye-Ang^3)
      XXXX    -634.0219   XXXY    -141.7974   XXYY    -161.0839
      XYYY    -121.2294   YYYY    -567.1447   XXXZ      97.3512
      XXYZ      29.5447   XYYZ      30.5674   YYYZ     118.3736
      XXZZ    -180.5713   XYZZ     -51.9408   YYZZ    -190.0651
      XZZZ     110.3268   YZZZ     109.4802   ZZZZ    -496.8824
 -----------------------------------------------------------------
 Calculating analytic gradient of the SCF energy
 Gradient of CDS energy
            1           2           3           4           5           6
    1   0.0000610   0.0000279  -0.0002187  -0.0001815  -0.0000826   0.0003135
    2   0.0002812   0.0000651  -0.0004030  -0.0003227   0.0001461  -0.0000760
    3   0.0000469   0.0004800   0.0002534  -0.0002970  -0.0002345  -0.0000538
            7           8           9          10          11          12
    1   0.0000735   0.0001010  -0.0000034  -0.0000870  -0.0000885   0.0000385
    2   0.0009760   0.0001447   0.0000003  -0.0001557  -0.0001560   0.0000139
    3  -0.0001894   0.0000539   0.0002074   0.0001032  -0.0001036  -0.0000739
           13          14          15          16          17          18
    1  -0.0002517  -0.0000876   0.0001983  -0.0000366  -0.0001532   0.0003769
    2  -0.0001125  -0.0002214  -0.0002162   0.0001063   0.0000595  -0.0001297
    3  -0.0000028   0.0002736   0.0001532  -0.0005108   0.0001725  -0.0002781
 Gradient of SCF Energy
            1           2           3           4           5           6
    1  -0.0065389  -0.0001161   0.0029061   0.0022893  -0.0008416   0.0063592
    2  -0.0020820   0.0004286   0.0048573   0.0019707  -0.0031130  -0.0011384
    3  -0.0071531  -0.0076625  -0.0024580   0.0040860   0.0101402   0.0131934
            7           8           9          10          11          12
    1   0.0060446   0.0010364  -0.0006071  -0.0032201  -0.0033284  -0.0012358
    2  -0.0052216   0.0046431   0.0000566  -0.0048738  -0.0048238   0.0010422
    3  -0.0077539   0.0024346   0.0055527   0.0033608  -0.0035427  -0.0115214
           13          14          15          16          17          18
    1  -0.0080437   0.0182870  -0.0005220  -0.0155545   0.0051565  -0.0020708
    2   0.0054442   0.0058706   0.0032825  -0.0035684  -0.0023413  -0.0004334
    3  -0.0011264   0.0094253   0.0028149  -0.0087426   0.0001575  -0.0012050
 Max gradient component =       1.829E-02
 RMS gradient           =       5.936E-03
 Computing fast CPCM-SWIG gradient
 Updating gradient with PCM contributions...
 -- total gradient after adding PCM contribution --
---------------------------------------------------
  Atom         X              Y              Z     
---------------------------------------------------
   1      -0.000012       0.000038      -0.000011
   2       0.000009      -0.000003       0.000006
   3      -0.000021       0.000004      -0.000010
   4      -0.000028       0.000016       0.000011
   5      -0.000054      -0.000017      -0.000022
   6      -0.000094       0.000060       0.000069
   7       0.000050      -0.000043      -0.000011
   8      -0.000003      -0.000006      -0.000016
   9       0.000002      -0.000001      -0.000014
  10      -0.000010       0.000002       0.000007
  11      -0.000011       0.000005       0.000006
  12      -0.000021       0.000020      -0.000003
  13       0.000024       0.000012       0.000020
  14       0.000099       0.000180       0.000035
  15       0.000048      -0.000007      -0.000018
  16      -0.000057      -0.000139      -0.000057
  17       0.000105      -0.000029      -0.000112
  18      -0.000025      -0.000094       0.000120
---------------------------------------------------
 Number of fixed atoms: 0
 Gradient time:  CPU 326.97 s  wall 47.58 s
 ######################################################
 ######################################################
 # Starting finite difference calculation for IDERIV  #
 Finite diff step size:  1.88973e-03 a.u.
 ----------------------------------------------------------------
             Standard Nuclear Orientation (Angstroms)
    I     Atom           X                Y                Z
 ----------------------------------------------------------------
    1      C      -0.8300754451     0.1509603146     1.3093907329
    2      C      -1.4120055601    -0.8921755864     1.9896700104
    3      C      -1.9868045686    -1.9553395540     1.2855605997
    4      C      -1.9877030975    -1.9573239331    -0.1043068545
    5      C      -1.4043429108    -0.9135568858    -0.7970489634
    6      C      -0.7711669069     0.1424518608    -0.1043138726
    7      C      -0.3751189910     1.4135656787    -0.8159855675
    8      H      -0.3881055362     0.9807512944     1.8452198149
    9      H      -1.4298862379    -0.8906848464     3.0708686732
   10      H      -2.4430952802    -2.7726055246     1.8269513952
   11      H      -2.4495696300    -2.7714800783    -0.6450870285
   12      H      -1.4123477259    -0.9078898075    -1.8791718772
   13      H      -1.2390048778     2.0814073835    -0.8504992322
   14      O       0.1302499620     1.1991022628    -2.1268953221
   15      H       0.4078125748     1.9107336308    -0.2475801204
   16      H      -0.6096699429     1.0561144877    -2.7258527717
   17      O       1.1337396770    -0.7751381791    -0.2587517663
   18      H       1.1675632808    -0.5606097504    -1.2041027546
 ----------------------------------------------------------------
 Nuclear Repulsion Energy =         439.10629758 hartrees
 There are       34 alpha and       33 beta electrons
 Discretize the solute cavity surface with Lebedev spheres
	Using 110 Lebedev grid points for each H atom
	Using 194 Lebedev grid points for other atoms
	Atomic van der Waals radii will be scaled by 1.20
 Remove points where switching function is < 1.0e-08
 Keep 1333 surface tesserae and discard 1403 interior tesserae
 Molecular Surface Area = 155.288 Angst**2
 Requested basis set is 6-311++G(2df,2p)
 There are 126 shells and 396 basis functions
 A cutoff of  1.0D-12 yielded   7325 shell pairs
 There are     73211 function pairs (     90849 Cartesian)
 Smallest overlap matrix eigenvalue = 7.89E-07
 Linear dependence detected in AO basis
 Tighter screening thresholds may be required for diffuse basis sets
 Use S2THRESH > 14 and THRESH = 14 in case of SCF convergence issues
 Number of orthogonalized atomic orbitals = 395
 Maximum deviation from orthogonality = 1.035E-10
 Guess MOs from SCF MO coefficient file

 -----------------------------------------------------------------------
  General SCF calculation program by
  Eric Jon Sundstrom, Paul Horn, Yuezhi Mao, Dmitri Zuev, Alec White,
  David Stuck, Shaama M.S., Shane Yost, Joonho Lee, David Small,
  Daniel Levine, Susi Lehtola, Hugh Burton, Evgeny Epifanovsky,
  Bang C. Huynh
 -----------------------------------------------------------------------
 Exchange:     0.1500 Hartree-Fock + 1.0000 wB97M-V + LR-HF
 Correlation:  1.0000 wB97M-V
 Using SG-2 standard quadrature grid
 Nonlocal Correlation:  VV10 with C = 0.0100 and b = 6.00 and scale = 1.00000
 Grid used for NLC:  SG-1 standard quadrature
 
 Citation of the SMD model:
 Marenich, A.V.; Cramer, C.J.; Truhlar, D.G.
 J. Phys. Chem. B 2009, 113, 6378-6396.
 iSolventCode=           1
 Solvent: water                                                           
 
 vradii
            1           2           3           4           5           6
    1   1.8500000   1.8500000   1.8500000   1.8500000   1.8500000   1.8500000
            7           8           9          10          11          12
    1   1.8500000   1.2000000   1.2000000   1.2000000   1.2000000   1.2000000
           13          14          15          16          17          18
    1   1.2000000   1.5200000   1.2000000   1.2000000   1.5200000   1.2000000
 -------------------------------------------------------
 OpenMP BLAS3 based DFT computing Module                
 Release: version 1.0, May 2013, Q-Chem Inc. Pittsburgh 
 -------------------------------------------------------
 A unrestricted SCF calculation will be
 performed using Roothaan-Hall, DIIS, GDM
 SCF converges when RMS gradient is below 1.0e-07
 ---------------------------------------
  Cycle       Energy         DIIS error
 ---------------------------------------
    1    -422.4701355871      2.33e-04  Roothaan Step
 ---------------------------------------
  Cycle       Energy         DIIS error
 ---------------------------------------
    1    -422.4972554057      2.86e-04  
    2    -422.5023243954      2.83e-04  Done DIIS. Switching to GDM
 ---------------------------------------
  Cycle       Energy        RMS Gradient
 ---------------------------------------
    1    -422.5023243954      2.42e-02   Normal BFGS step
    2    -422.5013397254      4.24e-02  Line search: overstep
    3    -422.5064564294      7.96e-03   Normal BFGS step
    4    -422.5066668747      3.42e-03   Normal BFGS step
    5    -422.5067362962      3.09e-03   Normal BFGS step
    6    -422.5067575040      1.90e-03   Normal BFGS step
    7    -422.5067731132      6.17e-04   Normal BFGS step
    8    -422.5067768583      3.29e-04   Normal BFGS step
    9    -422.5067776874      1.59e-04   Normal BFGS step
   10    -422.5067779247      1.23e-04   Normal BFGS step
   11    -422.5067780558      5.13e-05   Normal BFGS step
   12    -422.5067780991      3.77e-05   Normal BFGS step
   13    -422.5067781107      2.71e-05   Normal BFGS step
   14    -422.5067781161      2.03e-05   Normal BFGS step
   15    -422.5067781196      1.10e-05   Normal BFGS step
   16    -422.5067781208      7.83e-06   Normal BFGS step
   17    -422.5067781212      4.17e-06   Normal BFGS step
   18    -422.5067781214      2.30e-06   Normal BFGS step
   19    -422.5067781214      6.49e-07   Normal BFGS step
   20    -422.5067781214      2.78e-07   Normal BFGS step
   21    -422.5067781214      1.53e-07   Normal BFGS step
   22    -422.5067781214      9.31e-08  Convergence criterion met
 ---------------------------------------
 SCF time:   CPU 2558.20s  wall 330.00s 
<S^2> =          0.780837697
(3)  G-ENP(liq) elect-nuc-pol free energy of system     -422.506778121 a.u.
(4)  G-CDS(liq) cavity-dispersion-solvent structure 
     free energy                                                3.4227 kcal/mol
(6)  G-S(liq) free energy of system                     -422.501323683 a.u.
 SCF   energy in the final basis set =     -422.5013236827
 Total energy in the final basis set =     -422.5013236827
 
 --------------------------------------------------------------
 
                    Orbital Energies (a.u.)
 --------------------------------------------------------------
 
 Alpha MOs
 -- Occupied --
-19.3430 -19.3373 -10.3921 -10.3831 -10.3592 -10.3573 -10.3555 -10.3485
-10.3471  -1.1627  -1.0925  -0.9954  -0.8991  -0.8810  -0.8052  -0.7297
 -0.7108  -0.6440  -0.6204  -0.5843  -0.5709  -0.5585  -0.5373  -0.5327
 -0.5244  -0.5056  -0.4645  -0.4527  -0.4449  -0.4391  -0.4181  -0.3978
 -0.3561  -0.3195
 -- Virtual --
  0.0239   0.0347   0.0368   0.0459   0.0528   0.0553   0.0564   0.0616
  0.0750   0.0860   0.0880   0.1007   0.1082   0.1286   0.1346   0.1365
  0.1494   0.1548   0.1549   0.1573   0.1623   0.1626   0.1689   0.1715
  0.1782   0.1803   0.1921   0.2000   0.2076   0.2160   0.2179   0.2202
  0.2281   0.2411   0.2506   0.2575   0.2608   0.2623   0.2783   0.2818
  0.2922   0.2959   0.3046   0.3075   0.3287   0.3334   0.3390   0.3429
  0.3482   0.3494   0.3538   0.3588   0.3731   0.3867   0.3964   0.4070
  0.4204   0.4278   0.4418   0.4530   0.4734   0.4860   0.5211   0.5447
  0.5457   0.5743   0.5803   0.5901   0.5931   0.6074   0.6077   0.6135
  0.6230   0.6266   0.6486   0.6539   0.6635   0.6747   0.6832   0.6904
  0.7056   0.7085   0.7262   0.7294   0.7324   0.7357   0.7424   0.7525
  0.7709   0.7754   0.7779   0.7886   0.8022   0.8250   0.8275   0.8377
  0.8439   0.8580   0.8692   0.8786   0.8846   0.8979   0.9126   0.9295
  0.9451   0.9660   1.0086   1.0272   1.0350   1.0362   1.0634   1.0648
  1.0956   1.1041   1.1085   1.1184   1.1341   1.1576   1.1670   1.1792
  1.1855   1.1978   1.2143   1.2296   1.2472   1.2542   1.2672   1.2847
  1.3041   1.3236   1.3364   1.3499   1.3532   1.3808   1.3849   1.3973
  1.4007   1.4155   1.4300   1.4376   1.4481   1.4518   1.4606   1.4746
  1.4901   1.4985   1.5233   1.5439   1.5553   1.5597   1.5789   1.5856
  1.5969   1.6015   1.6458   1.6481   1.6912   1.7231   1.7548   1.7636
  1.7835   1.7956   1.8130   1.8279   1.8731   1.9137   1.9411   1.9707
  2.0084   2.0217   2.0528   2.0837   2.1085   2.1192   2.1312   2.1772
  2.2010   2.2696   2.3860   2.3922   2.4142   2.5597   2.5851   2.6043
  2.6356   2.6832   2.7000   2.7390   2.7547   2.7928   2.8037   2.8104
  2.8174   2.8266   2.8501   2.8555   2.8662   2.8747   2.8936   2.9007
  2.9181   2.9211   2.9294   2.9543   2.9688   2.9827   2.9914   3.0080
  3.0130   3.0323   3.0958   3.1375   3.1624   3.1663   3.1826   3.1955
  3.2089   3.2219   3.2426   3.2437   3.2478   3.2677   3.2765   3.2900
  3.3060   3.3381   3.3522   3.3723   3.3744   3.3932   3.4203   3.4303
  3.4482   3.4689   3.4739   3.4910   3.4940   3.5083   3.5124   3.5457
  3.5575   3.5891   3.6029   3.6158   3.6404   3.6540   3.6739   3.7042
  3.7336   3.7470   3.7837   3.7950   3.8054   3.8116   3.8268   3.8312
  3.8417   3.8719   3.8932   3.8992   3.9133   3.9206   3.9467   3.9600
  3.9683   3.9976   4.0223   4.0545   4.0695   4.0905   4.1178   4.1322
  4.1546   4.1727   4.1915   4.2069   4.2307   4.2688   4.2810   4.2954
  4.3323   4.3500   4.3693   4.3890   4.4070   4.4374   4.4659   4.4742
  4.4966   4.5079   4.5282   4.5344   4.5490   4.5715   4.5796   4.5962
  4.6054   4.6426   4.6981   4.7497   4.7719   4.7969   4.8225   4.8655
  4.9589   5.0389   5.1064   5.1480   5.1591   5.1663   5.1997   5.2105
  5.2291   5.2685   5.2727   5.2917   5.3101   5.3262   5.3350   5.3707
  5.4040   5.4497   5.4740   5.5274   5.5339   5.5903   5.6679   5.6849
  5.7018   5.7321   5.7583   5.7996   5.8537   5.8780   5.9023   5.9657
  6.0747   6.2577   6.5974   6.6457   7.0306   7.0607   7.1016   7.1435
  7.1937   7.2999   7.3178   7.3269   7.4393   7.5850   7.6684   7.7992
 24.2040  24.7527  24.7978  24.8155  24.9853  25.0701  25.4934  50.5370
 50.6051
 
 Beta MOs
 -- Occupied --
-19.3430 -19.3200 -10.3919 -10.3828 -10.3561 -10.3544 -10.3529 -10.3497
-10.3486  -1.1625  -1.0531  -0.9901  -0.8954  -0.8785  -0.8021  -0.7272
 -0.7087  -0.6426  -0.6183  -0.5822  -0.5684  -0.5462  -0.5315  -0.5273
 -0.5221  -0.4845  -0.4618  -0.4497  -0.4406  -0.4012  -0.3943  -0.3586
 -0.3467
 -- Virtual --
 -0.0610   0.0240   0.0350   0.0370   0.0505   0.0534   0.0555   0.0650
  0.0701   0.0793   0.0860   0.0886   0.1008   0.1088   0.1296   0.1350
  0.1370   0.1495   0.1549   0.1556   0.1582   0.1626   0.1634   0.1692
  0.1740   0.1789   0.1812   0.1922   0.2008   0.2077   0.2163   0.2179
  0.2202   0.2289   0.2417   0.2517   0.2587   0.2613   0.2640   0.2796
  0.2834   0.2929   0.2961   0.3055   0.3081   0.3325   0.3345   0.3395
  0.3439   0.3488   0.3502   0.3555   0.3603   0.3746   0.3869   0.3975
  0.4081   0.4217   0.4290   0.4433   0.4544   0.4758   0.4874   0.5225
  0.5459   0.5471   0.5758   0.5818   0.5923   0.5952   0.6086   0.6108
  0.6155   0.6249   0.6284   0.6508   0.6566   0.6660   0.6776   0.6847
  0.6924   0.7077   0.7113   0.7277   0.7308   0.7338   0.7364   0.7430
  0.7544   0.7712   0.7776   0.7797   0.7896   0.8058   0.8268   0.8316
  0.8369   0.8466   0.8608   0.8730   0.8802   0.8867   0.8998   0.9141
  0.9305   0.9480   0.9670   1.0096   1.0302   1.0367   1.0390   1.0648
  1.0684   1.0965   1.1057   1.1115   1.1203   1.1346   1.1601   1.1702
  1.1807   1.1879   1.2003   1.2152   1.2304   1.2499   1.2599   1.2681
  1.2857   1.3064   1.3275   1.3427   1.3521   1.3576   1.3862   1.3872
  1.4009   1.4077   1.4201   1.4328   1.4400   1.4517   1.4534   1.4638
  1.4766   1.4928   1.5003   1.5260   1.5476   1.5592   1.5615   1.5817
  1.5877   1.6000   1.6040   1.6470   1.6518   1.6932   1.7250   1.7572
  1.7662   1.7909   1.8041   1.8145   1.8406   1.8805   1.9191   1.9531
  1.9800   2.0109   2.0312   2.0582   2.0874   2.1160   2.1247   2.1352
  2.1826   2.2072   2.2715   2.3891   2.3945   2.4168   2.5624   2.5909
  2.6063   2.6379   2.6868   2.7061   2.7425   2.7620   2.7989   2.8078
  2.8139   2.8242   2.8297   2.8557   2.8621   2.8716   2.8790   2.8974
  2.9044   2.9250   2.9279   2.9334   2.9617   2.9735   2.9889   2.9962
  3.0133   3.0206   3.0403   3.0988   3.1385   3.1666   3.1711   3.1870
  3.1968   3.2127   3.2256   3.2442   3.2494   3.2529   3.2701   3.2804
  3.2933   3.3091   3.3422   3.3573   3.3758   3.3808   3.3973   3.4246
  3.4335   3.4536   3.4751   3.4783   3.4942   3.4978   3.5123   3.5166
  3.5516   3.5610   3.5936   3.6095   3.6198   3.6472   3.6581   3.6771
  3.7073   3.7377   3.7501   3.7884   3.8000   3.8070   3.8152   3.8323
  3.8339   3.8458   3.8772   3.8972   3.9028   3.9175   3.9251   3.9525
  3.9642   3.9737   4.0012   4.0251   4.0590   4.0720   4.0955   4.1207
  4.1367   4.1572   4.1776   4.1936   4.2101   4.2333   4.2718   4.2852
  4.2992   4.3371   4.3535   4.3731   4.3925   4.4093   4.4392   4.4712
  4.4768   4.5035   4.5148   4.5343   4.5410   4.5552   4.5758   4.5857
  4.6009   4.6112   4.6469   4.7018   4.7540   4.7774   4.8023   4.8292
  4.8685   4.9666   5.0462   5.1176   5.1671   5.1745   5.1797   5.2163
  5.2495   5.2563   5.2861   5.2997   5.3096   5.3284   5.3342   5.3435
  5.3926   5.4205   5.4714   5.5094   5.5378   5.5400   5.5930   5.6834
  5.6981   5.7132   5.7405   5.7692   5.8052   5.8659   5.8842   5.9070
  5.9675   6.0755   6.2632   6.6022   6.6460   7.0653   7.1132   7.1392
  7.1988   7.2495   7.3186   7.3215   7.3368   7.4591   7.6225   7.6795
  7.7999  24.2049  24.7534  24.7988  24.8160  24.9868  25.0711  25.4948
 50.5487  50.6059
 --------------------------------------------------------------
 
          Ground-State Mulliken Net Atomic Charges

     Atom                 Charge (a.u.)    Spin (a.u.)
  --------------------------------------------------------
      1 C                     0.022423       0.167319
      2 C                    -0.496154      -0.071467
      3 C                    -0.242522       0.200734
      4 C                    -0.484930      -0.085560
      5 C                    -0.549321       0.215982
      6 C                     0.498465      -0.027921
      7 C                    -0.362153       0.003663
      8 H                     0.293594      -0.004905
      9 H                     0.283631       0.002461
     10 H                     0.285026      -0.003682
     11 H                     0.287605       0.002627
     12 H                     0.288850      -0.004976
     13 H                     0.199056      -0.002256
     14 O                    -0.422660       0.002022
     15 H                     0.248218       0.000892
     16 H                     0.340596      -0.000123
     17 O                    -0.510534       0.613866
     18 H                     0.320811      -0.008675
  --------------------------------------------------------
  Sum of atomic charges =     0.000000
  Sum of spin   charges =     1.000000

 -----------------------------------------------------------------
                    Cartesian Multipole Moments
 -----------------------------------------------------------------
    Charge (ESU x 10^10)
                 0.0000
    Dipole Moment (Debye)
         X      -5.4689      Y       1.2546      Z      -0.7034
       Tot       5.6549
    Quadrupole Moments (Debye-Ang)
        XX     -54.7452     XY       4.2612     YY     -51.0828
        XZ       3.0983     YZ       0.9043     ZZ     -43.8581
    Octopole Moments (Debye-Ang^2)
       XXX     130.8916    XXY      12.7082    XYY      22.5339
       YYY      55.2336    XXZ      -5.5964    XYZ      11.0380
       YYZ       5.0810    XZZ      23.0876    YZZ      11.8269
       ZZZ      -4.9207
    Hexadecapole Moments (Debye-Ang^3)
      XXXX    -633.9855   XXXY    -141.8071   XXYY    -161.0735
      XYYY    -121.2334   YYYY    -567.1378   XXXZ      97.3370
      XXYZ      29.5512   XYYZ      30.5600   YYYZ     118.3858
      XXZZ    -180.5723   XYZZ     -51.9508   YYZZ    -190.0700
      XZZZ     110.3146   YZZZ     109.5061   ZZZZ    -496.9060
 -----------------------------------------------------------------
 Calculating analytic gradient of the SCF energy
 Gradient of CDS energy
            1           2           3           4           5           6
    1   0.0000620   0.0000274  -0.0002187  -0.0001815  -0.0000827   0.0003136
    2   0.0002816   0.0000650  -0.0004031  -0.0003227   0.0001461  -0.0000761
    3   0.0000472   0.0004802   0.0002533  -0.0002970  -0.0002345  -0.0000539
            7           8           9          10          11          12
    1   0.0000734   0.0001007  -0.0000034  -0.0000870  -0.0000885   0.0000385
    2   0.0009761   0.0001445   0.0000003  -0.0001557  -0.0001560   0.0000139
    3  -0.0001893   0.0000536   0.0002073   0.0001032  -0.0001036  -0.0000739
           13          14          15          16          17          18
    1  -0.0002516  -0.0000876   0.0001983  -0.0000366  -0.0001532   0.0003769
    2  -0.0001125  -0.0002214  -0.0002162   0.0001063   0.0000595  -0.0001297
    3  -0.0000030   0.0002736   0.0001532  -0.0005108   0.0001725  -0.0002781
 Gradient of SCF Energy
            1           2           3           4           5           6
    1  -0.0060172  -0.0003367   0.0028915   0.0022686  -0.0007984   0.0062334
    2  -0.0016008   0.0002524   0.0047975   0.0019506  -0.0031151  -0.0011758
    3  -0.0071456  -0.0075276  -0.0024922   0.0041232   0.0101127   0.0131589
            7           8           9          10          11          12
    1   0.0060424   0.0008623  -0.0005994  -0.0032102  -0.0033288  -0.0012304
    2  -0.0052261   0.0044673   0.0000562  -0.0048790  -0.0048225   0.0010332
    3  -0.0077502   0.0023320   0.0055485   0.0033557  -0.0035414  -0.0115225
           13          14          15          16          17          18
    1  -0.0080438   0.0182841  -0.0005184  -0.0155545   0.0051234  -0.0020679
    2   0.0054438   0.0058670   0.0032830  -0.0035685  -0.0023280  -0.0004352
    3  -0.0011242   0.0094347   0.0028189  -0.0087420   0.0001629  -0.0012018
 Max gradient component =       1.828E-02
 RMS gradient           =       5.910E-03
 Computing fast CPCM-SWIG gradient
 Updating gradient with PCM contributions...
 -- total gradient after adding PCM contribution --
---------------------------------------------------
  Atom         X              Y              Z     
---------------------------------------------------
   1       0.000520       0.000519      -0.000014
   2      -0.000212      -0.000182       0.000137
   3      -0.000042      -0.000062      -0.000048
   4      -0.000047       0.000001       0.000048
   5      -0.000026      -0.000001      -0.000061
   6      -0.000211       0.000013       0.000057
   7       0.000054      -0.000043       0.000002
   8      -0.000175      -0.000188      -0.000123
   9       0.000010      -0.000002      -0.000015
  10      -0.000002      -0.000006       0.000004
  11      -0.000011       0.000006       0.000007
  12      -0.000016       0.000012      -0.000005
  13       0.000024       0.000011       0.000021
  14       0.000098       0.000177       0.000043
  15       0.000048      -0.000006      -0.000016
  16      -0.000058      -0.000139      -0.000057
  17       0.000068      -0.000014      -0.000104
  18      -0.000022      -0.000096       0.000124
---------------------------------------------------
 Number of fixed atoms: 0
 Gradient time:  CPU 319.90 s  wall 45.82 s
 ----------------------------------------------------------------
             Standard Nuclear Orientation (Angstroms)
    I     Atom           X                Y                Z
 ----------------------------------------------------------------
    1      C      -0.8320754451     0.1509603146     1.3093907329
    2      C      -1.4120055601    -0.8921755864     1.9896700104
    3      C      -1.9868045686    -1.9553395540     1.2855605997
    4      C      -1.9877030975    -1.9573239331    -0.1043068545
    5      C      -1.4043429108    -0.9135568858    -0.7970489634
    6      C      -0.7711669069     0.1424518608    -0.1043138726
    7      C      -0.3751189910     1.4135656787    -0.8159855675
    8      H      -0.3881055362     0.9807512944     1.8452198149
    9      H      -1.4298862379    -0.8906848464     3.0708686732
   10      H      -2.4430952802    -2.7726055246     1.8269513952
   11      H      -2.4495696300    -2.7714800783    -0.6450870285
   12      H      -1.4123477259    -0.9078898075    -1.8791718772
   13      H      -1.2390048778     2.0814073835    -0.8504992322
   14      O       0.1302499620     1.1991022628    -2.1268953221
   15      H       0.4078125748     1.9107336308    -0.2475801204
   16      H      -0.6096699429     1.0561144877    -2.7258527717
   17      O       1.1337396770    -0.7751381791    -0.2587517663
   18      H       1.1675632808    -0.5606097504    -1.2041027546
 ----------------------------------------------------------------
 Nuclear Repulsion Energy =         439.11153482 hartrees
 There are       34 alpha and       33 beta electrons
 Discretize the solute cavity surface with Lebedev spheres
	Using 110 Lebedev grid points for each H atom
	Using 194 Lebedev grid points for other atoms
	Atomic van der Waals radii will be scaled by 1.20
 Remove points where switching function is < 1.0e-08
 Keep 1332 surface tesserae and discard 1404 interior tesserae
 Molecular Surface Area = 155.293 Angst**2
 Requested basis set is 6-311++G(2df,2p)
 There are 126 shells and 396 basis functions
 A cutoff of  1.0D-12 yielded   7325 shell pairs
 There are     73211 function pairs (     90849 Cartesian)
 Smallest overlap matrix eigenvalue = 7.93E-07
 Linear dependence detected in AO basis
 Tighter screening thresholds may be required for diffuse basis sets
 Use S2THRESH > 14 and THRESH = 14 in case of SCF convergence issues
 Number of orthogonalized atomic orbitals = 395
 Maximum deviation from orthogonality = 7.841E-11
 Guess MOs from SCF MO coefficient file

 -----------------------------------------------------------------------
  General SCF calculation program by
  Eric Jon Sundstrom, Paul Horn, Yuezhi Mao, Dmitri Zuev, Alec White,
  David Stuck, Shaama M.S., Shane Yost, Joonho Lee, David Small,
  Daniel Levine, Susi Lehtola, Hugh Burton, Evgeny Epifanovsky,
  Bang C. Huynh
 -----------------------------------------------------------------------
 Exchange:     0.1500 Hartree-Fock + 1.0000 wB97M-V + LR-HF
 Correlation:  1.0000 wB97M-V
 Using SG-2 standard quadrature grid
 Nonlocal Correlation:  VV10 with C = 0.0100 and b = 6.00 and scale = 1.00000
 Grid used for NLC:  SG-1 standard quadrature
 
 Citation of the SMD model:
 Marenich, A.V.; Cramer, C.J.; Truhlar, D.G.
 J. Phys. Chem. B 2009, 113, 6378-6396.
 iSolventCode=           1
 Solvent: water                                                           
 
 vradii
            1           2           3           4           5           6
    1   1.8500000   1.8500000   1.8500000   1.8500000   1.8500000   1.8500000
            7           8           9          10          11          12
    1   1.8500000   1.2000000   1.2000000   1.2000000   1.2000000   1.2000000
           13          14          15          16          17          18
    1   1.2000000   1.5200000   1.2000000   1.2000000   1.5200000   1.2000000
 -------------------------------------------------------
 OpenMP BLAS3 based DFT computing Module                
 Release: version 1.0, May 2013, Q-Chem Inc. Pittsburgh 
 -------------------------------------------------------
 A unrestricted SCF calculation will be
 performed using Roothaan-Hall, DIIS, GDM
 SCF converges when RMS gradient is below 1.0e-07
 ---------------------------------------
  Cycle       Energy         DIIS error
 ---------------------------------------
    1    -422.4701408109      2.33e-04  Roothaan Step
 ---------------------------------------
  Cycle       Energy         DIIS error
 ---------------------------------------
    1    -422.4972730520      2.85e-04  
    2    -422.5023394782      2.82e-04  Done DIIS. Switching to GDM
 ---------------------------------------
  Cycle       Energy        RMS Gradient
 ---------------------------------------
    1    -422.5023394782      2.40e-02   Normal BFGS step
    2    -422.5013605947      4.23e-02  Line search: overstep
    3    -422.5064553702      8.01e-03   Normal BFGS step
    4    -422.5066659262      3.46e-03   Normal BFGS step
    5    -422.5067356364      3.11e-03   Normal BFGS step
    6    -422.5067570809      1.91e-03   Normal BFGS step
    7    -422.5067728454      6.11e-04   Normal BFGS step
    8    -422.5067765955      3.27e-04   Normal BFGS step
    9    -422.5067774228      1.57e-04   Normal BFGS step
   10    -422.5067776556      1.23e-04   Normal BFGS step
   11    -422.5067777841      4.91e-05   Normal BFGS step
   12    -422.5067778264      3.65e-05   Normal BFGS step
   13    -422.5067778375      2.66e-05   Normal BFGS step
   14    -422.5067778426      2.02e-05   Normal BFGS step
   15    -422.5067778459      1.08e-05   Normal BFGS step
   16    -422.5067778470      7.73e-06   Normal BFGS step
   17    -422.5067778475      4.09e-06   Normal BFGS step
   18    -422.5067778476      2.28e-06   Normal BFGS step
   19    -422.5067778477      6.48e-07   Normal BFGS step
   20    -422.5067778477      2.71e-07   Normal BFGS step
   21    -422.5067778477      1.48e-07   Normal BFGS step
   22    -422.5067778477      9.05e-08  Convergence criterion met
 ---------------------------------------
 SCF time:   CPU 2553.15s  wall 328.00s 
<S^2> =          0.780859396
(3)  G-ENP(liq) elect-nuc-pol free energy of system     -422.506777848 a.u.
(4)  G-CDS(liq) cavity-dispersion-solvent structure 
     free energy                                                3.4226 kcal/mol
(6)  G-S(liq) free energy of system                     -422.501323639 a.u.
 SCF   energy in the final basis set =     -422.5013236394
 Total energy in the final basis set =     -422.5013236394
 
 --------------------------------------------------------------
 
                    Orbital Energies (a.u.)
 --------------------------------------------------------------
 
 Alpha MOs
 -- Occupied --
-19.3430 -19.3373 -10.3921 -10.3831 -10.3592 -10.3574 -10.3554 -10.3484
-10.3471  -1.1627  -1.0924  -0.9955  -0.8991  -0.8811  -0.8052  -0.7296
 -0.7108  -0.6440  -0.6204  -0.5843  -0.5708  -0.5584  -0.5373  -0.5327
 -0.5244  -0.5056  -0.4645  -0.4527  -0.4448  -0.4391  -0.4181  -0.3978
 -0.3561  -0.3195
 -- Virtual --
  0.0239   0.0347   0.0368   0.0459   0.0528   0.0553   0.0564   0.0616
  0.0750   0.0860   0.0880   0.1007   0.1082   0.1287   0.1346   0.1365
  0.1494   0.1547   0.1549   0.1573   0.1622   0.1626   0.1689   0.1716
  0.1782   0.1803   0.1921   0.2000   0.2076   0.2161   0.2179   0.2202
  0.2280   0.2411   0.2505   0.2575   0.2609   0.2622   0.2783   0.2818
  0.2923   0.2957   0.3047   0.3076   0.3287   0.3335   0.3389   0.3429
  0.3482   0.3494   0.3539   0.3589   0.3731   0.3867   0.3965   0.4070
  0.4204   0.4279   0.4417   0.4531   0.4734   0.4860   0.5209   0.5446
  0.5457   0.5742   0.5803   0.5901   0.5931   0.6073   0.6077   0.6136
  0.6231   0.6267   0.6486   0.6540   0.6635   0.6746   0.6831   0.6903
  0.7055   0.7086   0.7262   0.7293   0.7323   0.7357   0.7424   0.7524
  0.7709   0.7753   0.7780   0.7887   0.8023   0.8249   0.8275   0.8378
  0.8439   0.8579   0.8693   0.8786   0.8848   0.8980   0.9127   0.9295
  0.9452   0.9659   1.0085   1.0273   1.0350   1.0363   1.0635   1.0647
  1.0956   1.1041   1.1085   1.1184   1.1340   1.1577   1.1669   1.1793
  1.1855   1.1977   1.2142   1.2296   1.2472   1.2543   1.2672   1.2847
  1.3042   1.3235   1.3366   1.3498   1.3531   1.3807   1.3849   1.3973
  1.4008   1.4155   1.4299   1.4376   1.4482   1.4520   1.4606   1.4746
  1.4899   1.4984   1.5233   1.5438   1.5553   1.5598   1.5789   1.5855
  1.5967   1.6016   1.6458   1.6480   1.6912   1.7233   1.7550   1.7635
  1.7836   1.7956   1.8130   1.8279   1.8729   1.9135   1.9412   1.9702
  2.0085   2.0216   2.0530   2.0837   2.1084   2.1193   2.1310   2.1774
  2.2007   2.2694   2.3860   2.3921   2.4142   2.5595   2.5854   2.6044
  2.6358   2.6833   2.7005   2.7391   2.7548   2.7929   2.8036   2.8104
  2.8174   2.8265   2.8501   2.8556   2.8660   2.8745   2.8936   2.9007
  2.9182   2.9212   2.9291   2.9542   2.9689   2.9828   2.9916   3.0080
  3.0129   3.0324   3.0959   3.1375   3.1626   3.1661   3.1827   3.1956
  3.2090   3.2215   3.2426   3.2441   3.2477   3.2677   3.2764   3.2899
  3.3057   3.3382   3.3521   3.3723   3.3744   3.3932   3.4204   3.4305
  3.4486   3.4688   3.4739   3.4909   3.4939   3.5084   3.5128   3.5459
  3.5575   3.5892   3.6027   3.6157   3.6402   3.6542   3.6741   3.7043
  3.7335   3.7469   3.7835   3.7949   3.8056   3.8116   3.8266   3.8314
  3.8414   3.8720   3.8932   3.8994   3.9134   3.9206   3.9468   3.9600
  3.9684   3.9976   4.0221   4.0546   4.0692   4.0904   4.1181   4.1323
  4.1546   4.1727   4.1913   4.2067   4.2308   4.2689   4.2809   4.2955
  4.3322   4.3500   4.3687   4.3889   4.4075   4.4376   4.4661   4.4741
  4.4966   4.5078   4.5285   4.5345   4.5494   4.5714   4.5800   4.5964
  4.6057   4.6427   4.6981   4.7498   4.7721   4.7969   4.8228   4.8657
  4.9590   5.0392   5.1061   5.1481   5.1590   5.1662   5.2000   5.2104
  5.2293   5.2684   5.2727   5.2917   5.3098   5.3261   5.3350   5.3707
  5.4039   5.4496   5.4739   5.5274   5.5340   5.5901   5.6679   5.6849
  5.7018   5.7321   5.7583   5.7992   5.8539   5.8775   5.9026   5.9658
  6.0746   6.2574   6.5977   6.6457   7.0307   7.0607   7.1016   7.1435
  7.1938   7.2999   7.3178   7.3269   7.4393   7.5850   7.6684   7.7992
 24.2037  24.7522  24.7981  24.8154  24.9851  25.0713  25.4938  50.5370
 50.6052
 
 Beta MOs
 -- Occupied --
-19.3430 -19.3199 -10.3919 -10.3828 -10.3561 -10.3544 -10.3529 -10.3497
-10.3486  -1.1625  -1.0531  -0.9902  -0.8954  -0.8786  -0.8021  -0.7271
 -0.7087  -0.6426  -0.6183  -0.5823  -0.5684  -0.5462  -0.5315  -0.5273
 -0.5221  -0.4846  -0.4619  -0.4497  -0.4405  -0.4013  -0.3943  -0.3586
 -0.3467
 -- Virtual --
 -0.0610   0.0240   0.0350   0.0370   0.0505   0.0534   0.0555   0.0651
  0.0701   0.0793   0.0860   0.0886   0.1008   0.1088   0.1296   0.1350
  0.1370   0.1495   0.1548   0.1556   0.1583   0.1626   0.1634   0.1692
  0.1740   0.1789   0.1811   0.1922   0.2008   0.2077   0.2163   0.2179
  0.2202   0.2288   0.2417   0.2516   0.2587   0.2613   0.2641   0.2796
  0.2833   0.2930   0.2960   0.3056   0.3081   0.3325   0.3346   0.3394
  0.3439   0.3488   0.3502   0.3556   0.3603   0.3746   0.3869   0.3975
  0.4081   0.4216   0.4291   0.4432   0.4545   0.4758   0.4874   0.5224
  0.5458   0.5471   0.5757   0.5817   0.5924   0.5952   0.6086   0.6108
  0.6155   0.6250   0.6285   0.6508   0.6566   0.6660   0.6776   0.6846
  0.6924   0.7077   0.7115   0.7278   0.7308   0.7337   0.7365   0.7430
  0.7543   0.7711   0.7776   0.7798   0.7897   0.8059   0.8267   0.8316
  0.8369   0.8467   0.8608   0.8730   0.8802   0.8869   0.8999   0.9142
  0.9304   0.9481   0.9670   1.0096   1.0303   1.0368   1.0390   1.0648
  1.0683   1.0965   1.1057   1.1115   1.1202   1.1346   1.1601   1.1702
  1.1808   1.1880   1.2002   1.2150   1.2304   1.2500   1.2600   1.2682
  1.2857   1.3064   1.3273   1.3428   1.3520   1.3576   1.3861   1.3872
  1.4011   1.4077   1.4200   1.4327   1.4400   1.4517   1.4536   1.4638
  1.4766   1.4926   1.5001   1.5259   1.5475   1.5593   1.5616   1.5817
  1.5877   1.5998   1.6041   1.6470   1.6517   1.6932   1.7252   1.7574
  1.7662   1.7909   1.8041   1.8145   1.8405   1.8804   1.9189   1.9532
  1.9795   2.0110   2.0310   2.0585   2.0875   2.1161   2.1247   2.1350
  2.1828   2.2069   2.2713   2.3891   2.3944   2.4169   2.5622   2.5912
  2.6065   2.6381   2.6870   2.7065   2.7426   2.7621   2.7991   2.8077
  2.8139   2.8241   2.8298   2.8558   2.8621   2.8714   2.8789   2.8975
  2.9044   2.9251   2.9280   2.9330   2.9615   2.9736   2.9890   2.9963
  3.0133   3.0206   3.0405   3.0989   3.1385   3.1668   3.1709   3.1872
  3.1968   3.2129   3.2252   3.2443   3.2497   3.2528   3.2701   3.2803
  3.2932   3.3088   3.3422   3.3573   3.3759   3.3806   3.3973   3.4247
  3.4337   3.4538   3.4750   3.4783   3.4942   3.4977   3.5124   3.5170
  3.5518   3.5610   3.5937   3.6093   3.6197   3.6471   3.6582   3.6773
  3.7074   3.7376   3.7500   3.7884   3.7999   3.8072   3.8152   3.8321
  3.8340   3.8456   3.8772   3.8972   3.9029   3.9176   3.9251   3.9525
  3.9641   3.9738   4.0012   4.0249   4.0591   4.0717   4.0954   4.1209
  4.1368   4.1572   4.1776   4.1934   4.2099   4.2334   4.2719   4.2852
  4.2994   4.3370   4.3535   4.3727   4.3923   4.4097   4.4393   4.4714
  4.4768   4.5035   4.5147   4.5346   4.5411   4.5556   4.5756   4.5861
  4.6012   4.6115   4.6470   4.7019   4.7540   4.7776   4.8022   4.8295
  4.8687   4.9667   5.0465   5.1173   5.1671   5.1746   5.1796   5.2166
  5.2495   5.2565   5.2861   5.2996   5.3095   5.3282   5.3342   5.3435
  5.3927   5.4203   5.4712   5.5094   5.5379   5.5401   5.5928   5.6834
  5.6980   5.7132   5.7404   5.7692   5.8050   5.8661   5.8836   5.9073
  5.9677   6.0755   6.2629   6.6024   6.6460   7.0653   7.1131   7.1392
  7.1988   7.2496   7.3186   7.3215   7.3368   7.4591   7.6225   7.6795
  7.7999  24.2045  24.7529  24.7991  24.8159  24.9867  25.0723  25.4952
 50.5487  50.6059
 --------------------------------------------------------------
 
          Ground-State Mulliken Net Atomic Charges

     Atom                 Charge (a.u.)    Spin (a.u.)
  --------------------------------------------------------
      1 C                     0.024228       0.166849
      2 C                    -0.496393      -0.071215
      3 C                    -0.242340       0.200987
      4 C                    -0.485401      -0.085628
      5 C                    -0.548360       0.216475
      6 C                     0.495507      -0.028097
      7 C                    -0.360803       0.003636
      8 H                     0.292833      -0.004891
      9 H                     0.283679       0.002462
     10 H                     0.285017      -0.003684
     11 H                     0.287539       0.002628
     12 H                     0.288952      -0.004974
     13 H                     0.199185      -0.002262
     14 O                    -0.422541       0.002021
     15 H                     0.248141       0.000896
     16 H                     0.340586      -0.000123
     17 O                    -0.510751       0.613608
     18 H                     0.320923      -0.008687
  --------------------------------------------------------
  Sum of atomic charges =     0.000000
  Sum of spin   charges =     1.000000

 -----------------------------------------------------------------
                    Cartesian Multipole Moments
 -----------------------------------------------------------------
    Charge (ESU x 10^10)
                 0.0000
    Dipole Moment (Debye)
         X      -5.4710      Y       1.2528      Z      -0.7033
       Tot       5.6565
    Quadrupole Moments (Debye-Ang)
        XX     -54.7421     XY       4.2646     YY     -51.0834
        XZ       3.0977     YZ       0.8971     ZZ     -43.8545
    Octopole Moments (Debye-Ang^2)
       XXX     130.9085    XXY      12.7048    XYY      22.5442
       YYY      55.2298    XXZ      -5.5916    XYZ      11.0439
       YYZ       5.0813    XZZ      23.0915    YZZ      11.8114
       ZZZ      -4.9125
    Hexadecapole Moments (Debye-Ang^3)
      XXXX    -634.0582   XXXY    -141.7877   XXYY    -161.0944
      XYYY    -121.2254   YYYY    -567.1516   XXXZ      97.3654
      XXYZ      29.5382   XYYZ      30.5748   YYYZ     118.3613
      XXZZ    -180.5703   XYZZ     -51.9308   YYZZ    -190.0602
      XZZZ     110.3390   YZZZ     109.4542   ZZZZ    -496.8589
 -----------------------------------------------------------------
 Calculating analytic gradient of the SCF energy
 Gradient of CDS energy
            1           2           3           4           5           6
    1   0.0000600   0.0000285  -0.0002187  -0.0001815  -0.0000825   0.0003134
    2   0.0002809   0.0000653  -0.0004030  -0.0003227   0.0001461  -0.0000759
    3   0.0000467   0.0004797   0.0002535  -0.0002970  -0.0002345  -0.0000537
            7           8           9          10          11          12
    1   0.0000737   0.0001013  -0.0000034  -0.0000870  -0.0000885   0.0000385
    2   0.0009759   0.0001450   0.0000003  -0.0001557  -0.0001560   0.0000139
    3  -0.0001896   0.0000541   0.0002074   0.0001032  -0.0001036  -0.0000739
           13          14          15          16          17          18
    1  -0.0002517  -0.0000876   0.0001983  -0.0000366  -0.0001532   0.0003769
    2  -0.0001125  -0.0002214  -0.0002162   0.0001063   0.0000595  -0.0001297
    3  -0.0000027   0.0002736   0.0001533  -0.0005108   0.0001726  -0.0002781
 Gradient of SCF Energy
            1           2           3           4           5           6
    1  -0.0070606   0.0001047   0.0029207   0.0023099  -0.0008850   0.0064846
    2  -0.0025636   0.0006054   0.0049171   0.0019907  -0.0031105  -0.0011012
    3  -0.0071595  -0.0077976  -0.0024239   0.0040490   0.0101676   0.0132274
            7           8           9          10          11          12
    1   0.0060469   0.0012107  -0.0006149  -0.0032300  -0.0033280  -0.0012412
    2  -0.0052170   0.0048184   0.0000569  -0.0048685  -0.0048251   0.0010512
    3  -0.0077575   0.0025370   0.0055569   0.0033660  -0.0035441  -0.0115203
           13          14          15          16          17          18
    1  -0.0080436   0.0182898  -0.0005255  -0.0155545   0.0051897  -0.0020736
    2   0.0054446   0.0058741   0.0032819  -0.0035683  -0.0023546  -0.0004315
    3  -0.0011285   0.0094159   0.0028109  -0.0087432   0.0001521  -0.0012082
 Max gradient component =       1.829E-02
 RMS gradient           =       5.965E-03
 Computing fast CPCM-SWIG gradient
 Updating gradient with PCM contributions...
 -- total gradient after adding PCM contribution --
---------------------------------------------------
  Atom         X              Y              Z     
---------------------------------------------------
   1      -0.000544      -0.000443      -0.000008
   2       0.000229       0.000177      -0.000126
   3      -0.000001       0.000070       0.000027
   4      -0.000010       0.000030      -0.000027
   5      -0.000081      -0.000033       0.000016
   6       0.000023       0.000108       0.000081
   7       0.000046      -0.000043      -0.000024
   8       0.000169       0.000176       0.000091
   9      -0.000005       0.000000      -0.000012
  10      -0.000018       0.000009       0.000010
  11      -0.000010       0.000005       0.000006
  12      -0.000026       0.000029      -0.000000
  13       0.000024       0.000013       0.000019
  14       0.000101       0.000183       0.000027
  15       0.000047      -0.000008      -0.000020
  16      -0.000057      -0.000138      -0.000057
  17       0.000141      -0.000043      -0.000120
  18      -0.000029      -0.000093       0.000117
---------------------------------------------------
 Number of fixed atoms: 0
 Gradient time:  CPU 328.44 s  wall 47.14 s
 ----------------------------------------------------------------
             Standard Nuclear Orientation (Angstroms)
    I     Atom           X                Y                Z
 ----------------------------------------------------------------
    1      C      -0.8310754451     0.1519603146     1.3093907329
    2      C      -1.4120055601    -0.8921755864     1.9896700104
    3      C      -1.9868045686    -1.9553395540     1.2855605997
    4      C      -1.9877030975    -1.9573239331    -0.1043068545
    5      C      -1.4043429108    -0.9135568858    -0.7970489634
    6      C      -0.7711669069     0.1424518608    -0.1043138726
    7      C      -0.3751189910     1.4135656787    -0.8159855675
    8      H      -0.3881055362     0.9807512944     1.8452198149
    9      H      -1.4298862379    -0.8906848464     3.0708686732
   10      H      -2.4430952802    -2.7726055246     1.8269513952
   11      H      -2.4495696300    -2.7714800783    -0.6450870285
   12      H      -1.4123477259    -0.9078898075    -1.8791718772
   13      H      -1.2390048778     2.0814073835    -0.8504992322
   14      O       0.1302499620     1.1991022628    -2.1268953221
   15      H       0.4078125748     1.9107336308    -0.2475801204
   16      H      -0.6096699429     1.0561144877    -2.7258527717
   17      O       1.1337396770    -0.7751381791    -0.2587517663
   18      H       1.1675632808    -0.5606097504    -1.2041027546
 ----------------------------------------------------------------
 Nuclear Repulsion Energy =         439.09762831 hartrees
 There are       34 alpha and       33 beta electrons
 Discretize the solute cavity surface with Lebedev spheres
	Using 110 Lebedev grid points for each H atom
	Using 194 Lebedev grid points for other atoms
	Atomic van der Waals radii will be scaled by 1.20
 Remove points where switching function is < 1.0e-08
 Keep 1332 surface tesserae and discard 1404 interior tesserae
 Molecular Surface Area = 155.292 Angst**2
 Requested basis set is 6-311++G(2df,2p)
 There are 126 shells and 396 basis functions
 A cutoff of  1.0D-12 yielded   7325 shell pairs
 There are     73211 function pairs (     90849 Cartesian)
 Smallest overlap matrix eigenvalue = 7.94E-07
 Linear dependence detected in AO basis
 Tighter screening thresholds may be required for diffuse basis sets
 Use S2THRESH > 14 and THRESH = 14 in case of SCF convergence issues
 Number of orthogonalized atomic orbitals = 395
 Maximum deviation from orthogonality = 6.262E-11
 Guess MOs from SCF MO coefficient file

 -----------------------------------------------------------------------
  General SCF calculation program by
  Eric Jon Sundstrom, Paul Horn, Yuezhi Mao, Dmitri Zuev, Alec White,
  David Stuck, Shaama M.S., Shane Yost, Joonho Lee, David Small,
  Daniel Levine, Susi Lehtola, Hugh Burton, Evgeny Epifanovsky,
  Bang C. Huynh
 -----------------------------------------------------------------------
 Exchange:     0.1500 Hartree-Fock + 1.0000 wB97M-V + LR-HF
 Correlation:  1.0000 wB97M-V
 Using SG-2 standard quadrature grid
 Nonlocal Correlation:  VV10 with C = 0.0100 and b = 6.00 and scale = 1.00000
 Grid used for NLC:  SG-1 standard quadrature
 
 Citation of the SMD model:
 Marenich, A.V.; Cramer, C.J.; Truhlar, D.G.
 J. Phys. Chem. B 2009, 113, 6378-6396.
 iSolventCode=           1
 Solvent: water                                                           
 
 vradii
            1           2           3           4           5           6
    1   1.8500000   1.8500000   1.8500000   1.8500000   1.8500000   1.8500000
            7           8           9          10          11          12
    1   1.8500000   1.2000000   1.2000000   1.2000000   1.2000000   1.2000000
           13          14          15          16          17          18
    1   1.2000000   1.5200000   1.2000000   1.2000000   1.5200000   1.2000000
 -------------------------------------------------------
 OpenMP BLAS3 based DFT computing Module                
 Release: version 1.0, May 2013, Q-Chem Inc. Pittsburgh 
 -------------------------------------------------------
 A unrestricted SCF calculation will be
 performed using Roothaan-Hall, DIIS, GDM
 SCF converges when RMS gradient is below 1.0e-07
 ---------------------------------------
  Cycle       Energy         DIIS error
 ---------------------------------------
    1    -422.4701312565      2.33e-04  Roothaan Step
 ---------------------------------------
  Cycle       Energy         DIIS error
 ---------------------------------------
    1    -422.4972526728      2.86e-04  
    2    -422.5023225934      2.83e-04  Done DIIS. Switching to GDM
 ---------------------------------------
  Cycle       Energy        RMS Gradient
 ---------------------------------------
    1    -422.5023225934      2.42e-02   Normal BFGS step
    2    -422.5013364193      4.24e-02  Line search: overstep
    3    -422.5064564905      7.94e-03   Normal BFGS step
    4    -422.5066668586      3.40e-03   Normal BFGS step
    5    -422.5067361529      3.08e-03   Normal BFGS step
    6    -422.5067572726      1.90e-03   Normal BFGS step
    7    -422.5067728336      6.19e-04   Normal BFGS step
    8    -422.5067765816      3.30e-04   Normal BFGS step
    9    -422.5067774120      1.59e-04   Normal BFGS step
   10    -422.5067776503      1.23e-04   Normal BFGS step
   11    -422.5067777818      5.18e-05   Normal BFGS step
   12    -422.5067778254      3.79e-05   Normal BFGS step
   13    -422.5067778371      2.71e-05   Normal BFGS step
   14    -422.5067778425      2.03e-05   Normal BFGS step
   15    -422.5067778461      1.10e-05   Normal BFGS step
   16    -422.5067778473      7.80e-06   Normal BFGS step
   17    -422.5067778478      4.20e-06   Normal BFGS step
   18    -422.5067778479      2.32e-06   Normal BFGS step
   19    -422.5067778480      6.49e-07   Normal BFGS step
   20    -422.5067778480      2.82e-07   Normal BFGS step
   21    -422.5067778480      1.56e-07   Normal BFGS step
   22    -422.5067778480      9.45e-08  Convergence criterion met
 ---------------------------------------
 SCF time:   CPU 2552.17s  wall 327.00s 
<S^2> =          0.780865600
(3)  G-ENP(liq) elect-nuc-pol free energy of system     -422.506777848 a.u.
(4)  G-CDS(liq) cavity-dispersion-solvent structure 
     free energy                                                3.4230 kcal/mol
(6)  G-S(liq) free energy of system                     -422.501322992 a.u.
 SCF   energy in the final basis set =     -422.5013229924
 Total energy in the final basis set =     -422.5013229924
 
 --------------------------------------------------------------
 
                    Orbital Energies (a.u.)
 --------------------------------------------------------------
 
 Alpha MOs
 -- Occupied --
-19.3430 -19.3373 -10.3920 -10.3831 -10.3592 -10.3574 -10.3555 -10.3485
-10.3471  -1.1627  -1.0925  -0.9954  -0.8991  -0.8810  -0.8052  -0.7297
 -0.7108  -0.6440  -0.6204  -0.5842  -0.5709  -0.5585  -0.5373  -0.5327
 -0.5244  -0.5056  -0.4645  -0.4527  -0.4449  -0.4391  -0.4181  -0.3977
 -0.3560  -0.3195
 -- Virtual --
  0.0239   0.0347   0.0368   0.0459   0.0528   0.0553   0.0563   0.0616
  0.0750   0.0860   0.0880   0.1007   0.1082   0.1287   0.1346   0.1365
  0.1494   0.1547   0.1549   0.1573   0.1623   0.1626   0.1689   0.1716
  0.1782   0.1803   0.1921   0.2000   0.2076   0.2161   0.2179   0.2202
  0.2281   0.2411   0.2505   0.2575   0.2608   0.2622   0.2783   0.2818
  0.2923   0.2958   0.3047   0.3075   0.3287   0.3335   0.3390   0.3429
  0.3482   0.3494   0.3538   0.3588   0.3731   0.3867   0.3965   0.4070
  0.4204   0.4278   0.4418   0.4530   0.4734   0.4859   0.5209   0.5446
  0.5457   0.5742   0.5803   0.5901   0.5931   0.6074   0.6077   0.6135
  0.6231   0.6267   0.6486   0.6540   0.6635   0.6747   0.6832   0.6904
  0.7056   0.7085   0.7262   0.7293   0.7323   0.7357   0.7424   0.7525
  0.7708   0.7754   0.7780   0.7887   0.8022   0.8249   0.8275   0.8378
  0.8439   0.8579   0.8692   0.8786   0.8845   0.8979   0.9126   0.9295
  0.9451   0.9659   1.0086   1.0272   1.0350   1.0363   1.0635   1.0647
  1.0956   1.1041   1.1085   1.1184   1.1340   1.1577   1.1669   1.1793
  1.1855   1.1977   1.2143   1.2296   1.2472   1.2543   1.2672   1.2847
  1.3042   1.3235   1.3365   1.3498   1.3531   1.3807   1.3849   1.3973
  1.4007   1.4155   1.4298   1.4375   1.4481   1.4518   1.4605   1.4746
  1.4899   1.4984   1.5233   1.5438   1.5553   1.5597   1.5790   1.5856
  1.5970   1.6015   1.6458   1.6481   1.6912   1.7231   1.7548   1.7637
  1.7835   1.7955   1.8130   1.8278   1.8729   1.9134   1.9411   1.9704
  2.0084   2.0216   2.0529   2.0836   2.1085   2.1192   2.1310   2.1773
  2.2007   2.2692   2.3860   2.3920   2.4142   2.5595   2.5853   2.6044
  2.6356   2.6832   2.7004   2.7389   2.7548   2.7927   2.8036   2.8104
  2.8175   2.8266   2.8501   2.8555   2.8661   2.8746   2.8936   2.9008
  2.9182   2.9212   2.9293   2.9542   2.9690   2.9829   2.9917   3.0078
  3.0129   3.0324   3.0957   3.1375   3.1625   3.1663   3.1825   3.1956
  3.2089   3.2216   3.2425   3.2438   3.2478   3.2677   3.2766   3.2899
  3.3057   3.3381   3.3522   3.3725   3.3745   3.3931   3.4203   3.4303
  3.4484   3.4688   3.4739   3.4909   3.4941   3.5083   3.5125   3.5457
  3.5576   3.5892   3.6028   3.6158   3.6405   3.6539   3.6740   3.7041
  3.7335   3.7469   3.7836   3.7949   3.8053   3.8115   3.8267   3.8312
  3.8415   3.8719   3.8933   3.8992   3.9133   3.9204   3.9468   3.9599
  3.9681   3.9975   4.0222   4.0545   4.0692   4.0904   4.1180   4.1323
  4.1547   4.1727   4.1914   4.2070   4.2307   4.2689   4.2809   4.2957
  4.3323   4.3500   4.3690   4.3889   4.4074   4.4374   4.4660   4.4741
  4.4966   4.5080   4.5282   4.5340   4.5487   4.5716   4.5794   4.5961
  4.6055   4.6427   4.6980   4.7497   4.7719   4.7971   4.8222   4.8653
  4.9587   5.0386   5.1064   5.1480   5.1590   5.1663   5.1995   5.2104
  5.2292   5.2684   5.2729   5.2917   5.3101   5.3261   5.3350   5.3707
  5.4039   5.4496   5.4739   5.5273   5.5339   5.5903   5.6679   5.6849
  5.7018   5.7320   5.7583   5.7997   5.8536   5.8782   5.9022   5.9656
  6.0747   6.2576   6.5967   6.6457   7.0306   7.0607   7.1016   7.1435
  7.1937   7.2999   7.3178   7.3269   7.4393   7.5850   7.6684   7.7992
 24.2042  24.7527  24.7974  24.8154  24.9852  25.0697  25.4929  50.5369
 50.6052
 
 Beta MOs
 -- Occupied --
-19.3430 -19.3200 -10.3919 -10.3828 -10.3561 -10.3544 -10.3529 -10.3498
-10.3486  -1.1625  -1.0531  -0.9901  -0.8954  -0.8785  -0.8020  -0.7272
 -0.7086  -0.6426  -0.6183  -0.5822  -0.5685  -0.5462  -0.5315  -0.5274
 -0.5221  -0.4845  -0.4619  -0.4497  -0.4407  -0.4012  -0.3943  -0.3586
 -0.3467
 -- Virtual --
 -0.0610   0.0240   0.0350   0.0370   0.0505   0.0534   0.0555   0.0650
  0.0701   0.0793   0.0860   0.0886   0.1008   0.1088   0.1296   0.1350
  0.1370   0.1495   0.1549   0.1556   0.1583   0.1626   0.1634   0.1692
  0.1740   0.1789   0.1811   0.1922   0.2008   0.2077   0.2163   0.2179
  0.2202   0.2288   0.2417   0.2517   0.2587   0.2613   0.2641   0.2796
  0.2833   0.2930   0.2960   0.3056   0.3081   0.3325   0.3346   0.3395
  0.3439   0.3488   0.3502   0.3555   0.3603   0.3746   0.3869   0.3975
  0.4081   0.4216   0.4290   0.4433   0.4544   0.4758   0.4874   0.5224
  0.5458   0.5471   0.5757   0.5818   0.5924   0.5952   0.6086   0.6108
  0.6155   0.6249   0.6285   0.6508   0.6566   0.6660   0.6776   0.6846
  0.6924   0.7077   0.7114   0.7277   0.7308   0.7337   0.7365   0.7430
  0.7544   0.7711   0.7776   0.7798   0.7897   0.8058   0.8267   0.8316
[...]
 C          0.071 -0.035  0.005   -0.026  0.019  0.003    0.037  0.058  0.001
 C          0.004 -0.002 -0.002    0.001  0.001 -0.002   -0.007  0.019 -0.018
 C          0.001  0.003 -0.002   -0.000 -0.002 -0.007    0.025 -0.023 -0.023
 H          0.382 -0.219  0.004    0.253 -0.128 -0.012    0.090  0.213 -0.365
 H         -0.437  0.250 -0.005   -0.480  0.289  0.002    0.260  0.391  0.201
 H         -0.090  0.053 -0.012    0.489 -0.280  0.010   -0.149 -0.153  0.032
 H          0.497 -0.293  0.007   -0.401  0.235 -0.028    0.075  0.058 -0.505
 H         -0.361  0.208  0.010    0.182 -0.077  0.000    0.151  0.306 -0.002
 H          0.001  0.003  0.001    0.003  0.002 -0.004   -0.017 -0.074 -0.024
 O         -0.002  0.000  0.002   -0.002  0.001  0.006   -0.014  0.006  0.026
 H          0.003  0.002 -0.002   -0.000 -0.007 -0.002   -0.014  0.027 -0.013
 H          0.004 -0.003 -0.004    0.004 -0.000 -0.002   -0.000 -0.018  0.017
 O          0.002 -0.001  0.000    0.002 -0.001 -0.000   -0.001  0.000  0.001
 H         -0.032  0.011  0.002   -0.003  0.002  0.000   -0.028  0.011  0.002
 TransDip   0.001 -0.000 -0.015   -0.020  0.003 -0.014    0.056  0.059 -0.097

 Mode:                25                     26                     27
 Frequency:      1080.64                1112.90                1157.64
 Force Cnst:      3.6341                 1.1252                 0.9192
 Red. Mass:       5.2818                 1.5419                 1.1642
 IR Active:          YES                    YES                    YES
 IR Intens:      141.986                 18.399                  4.851
 Raman Active:       YES                    YES                    YES
               X      Y      Z        X      Y      Z        X      Y      Z
 C         -0.041 -0.025 -0.031   -0.042 -0.087 -0.000    0.002  0.010 -0.012
 C          0.027  0.041 -0.063    0.005  0.012 -0.060   -0.026 -0.049 -0.003
 C         -0.013 -0.031  0.061    0.018  0.033  0.073    0.016  0.029  0.074
 C         -0.004 -0.009 -0.026   -0.037 -0.068 -0.030    0.013  0.025 -0.056
 C          0.006  0.042 -0.041    0.028  0.054 -0.089   -0.005 -0.018 -0.001
 C          0.006 -0.103  0.099    0.007  0.035  0.050   -0.001 -0.003  0.004
 C         -0.188  0.126  0.370    0.018 -0.030 -0.047   -0.001 -0.001 -0.005
 H          0.068 -0.071 -0.065   -0.158 -0.259  0.345    0.054  0.070 -0.145
 H          0.172  0.308 -0.065    0.140  0.246 -0.064   -0.227 -0.403 -0.006
 H          0.015  0.074  0.249    0.122  0.233  0.465    0.152  0.294  0.590
 H          0.010  0.016 -0.083   -0.104 -0.180  0.180    0.134  0.214 -0.446
 H          0.233  0.272 -0.038    0.219  0.405 -0.095   -0.083 -0.111 -0.001
 H         -0.061  0.260  0.311   -0.004 -0.050  0.038    0.016  0.018 -0.027
 O          0.131 -0.071 -0.310   -0.023  0.012  0.041   -0.000  0.002  0.002
 H         -0.036 -0.079  0.326    0.064  0.030 -0.163    0.001 -0.013  0.004
 H         -0.073 -0.066 -0.084    0.138 -0.028 -0.142   -0.013  0.008  0.017
 O         -0.000 -0.000 -0.001   -0.001  0.001 -0.000   -0.002 -0.000 -0.002
 H          0.073 -0.056 -0.013   -0.005  0.004  0.000    0.029 -0.012 -0.004
 TransDip  -0.062 -0.042  0.374    0.112  0.054 -0.059    0.020  0.016  0.066

 Mode:                28                     29                     30
 Frequency:      1183.72                1212.47                1224.99
 Force Cnst:      0.9559                 0.9875                 2.3084
 Red. Mass:       1.1579                 1.1401                 2.6109
 IR Active:          YES                    YES                    YES
 IR Intens:       91.111                 31.147                 33.597
 Raman Active:       YES                    YES                    YES
               X      Y      Z        X      Y      Z        X      Y      Z
 C         -0.013 -0.028  0.041    0.007 -0.000 -0.014    0.018  0.026 -0.003
 C          0.019  0.035  0.011   -0.002 -0.004  0.019   -0.011 -0.016  0.095
 C          0.010  0.018 -0.008    0.005  0.010 -0.009    0.000 -0.003 -0.019
 C          0.004  0.010 -0.042   -0.003 -0.005 -0.010   -0.059 -0.100  0.014
 C         -0.018 -0.040  0.015   -0.009 -0.031  0.001    0.050  0.086 -0.007
 C          0.013  0.044 -0.041   -0.015  0.070 -0.002    0.084  0.210 -0.205
 C         -0.017 -0.024  0.001    0.020 -0.008  0.063   -0.051 -0.087  0.063
 H         -0.160 -0.256  0.513   -0.010 -0.002  0.003   -0.039 -0.042  0.171
 H          0.202  0.377  0.013   -0.002  0.027  0.020   -0.264 -0.455  0.100
 H          0.018  0.024  0.008   -0.002 -0.021 -0.063    0.033  0.059  0.110
 H          0.096  0.176 -0.368    0.006  0.039 -0.085   -0.143 -0.235  0.272
 H         -0.223 -0.385  0.014   -0.153 -0.240  0.001    0.033  0.041 -0.015
 H          0.027  0.028 -0.058   -0.198 -0.256  0.500   -0.098 -0.142  0.222
 O          0.010 -0.000 -0.009   -0.011 -0.012 -0.008    0.023 -0.018 -0.043
 H         -0.068 -0.114  0.149    0.147  0.240 -0.333   -0.164 -0.288  0.385
 H         -0.109  0.027  0.128    0.364 -0.015 -0.464   -0.108 -0.009  0.107
 O          0.006 -0.004  0.000   -0.002  0.003 -0.001    0.004 -0.004  0.003
 H         -0.023  0.012  0.005    0.020 -0.011 -0.003   -0.068  0.038  0.011
 TransDip  -0.265  0.026  0.151    0.034  0.060 -0.165   -0.139  0.031  0.119

 Mode:                31                     32                     33
 Frequency:      1312.59                1344.72                1385.31
 Force Cnst:      4.4640                 1.5548                 1.4014
 Red. Mass:       4.3976                 1.4594                 1.2394
 IR Active:          YES                    YES                    YES
 IR Intens:       31.533                  4.940                 22.718
 Raman Active:       YES                    YES                    YES
               X      Y      Z        X      Y      Z        X      Y      Z
 C          0.049  0.091 -0.172    0.035  0.066 -0.061    0.002  0.001  0.007
 C         -0.105 -0.187  0.012   -0.009 -0.017  0.009   -0.010 -0.019 -0.007
 C          0.039  0.072  0.175    0.020  0.039  0.089    0.001  0.003  0.006
 C          0.029  0.051 -0.207    0.015  0.024 -0.014    0.009  0.015 -0.017
 C         -0.070 -0.142 -0.012   -0.044 -0.088  0.032   -0.002 -0.007  0.005
 C          0.111  0.210  0.206   -0.033 -0.047 -0.062   -0.021 -0.007  0.018
 C         -0.061 -0.097  0.027    0.031  0.039 -0.002   -0.037  0.036 -0.096
 H          0.069  0.045 -0.109   -0.115 -0.192  0.467    0.016  0.025 -0.042
 H          0.126  0.245  0.017   -0.127 -0.226  0.009    0.038  0.079 -0.007
 H         -0.092 -0.167 -0.288   -0.086 -0.159 -0.299    0.011  0.018  0.035
 H         -0.144 -0.276  0.420    0.074  0.126 -0.213   -0.010 -0.017  0.049
 H         -0.127 -0.142 -0.015    0.286  0.547  0.038    0.006  0.034  0.005
 H          0.177  0.184 -0.236   -0.085 -0.102  0.114   -0.265 -0.200  0.622
 O          0.012  0.018 -0.010   -0.009 -0.009 -0.001    0.072 -0.011  0.004
 H         -0.005 -0.138 -0.011   -0.030  0.005  0.109    0.129 -0.111 -0.213
 H         -0.091  0.029  0.112    0.050 -0.038 -0.065   -0.364  0.078  0.504
 O         -0.005 -0.002 -0.005   -0.001  0.001 -0.001   -0.001  0.001 -0.001
 H          0.071 -0.024 -0.009    0.015 -0.007 -0.002    0.010 -0.002  0.000
 TransDip  -0.035 -0.016  0.176    0.041  0.053  0.023   -0.078  0.097  0.088

 Mode:                34                     35                     36
 Frequency:      1410.17                1470.44                1479.67
 Force Cnst:      1.5312                 1.4063                 2.8321
 Red. Mass:       1.3068                 1.1039                 2.1955
 IR Active:          YES                    YES                    YES
 IR Intens:       27.922                 19.120                 28.329
 Raman Active:       YES                    YES                    YES
               X      Y      Z        X      Y      Z        X      Y      Z
 C          0.002  0.005  0.033    0.003  0.006  0.020   -0.044 -0.089 -0.026
 C         -0.024 -0.046 -0.011   -0.012 -0.022  0.001    0.055  0.099 -0.060
 C         -0.002 -0.002 -0.009   -0.000 -0.000 -0.013    0.026  0.049  0.081
 C          0.021  0.036 -0.037    0.009  0.016 -0.002   -0.056 -0.100  0.084
 C         -0.007 -0.014  0.020   -0.009 -0.017  0.012    0.009  0.029 -0.104
 C         -0.011 -0.012  0.017   -0.002 -0.005 -0.026    0.041  0.072  0.164
 C          0.073  0.082 -0.067    0.009 -0.066 -0.038    0.010 -0.003 -0.075
 H          0.048  0.095 -0.133    0.015  0.032 -0.027   -0.009 -0.030 -0.179
 H          0.116  0.214 -0.009    0.045  0.083  0.002   -0.173 -0.321 -0.078
 H          0.036  0.071  0.131    0.020  0.039  0.059   -0.118 -0.223 -0.454
 H         -0.027 -0.053  0.142    0.004  0.004  0.027    0.075  0.134 -0.409
 H         -0.024 -0.035  0.022    0.042  0.076  0.015   -0.065 -0.115 -0.123
 H         -0.185 -0.237  0.187    0.340  0.419  0.430    0.021  0.036  0.236
 O         -0.036 -0.017 -0.007    0.003 -0.006 -0.006   -0.000 -0.003 -0.006
 H         -0.218 -0.301  0.686   -0.459  0.513  0.128   -0.220 -0.091  0.336
 H          0.178 -0.058 -0.258   -0.011 -0.010  0.010   -0.006 -0.006 -0.002
 O          0.001 -0.001 -0.001    0.000  0.000 -0.000    0.001  0.000  0.000
 H          0.009 -0.003  0.000   -0.006  0.004  0.002   -0.003  0.005  0.003
 TransDip   0.025  0.097 -0.136   -0.020  0.134  0.035   -0.028 -0.020 -0.167

 Mode:                37                     38                     39
 Frequency:      1510.77                1606.05                1633.68
 Force Cnst:      2.8153                 7.1402                 8.4537
 Red. Mass:       2.0935                 4.6983                 5.3761
 IR Active:          YES                    YES                    YES
 IR Intens:       42.786                 14.820                313.830
 Raman Active:       YES                    YES                    YES
               X      Y      Z        X      Y      Z        X      Y      Z
 C         -0.015 -0.022  0.129   -0.011 -0.002  0.176   -0.115 -0.210  0.215
 C         -0.062 -0.114 -0.049   -0.054 -0.103 -0.141    0.143  0.258 -0.108
 C          0.043  0.078 -0.032    0.082  0.152  0.290   -0.048 -0.086  0.112
 C         -0.019 -0.033  0.129   -0.053 -0.095 -0.153    0.091  0.161 -0.218
 C         -0.051 -0.091 -0.039    0.123  0.210  0.068   -0.104 -0.201  0.093
 C          0.047  0.110 -0.079   -0.065 -0.136 -0.187    0.028  0.138 -0.099
 C         -0.017 -0.025  0.033    0.007  0.011  0.021   -0.005 -0.025  0.023
 H          0.139  0.242 -0.386    0.084  0.165 -0.156    0.043  0.073 -0.396
 H          0.205  0.381 -0.056    0.060  0.105 -0.162   -0.184 -0.332 -0.134
 H          0.038  0.065 -0.097   -0.131 -0.244 -0.483   -0.092 -0.163 -0.006
 H          0.122  0.226 -0.365   -0.107 -0.194 -0.017   -0.065 -0.109  0.339
 H          0.227  0.417 -0.046   -0.194 -0.369  0.067    0.134  0.262  0.111
 H         -0.035 -0.062 -0.120    0.016  0.022 -0.024   -0.010 -0.030 -0.052
 O          0.002  0.003  0.001   -0.003 -0.003  0.004    0.002  0.002 -0.001
 H          0.096 -0.087 -0.076    0.024  0.117 -0.101    0.045 -0.009 -0.064
 H         -0.016 -0.009  0.026    0.017  0.010 -0.022   -0.005 -0.005  0.008
 O          0.005 -0.003 -0.000   -0.005  0.001 -0.001    0.016 -0.009 -0.002
 H         -0.009  0.007  0.004    0.012 -0.007 -0.006   -0.035  0.013  0.015
 TransDip  -0.121  0.169 -0.024    0.123 -0.004 -0.010   -0.538  0.045  0.174

 Mode:                40                     41                     42
 Frequency:      3056.77                3126.98                3189.61
 Force Cnst:      5.8687                 6.3324                 6.5198
 Red. Mass:       1.0660                 1.0992                 1.0877
 IR Active:          YES                    YES                    YES
 IR Intens:       31.188                 19.309                  4.387
 Raman Active:       YES                    YES                    YES
               X      Y      Z        X      Y      Z        X      Y      Z
 C         -0.000 -0.000  0.000    0.001  0.001  0.001   -0.029 -0.054 -0.035
 C          0.000  0.000 -0.000    0.000  0.000 -0.000    0.000  0.002  0.038
 C         -0.000  0.000 -0.000    0.000  0.000  0.000    0.009  0.016 -0.011
 C          0.000  0.000 -0.000    0.000  0.000 -0.000   -0.006 -0.011 -0.007
 C         -0.000 -0.000  0.000   -0.000  0.000 -0.000    0.000  0.000  0.012
 C         -0.001  0.000 -0.000   -0.001  0.000 -0.001   -0.000 -0.000  0.002
 C         -0.040  0.060  0.010   -0.079 -0.020 -0.041   -0.001 -0.001 -0.000
 H          0.002  0.003  0.001   -0.006 -0.009 -0.004    0.335  0.625  0.408
 H          0.000  0.000  0.001   -0.000 -0.000  0.002    0.007 -0.002 -0.458
 H         -0.001 -0.001  0.001   -0.001 -0.001  0.001   -0.106 -0.189  0.126
 H         -0.000 -0.000 -0.001   -0.000 -0.000  0.000    0.074  0.131  0.087
 H         -0.000  0.000 -0.004    0.000  0.000  0.001   -0.001  0.000 -0.143
 H          0.742 -0.568  0.046    0.252 -0.207  0.014    0.000  0.000 -0.000
 O         -0.000  0.000  0.001    0.002  0.000  0.000    0.000  0.000 -0.000
 H         -0.257 -0.145 -0.179    0.683  0.429  0.483    0.008  0.006  0.004
 H          0.001 -0.002  0.003   -0.016 -0.004 -0.002   -0.000 -0.000  0.000
 O          0.000 -0.000  0.000   -0.000  0.000  0.000   -0.000  0.000  0.000
 H          0.002 -0.001 -0.002    0.000 -0.001 -0.000    0.000  0.000 -0.002
 TransDip  -0.058  0.150  0.077   -0.090 -0.058 -0.091    0.006 -0.067 -0.004

 Mode:                43                     44                     45
 Frequency:      3194.70                3201.52                3210.20
 Force Cnst:      6.5391                 6.5892                 6.6501
 Red. Mass:       1.0874                 1.0911                 1.0952
 IR Active:          YES                    YES                    YES
 IR Intens:        0.773                  7.108                 26.688
 Raman Active:       YES                    YES                    YES
               X      Y      Z        X      Y      Z        X      Y      Z
 C         -0.012 -0.023 -0.014    0.012  0.023  0.014   -0.011 -0.020 -0.010
 C          0.001  0.001 -0.001   -0.002 -0.003  0.032    0.001  0.001 -0.058
 C         -0.012 -0.021  0.013    0.024  0.043 -0.029    0.005  0.009 -0.001
 C          0.019  0.034  0.024   -0.004 -0.008 -0.001   -0.022 -0.040 -0.024
 C         -0.001 -0.000 -0.059   -0.000  0.001 -0.048    0.001  0.002 -0.033
 C          0.000  0.001  0.001    0.001  0.001 -0.000    0.001  0.001  0.002
 C         -0.000 -0.000 -0.001    0.000  0.000 -0.000   -0.000 -0.000 -0.000
 H          0.138  0.258  0.168   -0.135 -0.252 -0.164    0.112  0.210  0.134
 H         -0.001 -0.001  0.005    0.007  0.002 -0.369   -0.011 -0.000  0.656
 H          0.138  0.247 -0.163   -0.279 -0.499  0.331   -0.049 -0.087  0.052
 H         -0.233 -0.409 -0.273    0.041  0.072  0.044    0.249  0.438  0.288
 H          0.005 -0.004  0.690    0.004 -0.003  0.550    0.002 -0.004  0.370
 H          0.002 -0.002 -0.000    0.001 -0.001  0.000    0.001 -0.001 -0.000
 O          0.000  0.000  0.000    0.000  0.000  0.000    0.000  0.000  0.000
 H          0.002  0.001  0.001   -0.004 -0.004 -0.002    0.001  0.000  0.001
 H         -0.003 -0.000 -0.001   -0.002 -0.000 -0.001   -0.001  0.000 -0.001
 O          0.000 -0.000  0.000    0.000 -0.000 -0.000    0.000  0.000  0.000
 H         -0.001 -0.000  0.001   -0.001 -0.001  0.002   -0.001  0.000  0.000
 TransDip  -0.014 -0.001 -0.024   -0.010  0.083 -0.018   -0.034 -0.057 -0.152

 Mode:                46                     47                     48
 Frequency:      3218.51                3746.47                3837.42
 Force Cnst:      6.7055                 8.8263                 9.2567
 Red. Mass:       1.0987                 1.0673                 1.0669
 IR Active:          YES                    YES                    YES
 IR Intens:       26.682                394.109                129.537
 Raman Active:       YES                    YES                    YES
               X      Y      Z        X      Y      Z        X      Y      Z
 C         -0.007 -0.012 -0.005    0.000  0.000 -0.001   -0.000 -0.000  0.000
 C          0.000 -0.001 -0.042   -0.000 -0.001 -0.000    0.000  0.000  0.000
 C          0.023  0.042 -0.028    0.000  0.000  0.000   -0.000 -0.000 -0.000
 C          0.022  0.038  0.027   -0.000 -0.000  0.001   -0.000  0.000 -0.000
 C         -0.001 -0.002  0.022    0.001  0.001  0.000   -0.000 -0.000 -0.000
 C         -0.000 -0.001  0.000   -0.001 -0.000  0.000   -0.000  0.000  0.000
 C          0.000 -0.000  0.000   -0.000  0.000  0.000   -0.002 -0.000 -0.000
 H          0.063  0.116  0.074    0.001  0.002  0.001    0.000  0.000  0.000
 H         -0.007  0.002  0.465   -0.000 -0.000  0.001   -0.000 -0.000  0.000
 H         -0.259 -0.463  0.307   -0.001 -0.001  0.001   -0.000 -0.000  0.000
 H         -0.242 -0.426 -0.285   -0.001 -0.001 -0.001   -0.000 -0.000 -0.000
 H         -0.000  0.004 -0.234   -0.000 -0.000 -0.002    0.001 -0.001  0.004
 H         -0.002  0.002 -0.000    0.002 -0.001 -0.002    0.002 -0.001  0.005
 O         -0.000 -0.000 -0.000   -0.001 -0.000 -0.001   -0.047 -0.009 -0.040
 H          0.001  0.002  0.000    0.000  0.000 -0.001    0.009  0.005  0.009
 H          0.000 -0.000  0.000    0.010  0.001  0.008    0.761  0.147  0.629
 O         -0.000  0.000  0.000    0.003  0.014 -0.061   -0.000 -0.000  0.001
 H          0.001  0.001 -0.003   -0.036 -0.216  0.974   -0.000  0.004 -0.013
 TransDip   0.129  0.079 -0.066   -0.454 -0.100  0.434    0.224  0.020  0.287

 STANDARD THERMODYNAMIC QUANTITIES AT   298.15 K  AND     1.00 ATM

   This Molecule has  1 Imaginary Frequencies
   Zero point vibrational energy:       90.906 kcal/mol

   Atom    1 Element C  Has Mass   12.00000
   Atom    2 Element C  Has Mass   12.00000
   Atom    3 Element C  Has Mass   12.00000
   Atom    4 Element C  Has Mass   12.00000
   Atom    5 Element C  Has Mass   12.00000
   Atom    6 Element C  Has Mass   12.00000
   Atom    7 Element C  Has Mass   12.00000
   Atom    8 Element H  Has Mass    1.00783
   Atom    9 Element H  Has Mass    1.00783
   Atom   10 Element H  Has Mass    1.00783
   Atom   11 Element H  Has Mass    1.00783
   Atom   12 Element H  Has Mass    1.00783
   Atom   13 Element H  Has Mass    1.00783
   Atom   14 Element O  Has Mass   15.99491
   Atom   15 Element H  Has Mass    1.00783
   Atom   16 Element H  Has Mass    1.00783
   Atom   17 Element O  Has Mass   15.99491
   Atom   18 Element H  Has Mass    1.00783
   Molecular Mass:   125.060290 amu
   Principal axes and moments of inertia in amu*Bohr^2:
                             1           2           3
    Eigenvalues --      601.86476  1493.21033  1606.83783
          X              -0.45243     0.36546     0.81348
          Y              -0.60616     0.54305    -0.58109
          Z               0.65413     0.75600     0.02417
   Rotational Symmetry Number is   1
   The Molecule is an Asymmetric Top
   Translational Enthalpy:        0.889 kcal/mol
   Rotational Enthalpy:           0.889 kcal/mol
   Vibrational Enthalpy:         94.707 kcal/mol
   gas constant (RT):             0.592 kcal/mol
   Translational Entropy:        40.384  cal/mol.K
   Rotational Entropy:           28.758  cal/mol.K
   Vibrational Entropy:          22.238  cal/mol.K

   Total Enthalpy:               97.077 kcal/mol
   Total Entropy:                91.381  cal/mol.K
 Total job time:  40857.59s(wall), 313436.93s(cpu) 
 Sat Jan 28 01:15:55 2023

        *************************************************************
        *                                                           *
        *  Thank you very much for using Q-Chem.  Have a nice day.  *
        *                                                           *
        *************************************************************


