
Running Job 1 of 2 Q_in.in
qchem Q_in.in_53036.0 /scratch/ari.fischer/qChem1383878.hpc-mn1/qchem53036/ 0
/usr/local/qchem-5.4.1/exe/qcprog.exe_s Q_in.in_53036.0 /scratch/ari.fischer/qChem1383878.hpc-mn1/qchem53036/
                  Welcome to Q-Chem
     A Quantum Leap Into The Future Of Chemistry


 Q-Chem 5.4, Q-Chem, Inc., Pleasanton, CA (2021)

 License issued to: Nanyang Technological University (site)

 E. Epifanovsky,  A. T. B. Gilbert,  Xintian Feng,  Joonho Lee,  Yuezhi Mao,  
 N. Mardirossian,  P. Pokhilko,  A. White,  M. Wormit,  M. P. Coons,  
 A. L. Dempwolff,  Zhengting Gan,  D. Hait,  P. R. Horn,  L. D. Jacobson,  
 I. Kaliman,  J. Kussmann,  A. W. Lange,  Ka Un Lao,  D. S. Levine,  Jie Liu,  
 S. C. McKenzie,  A. F. Morrison,  K. Nanda,  F. Plasser,  D. R. Rehn,  
 M. L. Vidal,  Zhi-Qiang You,  Ying Zhu,  B. Alam,  B. Albrecht,  
 A. Aldossary,  E. Alguire,  J. H. Andersen,  D. Barton,  K. Begam,  A. Behn,  
 Y. A. Bernard,  E. J. Berquist,  H. Burton,  A. Carreras,  K. Carter-Fenk,  
 R. Chakraborty,  A. D. Chien,  K. D. Closser,  V. Cofer-Shabica,  
 S. Dasgupta,  Jia Deng,  M. de Wergifosse,  M. Diedenhofen,  Hainam Do,  
 S. Ehlert,  Po-Tung Fang,  S. Fatehi,  Qingguo Feng,  T. Friedhoff,  
 J. Gayvert,  Qinghui Ge,  G. Gidofalvi,  M. Goldey,  J. Gomes,  
 C. Gonzalez-Espinoza,  S. Gulania,  A. Gunina,  M. W. D. Hanson-Heine,  
 P. H. P. Harbach,  A. W. Hauser,  M. F. Herbst,  M. Hernandez Vera,  
 M. Hodecker,  Z. C. Holden,  S. Houck,  Xunkun Huang,  Kerwin Hui,  
 B. C. Huynh,  M. Ivanov,  Hyunjun Ji,  Hanjie Jiang,  B. Kaduk,  S. Kaehler,  
 K. Khistyaev,  Jaehoon Kim,  P. Klunzinger,  Z. Koczor-Benda,  
 Joong Hoon Koh,  D. Kosenkov,  L. Koulias,  T. Kowalczyk,  C. M. Krauter,  
 K. Kue,  A. Kunitsa,  T. Kus,  A. Landau,  K. V. Lawler,  D. Lefrancois,  
 S. Lehtola,  Rain Li,  Yi-Pei Li,  Jiashu Liang,  M. Liebenthal,  
 Hung-Hsuan Lin,  You-Sheng Lin,  Fenglai Liu,  Kuan-Yu Liu,  
 M. Loipersberger,  A. Luenser,  A. Manjanath,  P. Manohar,  E. Mansoor,  
 S. F. Manzer,  Shan-Ping Mao,  A. V. Marenich,  T. Markovich,  S. Mason,  
 S. A. Maurer,  P. F. McLaughlin,  M. F. S. J. Menger,  J.-M. Mewes,  
 S. A. Mewes,  P. Morgante,  J. W. Mullinax,  K. J. Oosterbaan,  G. Paran,  
 Alexander C. Paul,  Suranjan K. Paul,  F. Pavosevic,  Zheng Pei,  S. Prager,  
 E. I. Proynov,  E. Ramos,  B. Rana,  A. E. Rask,  A. Rettig,  R. M. Richard,  
 F. Rob,  E. Rossomme,  T. Scheele,  M. Scheurer,  M. Schneider,  
 N. Sergueev,  S. M. Sharada,  W. Skomorowski,  D. W. Small,  C. J. Stein,  
 Yu-Chuan Su,  E. J. Sundstrom,  Zhen Tao,  J. Thirman,  T. Tsuchimochi,  
 N. M. Tubman,  S. P. Veccham,  O. Vydrov,  J. Wenzel,  J. Witte,  A. Yamada,  
 Kun Yao,  S. Yeganeh,  S. R. Yost,  A. Zech,  Igor Ying Zhang,  Xing Zhang,  
 Yu Zhang,  D. Zuev,  A. Aspuru-Guzik,  A. T. Bell,  N. A. Besley,  
 K. B. Bravaya,  B. R. Brooks,  D. Casanova,  Jeng-Da Chai,  S. Coriani,  
 C. J. Cramer,  A. E. DePrince, III,  R. A. DiStasio Jr.,  A. Dreuw,  
 B. D. Dunietz,  T. R. Furlani,  W. A. Goddard III,  S. Grimme,  
 S. Hammes-Schiffer,  T. Head-Gordon,  W. J. Hehre,  Chao-Ping Hsu,  
 T.-C. Jagau,  Yousung Jung,  A. Klamt,  Jing Kong,  D. S. Lambrecht,  
 WanZhen Liang,  N. J. Mayhall,  C. W. McCurdy,  J. B. Neaton,  
 C. Ochsenfeld,  J. A. Parkhill,  R. Peverati,  V. A. Rassolov,  Yihan Shao,  
 L. V. Slipchenko,  T. Stauch,  R. P. Steele,  J. E. Subotnik,  
 A. J. W. Thom,  A. Tkatchenko,  D. G. Truhlar,  T. Van Voorhis,  
 T. A. Wesolowski,  K. B. Whaley,  H. L. Woodcock III,  P. M. Zimmerman,  
 S. Faraji,  P. M. W. Gill,  M. Head-Gordon,  J. M. Herbert,  A. I. Krylov

 Additional authors for Version 5.4.1: 
 S. Kotaru,  Shaozhi Li,  Xiangyuan Li,  F. Matz,  A. Molle,  Haisheng Ren,  
 Yingli Su,  Hung-Yi Tsai,  C. Utku,  Fang Wang

 Contributors to earlier versions of Q-Chem not listed above: 
 R. D. Adamson,  B. Austin,  R. Baer,  J. Baker,  G. J. O. Beran,  
 K. Brandhorst,  S. T. Brown,  E. F. C. Byrd,  A. K. Chakraborty,  
 G. K. L. Chan,  Chun-Min Chang,  Yunqing Chen,  C.-L. Cheng,  
 Siu Hung Chien,  D. M. Chipman,  D. L. Crittenden,  H. Dachsel,  
 R. J. Doerksen,  A. D. Dutoi,  R. G. Edgar,  J. Fosso-Tande,  
 L. Fusti-Molnar,  D. Ghosh,  A. Ghysels,  A. Golubeva-Zadorozhnaya,  
 J. Gonthier,  M. S. Gordon,  S. R. Gwaltney,  G. Hawkins,  J. E. Herr,  
 A. Heyden,  S. Hirata,  E. G. Hohenstein,  G. Kedziora,  F. J. Keil,  
 C. Kelley,  Jihan Kim,  R. A. King,  R. Z. Khaliullin,  P. P. Korambath,  
 W. Kurlancheek,  A. Laurent,  A. M. Lee,  M. S. Lee,  S. V. Levchenko,  
 Ching Yeh Lin,  D. Liotard,  E. Livshits,  R. C. Lochan,  I. Lotan,  
 L. A. Martinez-Martinez,  P. E. Maslen,  N. Nair,  D. P. O'Neill,  
 D. Neuhauser,  E. Neuscamman,  C. M. Oana,  R. Olivares-Amaya,  R. Olson,  
 T. M. Perrine,  B. Peters,  P. A. Pieniazek,  A. Prociuk,  Y. M. Rhee,  
 J. Ritchie,  M. A. Rohrdanz,  E. Rosta,  N. J. Russ,  H. F. Schaefer III,  
 M. W. Schmidt,  N. E. Schultz,  S. Sharma,  N. Shenvi,  C. D. Sherrill,  
 A. C. Simmonett,  A. Sodt,  T. Stein,  D. Stuck,  K. S. Thanthiriwatte,  
 V. Vanovschi,  L. Vogt,  Tao Wang,  A. Warshel,  M. A. Watson,  
 C. F. Williams,  Q. Wu,  X. Xu,  Jun Yang,  W. Zhang,  Yan Zhao

 Please cite Q-Chem as follows:
 Y. Shao et al., Mol. Phys. 113, 184-215 (2015)
 DOI: 10.1080/00268976.2014.952696

 Q-Chem 5.4.1 for Intel X86 EM64T Linux

 Parts of Q-Chem use Armadillo 9.800.1 (Horizon Scraper).
 http://arma.sourceforge.net/

 Q-Chem begins on Tue Dec 27 22:42:19 2022  

 Host: 
0

     Scratch files written to /scratch/ari.fischer/qChem1383878.hpc-mn1/qchem53036//
 Aug1521 |scratch|qcdevops|jenkins|workspace|build_RNUM 8249   
 Processing $rem in /usr/local/qchem-5.4.1/config/preferences:
 Processing $rem in /home/ari.fischer/.qchemrc:
 Now reading second FSM geometry
 Symmetry turned off for PCM/SM12/SMD calculation

 Checking the input file for inconsistencies... 	...done.

--------------------------------------------------------------
User input:
--------------------------------------------------------------
$molecule
0 2
C   -0.7178915    0.0714637    1.1392109
C   -1.1106707   -1.0574476    1.8494712
C   -1.9198338   -2.0094095    1.2456280
C   -2.3390523   -1.8302777   -0.0679615
C   -1.9456741   -0.7034066   -0.7755243
C   -1.1302371    0.2544551   -0.1791952
C   -0.6376754    1.4328250   -0.9735377
H   -0.0983056    0.8227900    1.6127494
H   -0.7873549   -1.1897628    2.8733270
H   -2.2285931   -2.8869552    1.7974306
H   -2.9749430   -2.5680574   -0.5384256
H   -2.2730743   -0.5620399   -1.7986539
H   -1.3969895    1.7743126   -1.6765894
O    0.5680171    1.1062964   -1.6933091
H   -0.3744631    2.2563665   -0.3141144
H    0.3294405    0.5116836   -2.4140953
O    1.7394402   -0.7417567    0.0872431
H    1.4562393   -0.0906463   -0.5977224
****
C   -0.4880382    0.0864317    0.8895065
C   -0.5136938   -1.1467202    1.4514631
C   -1.0343837   -2.2612703    0.7533583
C   -1.5102622   -2.0970038   -0.5681457
C   -1.5128510   -0.8798281   -1.1652269
C   -1.0447770    0.3635295   -0.4692223
C   -2.1992573    1.3753334   -0.3298898
H   -0.0775452    0.9359463    1.4210414
H   -0.1178034   -1.2879574    2.4487695
H   -1.0421969   -3.2367716    1.2172237
H   -1.8683601   -2.9619076   -1.1113098
H   -1.8666191   -0.7629988   -2.1829216
H   -3.0303891    0.9167995    0.2074353
O   -2.6159752    1.8699987   -1.5973996
H   -1.8398636    2.2341361    0.2356919
H   -3.1437944    1.1937089   -2.0356603
O   -0.0074143    1.0009336   -1.2487479
H   -0.4517094    1.4344249   -1.9907427
$end

$rem
BASIS = 6-311++G(2df,2p)
GUI = 2
JOB_TYPE = FSM
FSM_MODE = 2
METHOD = wB97M-v
MAX_SCF_CYCLES = 120
FSM_NGRAD = 6
FSM_NNODE = 20
SCF_CONVERGENCE = 7
THRESH = 12
SCF_ALGORITHM = DIIS_GDM
UNRESTRICTED = 1
solvent_method = SMD
$end

--------------------------------------------------------------
 ----------------------------------------------------------------
             Standard Nuclear Orientation (Angstroms)
    I     Atom           X                Y                Z
 ----------------------------------------------------------------
    1      C      -0.7178915000     0.0714637000     1.1392109000
    2      C      -1.1106707000    -1.0574476000     1.8494712000
    3      C      -1.9198338000    -2.0094095000     1.2456280000
    4      C      -2.3390523000    -1.8302777000    -0.0679615000
    5      C      -1.9456741000    -0.7034066000    -0.7755243000
    6      C      -1.1302371000     0.2544551000    -0.1791952000
    7      C      -0.6376754000     1.4328250000    -0.9735377000
    8      H      -0.0983056000     0.8227900000     1.6127494000
    9      H      -0.7873549000    -1.1897628000     2.8733270000
   10      H      -2.2285931000    -2.8869552000     1.7974306000
   11      H      -2.9749430000    -2.5680574000    -0.5384256000
   12      H      -2.2730743000    -0.5620399000    -1.7986539000
   13      H      -1.3969895000     1.7743126000    -1.6765894000
   14      O       0.5680171000     1.1062964000    -1.6933091000
   15      H      -0.3744631000     2.2563665000    -0.3141144000
   16      H       0.3294405000     0.5116836000    -2.4140953000
   17      O       1.7394402000    -0.7417567000     0.0872431000
   18      H       1.4562393000    -0.0906463000    -0.5977224000
 ----------------------------------------------------------------
 Nuclear Repulsion Energy =         428.47837134 hartrees
 There are       34 alpha and       33 beta electrons
 Requested basis set is 6-311++G(2df,2p)
 There are 126 shells and 396 basis functions

 Total QAlloc Memory Limit 288000 MB
 Mega-Array Size       188 MB
 MEM_STATIC part       192 MB
 beginning FSman 

*******************************************
*******************************************
******** Starting FSM Calculation *********
*******************************************
*******************************************
-FSM parameters:
 Maximum displacement of each coordinate during optimization (Angstrom)      0.05
 Maximum optimization steps for each new node                                6
 The scaling factor for optimization (hartrees/Angstrom^2)                   1.75
 The number of LST interpolations used for reparameterization                100
-Aligning product structure to maximum coincidence with the reactant structure
 Total R --> P Distance 3.394336
 New node interpolation distace (Angstroms): 0.17
-Performing force calculation on reactant structure in state:0
 ----------------------------------------------------------------
             Standard Nuclear Orientation (Angstroms)
    I     Atom           X                Y                Z
 ----------------------------------------------------------------
    1      C      -0.7178915000     0.0714637000     1.1392109000
    2      C      -1.1106707000    -1.0574476000     1.8494712000
    3      C      -1.9198338000    -2.0094095000     1.2456280000
    4      C      -2.3390523000    -1.8302777000    -0.0679615000
    5      C      -1.9456741000    -0.7034066000    -0.7755243000
    6      C      -1.1302371000     0.2544551000    -0.1791952000
    7      C      -0.6376754000     1.4328250000    -0.9735377000
    8      H      -0.0983056000     0.8227900000     1.6127494000
    9      H      -0.7873549000    -1.1897628000     2.8733270000
   10      H      -2.2285931000    -2.8869552000     1.7974306000
   11      H      -2.9749430000    -2.5680574000    -0.5384256000
   12      H      -2.2730743000    -0.5620399000    -1.7986539000
   13      H      -1.3969895000     1.7743126000    -1.6765894000
   14      O       0.5680171000     1.1062964000    -1.6933091000
   15      H      -0.3744631000     2.2563665000    -0.3141144000
   16      H       0.3294405000     0.5116836000    -2.4140953000
   17      O       1.7394402000    -0.7417567000     0.0872431000
   18      H       1.4562393000    -0.0906463000    -0.5977224000
 ----------------------------------------------------------------
 Nuclear Repulsion Energy =         428.47837134 hartrees
 There are       34 alpha and       33 beta electrons
 
 Citation of the SMD model:
 Marenich, A.V.; Cramer, C.J.; Truhlar, D.G.
 J. Phys. Chem. B 2009, 113, 6378-6396.
 iSolventCode=           1
 Solvent: water                                                           
 
 vradii
            1           2           3           4           5           6
    1   1.8500000   1.8500000   1.8500000   1.8500000   1.8500000   1.8500000
            7           8           9          10          11          12
    1   1.8500000   1.2000000   1.2000000   1.2000000   1.2000000   1.2000000
           13          14          15          16          17          18
    1   1.2000000   1.5200000   1.2000000   1.2000000   1.5200000   1.2000000
 Changing PCM_VDW_RADII to SMD_RADIUS
 Discretize the solute cavity surface with Lebedev spheres
	Using 110 Lebedev grid points for each H atom
	Using 194 Lebedev grid points for other atoms
	Atomic van der Waals radii will be scaled by 1.20
 Remove points where switching function is < 1.0e-08
 Keep 1351 surface tesserae and discard 1385 interior tesserae
 Molecular Surface Area = 160.456 Angst**2
 Requested basis set is 6-311++G(2df,2p)
 There are 126 shells and 396 basis functions
 A cutoff of  1.0D-12 yielded   7251 shell pairs
 There are     72384 function pairs (     89759 Cartesian)
 Smallest overlap matrix eigenvalue = 7.10E-07
 Linear dependence detected in AO basis
 Tighter screening thresholds may be required for diffuse basis sets
 Use S2THRESH > 14 and THRESH = 14 in case of SCF convergence issues
 Number of orthogonalized atomic orbitals = 395
 Maximum deviation from orthogonality = 6.539E-11

 Scale SEOQF with 1.000000e-01/1.000000e-01/1.000000e-01

 Standard Electronic Orientation quadrupole field applied
 Nucleus-field energy     =     0.0000000026 hartrees
 Guess from superposition of atomic densities
 Warning:  Energy on first SCF cycle will be non-variational
 SAD guess density has 67.000000 electrons

 -----------------------------------------------------------------------
  General SCF calculation program by
  Eric Jon Sundstrom, Paul Horn, Yuezhi Mao, Dmitri Zuev, Alec White,
  David Stuck, Shaama M.S., Shane Yost, Joonho Lee, David Small,
  Daniel Levine, Susi Lehtola, Hugh Burton, Evgeny Epifanovsky,
  Bang C. Huynh
 -----------------------------------------------------------------------
 Exchange:     0.1500 Hartree-Fock + 1.0000 wB97M-V + LR-HF
 Correlation:  1.0000 wB97M-V
 Using SG-2 standard quadrature grid
 Nonlocal Correlation:  VV10 with C = 0.0100 and b = 6.00 and scale = 1.00000
 Grid used for NLC:  SG-1 standard quadrature
 
 Citation of the SMD model:
 Marenich, A.V.; Cramer, C.J.; Truhlar, D.G.
 J. Phys. Chem. B 2009, 113, 6378-6396.
 iSolventCode=           1
 Solvent: water                                                           
 
 vradii
            1           2           3           4           5           6
    1   1.8500000   1.8500000   1.8500000   1.8500000   1.8500000   1.8500000
            7           8           9          10          11          12
    1   1.8500000   1.2000000   1.2000000   1.2000000   1.2000000   1.2000000
           13          14          15          16          17          18
    1   1.2000000   1.5200000   1.2000000   1.2000000   1.5200000   1.2000000
 using 8 threads for integral computing
 -------------------------------------------------------
 OpenMP Integral computing Module                
 Release: version 1.0, May 2013, Q-Chem Inc. Pittsburgh 
 -------------------------------------------------------
 -------------------------------------------------------
 OpenMP BLAS3 based DFT computing Module                
 Release: version 1.0, May 2013, Q-Chem Inc. Pittsburgh 
 -------------------------------------------------------
 A unrestricted SCF calculation will be
 performed using DIIS, GDM
 SCF converges when RMS gradient is below 1.0e-07
 ---------------------------------------
  Cycle       Energy         DIIS error
 ---------------------------------------
    1    -424.8210830730      1.25e-02  
    2    -422.2734465627      1.68e-03  Done DIIS. Switching to GDM
 ---------------------------------------
  Cycle       Energy        RMS Gradient
 ---------------------------------------
    1    -422.2734465627      4.28e-01   Descent step
    2    -422.4553638792      2.22e-02   Normal BFGS step
    3    -422.4789899212      7.36e-02   Normal BFGS step
    4    -422.4900340686      5.07e-02   Normal BFGS step
    5    -422.5003960322      3.29e-02   Dog-leg BFGS step
    6    -422.5009447216      5.87e-02   Normal BFGS step
    7    -422.5095114019      1.48e-02   Normal BFGS step
    8    -422.5106874870      5.96e-03   Normal BFGS step
    9    -422.5109034811      3.05e-03   Normal BFGS step
   10    -422.5109584378      1.45e-03   Normal BFGS step
   11    -422.5109686690      5.51e-04   Normal BFGS step
   12    -422.5109727477      3.45e-04   Normal BFGS step
   13    -422.5109743203      2.60e-04   Normal BFGS step
   14    -422.5109748301      1.61e-04   Normal BFGS step
   15    -422.5109750058      1.52e-04   Normal BFGS step
   16    -422.5109750615      1.47e-04   Normal BFGS step
   17    -422.5109751212      1.40e-04   Normal BFGS step
   18    -422.5109752426      1.21e-04   Normal BFGS step
   19    -422.5109754245      1.25e-04   Normal BFGS step
   20    -422.5109756172      1.06e-04   Normal BFGS step
   21    -422.5109757157      4.80e-05   Normal BFGS step
   22    -422.5109757391      2.12e-05   Normal BFGS step
   23    -422.5109757436      9.40e-06   Normal BFGS step
   24    -422.5109757443      3.90e-06   Normal BFGS step
   25    -422.5109757444      2.24e-06   Normal BFGS step
   26    -422.5109757445      1.38e-06   Normal BFGS step
   27    -422.5109757445      7.63e-07   Normal BFGS step
   28    -422.5109757445      2.60e-07   Normal BFGS step
   29    -422.5109757445      9.74e-08  Convergence criterion met
 ---------------------------------------
 SCF time:   CPU 2930.30s  wall 370.00s 
<S^2> =          0.753759287
(3)  G-ENP(liq) elect-nuc-pol free energy of system     -422.510975744 a.u.
(4)  G-CDS(liq) cavity-dispersion-solvent structure 
     free energy                                                3.3326 kcal/mol
(6)  G-S(liq) free energy of system                     -422.505664941 a.u.
 SCF   energy in the final basis set =     -422.5056649414
 Total energy in the final basis set =     -422.5056649414
 
 --------------------------------------------------------------
 
                    Orbital Energies (a.u.)
 --------------------------------------------------------------
 
 Alpha MOs
 -- Occupied --
-19.3844 -19.3470 -10.3886 -10.3529 -10.3469 -10.3456 -10.3453 -10.3445
-10.3442  -1.1625  -1.1234  -0.9895  -0.8929  -0.8721  -0.7987  -0.7250
 -0.7040  -0.6372  -0.6165  -0.5842  -0.5703  -0.5640  -0.5396  -0.5259
 -0.5204  -0.5103  -0.4786  -0.4646  -0.4510  -0.4480  -0.4328  -0.3971
 -0.3478  -0.3439
 -- Virtual --
  0.0238   0.0356   0.0369   0.0482   0.0528   0.0557   0.0581   0.0597
  0.0816   0.0859   0.0893   0.0942   0.1063   0.1256   0.1373   0.1379
  0.1491   0.1519   0.1578   0.1604   0.1613   0.1629   0.1735   0.1767
  0.1787   0.1824   0.1929   0.2036   0.2077   0.2149   0.2170   0.2187
  0.2269   0.2461   0.2469   0.2599   0.2626   0.2685   0.2780   0.2819
  0.2835   0.2969   0.3029   0.3080   0.3208   0.3258   0.3262   0.3429
  0.3477   0.3489   0.3556   0.3608   0.3703   0.3768   0.3886   0.4094
  0.4240   0.4300   0.4405   0.4512   0.4540   0.4968   0.5321   0.5368
  0.5671   0.5812   0.5946   0.6015   0.6033   0.6146   0.6163   0.6217
  0.6275   0.6332   0.6418   0.6472   0.6587   0.6779   0.6845   0.6948
  0.7042   0.7101   0.7265   0.7302   0.7342   0.7384   0.7414   0.7496
  0.7569   0.7653   0.7865   0.7932   0.8097   0.8277   0.8297   0.8399
  0.8522   0.8548   0.8709   0.8910   0.8940   0.8996   0.9065   0.9137
  0.9318   0.9491   0.9634   1.0176   1.0231   1.0453   1.0608   1.0721
  1.0841   1.0956   1.1122   1.1292   1.1384   1.1477   1.1644   1.1827
  1.1881   1.1946   1.2169   1.2198   1.2343   1.2381   1.2526   1.2647
  1.2709   1.2950   1.3036   1.3194   1.3388   1.3618   1.3691   1.3845
  1.3955   1.4014   1.4167   1.4418   1.4439   1.4465   1.4650   1.4710
  1.4837   1.4896   1.5137   1.5273   1.5507   1.5702   1.5830   1.5842
  1.5904   1.6165   1.6233   1.6442   1.6874   1.7064   1.7090   1.7283
  1.7391   1.7846   1.8063   1.8212   1.8662   1.8824   1.9164   1.9328
  1.9887   2.0198   2.0561   2.0741   2.0861   2.1071   2.1224   2.2033
  2.2396   2.2744   2.3527   2.4122   2.4738   2.5678   2.5979   2.6457
  2.6531   2.6824   2.6859   2.7110   2.7528   2.7965   2.8046   2.8236
  2.8321   2.8384   2.8533   2.8708   2.8734   2.8817   2.8929   2.9118
  2.9175   2.9381   2.9425   2.9464   2.9605   2.9688   3.0027   3.0146
  3.0350   3.0504   3.0835   3.0855   3.1481   3.1619   3.1751   3.1798
  3.1963   3.2169   3.2223   3.2442   3.2525   3.2651   3.2792   3.2894
  3.2999   3.3230   3.3401   3.3588   3.3632   3.3722   3.3843   3.4245
  3.4445   3.4570   3.4664   3.4866   3.5031   3.5184   3.5365   3.5454
  3.5549   3.5743   3.5933   3.6107   3.6200   3.6406   3.6553   3.6715
  3.7462   3.7604   3.7809   3.8049   3.8070   3.8205   3.8301   3.8442
  3.8634   3.8827   3.8926   3.9116   3.9191   3.9346   3.9531   3.9613
  3.9773   3.9814   4.0100   4.0406   4.0724   4.1081   4.1343   4.1380
  4.1565   4.1702   4.2023   4.2127   4.2272   4.2743   4.2934   4.3336
  4.3530   4.3621   4.3894   4.4011   4.4098   4.4312   4.4396   4.4497
  4.4842   4.4886   4.5218   4.5563   4.5757   4.5874   4.5950   4.6038
  4.6303   4.6432   4.7054   4.7517   4.7900   4.8132   4.8431   4.8923
  4.9578   5.0690   5.0737   5.0788   5.0817   5.0846   5.1227   5.1464
  5.1797   5.1995   5.2062   5.2274   5.2585   5.2954   5.3177   5.3608
  5.4062   5.4389   5.5147   5.5198   5.5519   5.5774   5.5916   5.6026
  5.7230   5.7521   5.7623   5.8314   5.8555   5.8886   5.9118   5.9434
  6.0118   6.2778   6.6281   6.6460   6.7940   6.8549   6.9894   6.9995
  7.1312   7.1918   7.3211   7.3454   7.4012   7.5605   7.6743   7.7934
 24.2095  24.7902  24.7988  24.8056  25.0414  25.0671  25.5313  50.3992
 50.6152
 
 Beta MOs
 -- Occupied --
-19.3605 -19.3471 -10.3886 -10.3525 -10.3467 -10.3454 -10.3451 -10.3447
-10.3443  -1.1619  -1.0558  -0.9889  -0.8925  -0.8715  -0.7986  -0.7245
 -0.7036  -0.6370  -0.6144  -0.5737  -0.5693  -0.5529  -0.5374  -0.5243
 -0.5173  -0.4834  -0.4651  -0.4477  -0.4328  -0.4196  -0.3961  -0.3492
 -0.3447
 -- Virtual --
 -0.0627   0.0240   0.0358   0.0371   0.0497   0.0534   0.0564   0.0586
  0.0613   0.0830   0.0860   0.0893   0.0945   0.1071   0.1266   0.1383
  0.1391   0.1496   0.1525   0.1580   0.1606   0.1618   0.1631   0.1737
  0.1769   0.1789   0.1832   0.1940   0.2038   0.2082   0.2161   0.2171
  0.2193   0.2271   0.2467   0.2474   0.2614   0.2640   0.2693   0.2786
  0.2828   0.2851   0.2972   0.3055   0.3125   0.3221   0.3262   0.3302
  0.3436   0.3486   0.3507   0.3575   0.3614   0.3705   0.3770   0.3902
  0.4110   0.4249   0.4303   0.4415   0.4519   0.4556   0.4976   0.5336
  0.5373   0.5679   0.5822   0.5951   0.6018   0.6047   0.6148   0.6166
  0.6232   0.6281   0.6356   0.6428   0.6477   0.6596   0.6787   0.6866
  0.6952   0.7051   0.7109   0.7268   0.7313   0.7346   0.7387   0.7416
  0.7501   0.7574   0.7655   0.7867   0.7937   0.8104   0.8282   0.8309
  0.8417   0.8528   0.8557   0.8713   0.8913   0.8947   0.9002   0.9072
  0.9147   0.9333   0.9510   0.9642   1.0195   1.0252   1.0475   1.0619
  1.0728   1.0879   1.0967   1.1163   1.1313   1.1403   1.1494   1.1656
  1.1853   1.1938   1.1984   1.2207   1.2243   1.2368   1.2419   1.2605
  1.2679   1.2858   1.2979   1.3060   1.3199   1.3458   1.3632   1.3757
  1.3855   1.3965   1.4051   1.4198   1.4426   1.4452   1.4470   1.4659
  1.4717   1.4848   1.4908   1.5146   1.5309   1.5515   1.5734   1.5832
  1.5848   1.5915   1.6214   1.6427   1.6763   1.6952   1.7100   1.7141
  1.7377   1.7659   1.7865   1.8079   1.8223   1.8704   1.8855   1.9241
  1.9436   2.0021   2.0343   2.0595   2.0751   2.0871   2.1114   2.1238
  2.2069   2.2422   2.2775   2.3585   2.4149   2.4783   2.5687   2.5984
  2.6464   2.6537   2.6831   2.6868   2.7125   2.7535   2.7970   2.8056
  2.8251   2.8355   2.8407   2.8557   2.8714   2.8754   2.8834   2.8954
  2.9126   2.9182   2.9390   2.9433   2.9477   2.9612   2.9700   3.0045
  3.0154   3.0358   3.0532   3.0846   3.0866   3.1483   3.1632   3.1755
  3.1804   3.1969   3.2174   3.2230   3.2449   3.2532   3.2662   3.2797
  3.2900   3.3007   3.3235   3.3406   3.3594   3.3647   3.3728   3.3847
  3.4248   3.4450   3.4579   3.4667   3.4871   3.5036   3.5190   3.5371
  3.5460   3.5557   3.5749   3.5940   3.6110   3.6221   3.6412   3.6560
  3.6723   3.7467   3.7627   3.7838   3.8060   3.8091   3.8215   3.8306
  3.8461   3.8649   3.8837   3.8942   3.9127   3.9203   3.9355   3.9537
  3.9624   3.9786   3.9824   4.0134   4.0428   4.0774   4.1091   4.1351
  4.1386   4.1568   4.1714   4.2029   4.2136   4.2280   4.2748   4.2943
  4.3346   4.3535   4.3639   4.3926   4.4033   4.4108   4.4318   4.4414
  4.4507   4.4855   4.4903   4.5230   4.5572   4.5763   4.5886   4.5959
  4.6046   4.6308   4.6437   4.7065   4.7526   4.7907   4.8138   4.8443
  4.8932   4.9587   5.0723   5.1302   5.1373   5.1456   5.1506   5.1740
  5.1803   5.1905   5.2050   5.2302   5.2609   5.2956   5.3019   5.3220
  5.3644   5.4070   5.4631   5.5177   5.5281   5.5529   5.5926   5.6191
  5.6389   5.7236   5.7569   5.7630   5.8324   5.8555   5.8890   5.9119
  5.9442   6.0120   6.2784   6.6296   6.6466   6.9084   6.9796   7.0266
  7.1031   7.1383   7.2338   7.3227   7.3473   7.4110   7.5924   7.6949
  7.7944  24.2096  24.7903  24.7988  24.8058  25.0416  25.0672  25.5315
 50.4158  50.6151
 --------------------------------------------------------------
 
          Ground-State Mulliken Net Atomic Charges

     Atom                 Charge (a.u.)    Spin (a.u.)
  --------------------------------------------------------
      1 C                    -0.213365       0.003021
      2 C                    -0.344866       0.019268
      3 C                    -0.460354      -0.018255
      4 C                    -0.259399       0.023394
      5 C                    -0.252620      -0.005717
      6 C                     0.354572       0.022246
      7 C                    -0.606177      -0.003143
      8 H                     0.329146       0.001505
      9 H                     0.295033      -0.000197
     10 H                     0.276931       0.000143
     11 H                     0.290869      -0.000264
     12 H                     0.283090       0.000249
     13 H                     0.209692       0.000294
     14 O                    -0.418120       0.000307
     15 H                     0.214847      -0.000442
     16 H                     0.334683      -0.000552
     17 O                    -0.405881       0.966960
     18 H                     0.371918      -0.008817
  --------------------------------------------------------
  Sum of atomic charges =     0.000000
  Sum of spin   charges =     1.000000

 -----------------------------------------------------------------
                    Cartesian Multipole Moments
 -----------------------------------------------------------------
    Charge (ESU x 10^10)
                 0.0000
    Dipole Moment (Debye)
         X      -3.5916      Y       0.9013      Z      -2.0910
       Tot       4.2526
    Quadrupole Moments (Debye-Ang)
        XX     -58.1360     XY       3.8102     YY     -53.2213
        XZ       2.5383     YZ       0.4964     ZZ     -44.9214
    Octopole Moments (Debye-Ang^2)
       XXX     129.2839    XXY      12.1202    XYY      24.9185
       YYY      55.5511    XXZ     -15.0648    XYZ       7.6471
       YYZ       5.9865    XZZ      36.9834    YZZ      11.4852
       ZZZ     -17.0596
    Hexadecapole Moments (Debye-Ang^3)
      XXXX    -825.4246   XXXY    -135.3663   XXYY    -199.5091
      XYYY    -130.0025   YYYY    -552.2685   XXXZ      75.3815
      XXYZ      48.4919   XYYZ      18.9361   YYYZ     125.9696
      XXZZ    -213.3806   XYZZ     -51.9556   YYZZ    -175.4000
      XZZZ      65.6792   YZZZ     122.1775   ZZZZ    -429.0382
 -----------------------------------------------------------------
 Calculating analytic gradient of the SCF energy
 Gradient of CDS energy
            1           2           3           4           5           6
    1  -0.0000816   0.0001560  -0.0001343  -0.0002963  -0.0001118   0.0003608
    2   0.0003103   0.0000370  -0.0004126  -0.0003317   0.0002006  -0.0001921
    3   0.0000642   0.0004278   0.0002755  -0.0002436  -0.0002301  -0.0000521
            7           8           9          10          11          12
    1  -0.0002151   0.0001406   0.0000621  -0.0000592  -0.0001220  -0.0000611
    2   0.0011319   0.0001389  -0.0000254  -0.0001682  -0.0001415   0.0000610
    3  -0.0001381   0.0000239   0.0001965   0.0001058  -0.0000902  -0.0001515
           13          14          15          16          17          18
    1  -0.0001188  -0.0002042   0.0001961   0.0002113  -0.0000279   0.0003053
    2  -0.0002411  -0.0002009  -0.0000880  -0.0000043  -0.0001715   0.0000975
    3  -0.0001553   0.0002274   0.0001975  -0.0004834   0.0002041  -0.0001784
 Gradient of SCF Energy
            1           2           3           4           5           6
    1   0.0003150  -0.0013701   0.0030449   0.0038268   0.0024607  -0.0008259
    2  -0.0060622   0.0003417   0.0053700   0.0025198  -0.0000844   0.0008442
    3   0.0025680  -0.0050877  -0.0010592   0.0044352   0.0044412   0.0024347
            7           8           9          10          11          12
    1   0.0076270   0.0008551   0.0002894  -0.0014906  -0.0039021  -0.0026211
    2  -0.0110344   0.0039035  -0.0002692  -0.0034260  -0.0041734   0.0021224
    3   0.0028858   0.0012811   0.0026150   0.0020531  -0.0030606  -0.0107497
           13          14          15          16          17          18
    1  -0.0067570   0.0050542   0.0000282  -0.0055372   0.0003297  -0.0013270
    2   0.0023338   0.0133990   0.0052203  -0.0103284  -0.0023401   0.0016633
    3  -0.0073023   0.0123516   0.0046113  -0.0109639   0.0025826  -0.0040362
 Max gradient component =       1.340E-02
 RMS gradient           =       5.065E-03
 Computing fast CPCM-SWIG gradient
 Updating gradient with PCM contributions...
 -- total gradient after adding PCM contribution --
---------------------------------------------------
  Atom         X              Y              Z     
---------------------------------------------------
   1      -0.000008       0.000004      -0.000006
   2       0.000003      -0.000020       0.000004
   3      -0.000004      -0.000018       0.000000
   4      -0.000012       0.000004      -0.000032
   5      -0.000013      -0.000003      -0.000015
   6       0.000027       0.000006       0.000033
   7      -0.000043       0.000071      -0.000019
   8       0.000016      -0.000019       0.000007
   9      -0.000002      -0.000028      -0.000004
  10      -0.000010      -0.000014      -0.000020
  11      -0.000009       0.000008      -0.000020
  12      -0.000002       0.000018      -0.000005
  13       0.000014       0.000003       0.000018
  14      -0.000006      -0.000095       0.000098
  15       0.000021      -0.000002       0.000007
  16       0.000003       0.000047       0.000022
  17      -0.000067      -0.000045       0.000012
  18       0.000091       0.000082      -0.000079
---------------------------------------------------
 Number of fixed atoms: 0
 Gradient time:  CPU 285.81 s  wall 41.44 s
-Performing force calculation on product structure in state0
 ----------------------------------------------------------------
             Standard Nuclear Orientation (Angstroms)
    I     Atom           X                Y                Z
 ----------------------------------------------------------------
    1      C      -0.4525264819    -0.0845693262     1.3312264158
    2      C      -1.4027322985    -0.8239342800     1.9537739318
    3      C      -2.2316882724    -1.7134621340     1.2310966875
    4      C      -2.0488946127    -1.8607100070    -0.1634359201
    5      C      -1.1175030122    -1.1336360423    -0.8281933815
    6      C      -0.2477108060    -0.1182398131    -0.1485715675
    7      C      -0.5147344497     1.2908645949    -0.7134685332
    8      H       0.1893645657     0.5865903165     1.8882089340
    9      H      -1.5245322482    -0.7442414888     3.0262062338
   10      H      -2.9805691082    -2.2969959631     1.7463642937
   11      H      -2.6583894012    -2.5738999278    -0.7030618724
   12      H      -0.9734003871    -1.2608042041    -1.8947608422
   13      H      -1.5700310595     1.5417233045    -0.5987051122
   14      O      -0.1056869582     1.3948597795    -2.0724364547
   15      H       0.0847314936     2.0072477746    -0.1530898300
   16      H      -0.7575392363     0.9525384470    -2.6269397361
   17      O       1.1442650708    -0.4220850541    -0.3938199048
   18      H       1.3259559021    -0.1508127765    -1.3044619418
 ----------------------------------------------------------------
 Nuclear Repulsion Energy =         447.25157855 hartrees
 There are       34 alpha and       33 beta electrons
 Discretize the solute cavity surface with Lebedev spheres
	Using 110 Lebedev grid points for each H atom
	Using 194 Lebedev grid points for other atoms
	Atomic van der Waals radii will be scaled by 1.20
 Remove points where switching function is < 1.0e-08
 Keep 1285 surface tesserae and discard 1451 interior tesserae
 Molecular Surface Area = 152.086 Angst**2
 Applying Cartesian multipole field
    Component          Value
    ---------          -----
     (2,0,0)        1.00000E-11
     (0,2,0)        2.00000E-11
     (0,0,2)       -3.00000E-11
 Nucleus-field energy     =    -0.0000000012 hartrees
 Requested basis set is 6-311++G(2df,2p)
 There are 126 shells and 396 basis functions
 A cutoff of  1.0D-12 yielded   7366 shell pairs
 There are     73534 function pairs (     91283 Cartesian)
 Smallest overlap matrix eigenvalue = 7.47E-07
 Linear dependence detected in AO basis
 Tighter screening thresholds may be required for diffuse basis sets
 Use S2THRESH > 14 and THRESH = 14 in case of SCF convergence issues
 Number of orthogonalized atomic orbitals = 395
 Maximum deviation from orthogonality = 5.872E-11
 Guess from superposition of atomic densities
 Warning:  Energy on first SCF cycle will be non-variational
 SAD guess density has 67.000000 electrons

 -----------------------------------------------------------------------
  General SCF calculation program by
  Eric Jon Sundstrom, Paul Horn, Yuezhi Mao, Dmitri Zuev, Alec White,
  David Stuck, Shaama M.S., Shane Yost, Joonho Lee, David Small,
  Daniel Levine, Susi Lehtola, Hugh Burton, Evgeny Epifanovsky,
  Bang C. Huynh
 -----------------------------------------------------------------------
 Exchange:     0.1500 Hartree-Fock + 1.0000 wB97M-V + LR-HF
 Correlation:  1.0000 wB97M-V
 Using SG-2 standard quadrature grid
 Nonlocal Correlation:  VV10 with C = 0.0100 and b = 6.00 and scale = 1.00000
 Grid used for NLC:  SG-1 standard quadrature
 
 Citation of the SMD model:
 Marenich, A.V.; Cramer, C.J.; Truhlar, D.G.
 J. Phys. Chem. B 2009, 113, 6378-6396.
 iSolventCode=           1
 Solvent: water                                                           
 
 vradii
            1           2           3           4           5           6
    1   1.8500000   1.8500000   1.8500000   1.8500000   1.8500000   1.8500000
            7           8           9          10          11          12
    1   1.8500000   1.2000000   1.2000000   1.2000000   1.2000000   1.2000000
           13          14          15          16          17          18
    1   1.2000000   1.5200000   1.2000000   1.2000000   1.5200000   1.2000000
 -------------------------------------------------------
 OpenMP BLAS3 based DFT computing Module                
 Release: version 1.0, May 2013, Q-Chem Inc. Pittsburgh 
 -------------------------------------------------------
 A unrestricted SCF calculation will be
 performed using DIIS, GDM
 SCF converges when RMS gradient is below 1.0e-07
 ---------------------------------------
  Cycle       Energy         DIIS error
 ---------------------------------------
    1    -425.1295240666      1.28e-02  
    2    -422.4306940961      1.21e-03  Done DIIS. Switching to GDM
 ---------------------------------------
  Cycle       Energy        RMS Gradient
 ---------------------------------------
    1    -422.4306940961      3.44e-02   Descent step
    2    -422.5221775405      1.76e-02   Normal BFGS step
    3    -422.5342378992      9.00e-03   Normal BFGS step
    4    -422.5361539436      5.98e-03   Normal BFGS step
    5    -422.5366283351      3.99e-03   Normal BFGS step
    6    -422.5367796189      1.14e-03   Normal BFGS step
    7    -422.5367956420      5.67e-04   Normal BFGS step
    8    -422.5368010026      3.72e-04   Normal BFGS step
    9    -422.5368017732      2.82e-04   Normal BFGS step
   10    -422.5368021313      8.17e-05   Normal BFGS step
   11    -422.5368022078      3.60e-05   Normal BFGS step
   12    -422.5368022174      1.70e-05   Normal BFGS step
   13    -422.5368022198      4.15e-06   Normal BFGS step
   14    -422.5368022200      2.74e-06   Normal BFGS step
   15    -422.5368022200      2.21e-06   Normal BFGS step
   16    -422.5368022200      1.02e-06   Normal BFGS step
   17    -422.5368022200      4.49e-07   Normal BFGS step
   18    -422.5368022200      1.55e-07   Normal BFGS step
   19    -422.5368022201      3.99e-08  Convergence criterion met
 ---------------------------------------
 SCF time:   CPU 2016.22s  wall 255.00s 
<S^2> =          0.788727199
(3)  G-ENP(liq) elect-nuc-pol free energy of system     -422.536802220 a.u.
(4)  G-CDS(liq) cavity-dispersion-solvent structure 
     free energy                                                3.5127 kcal/mol
(6)  G-S(liq) free energy of system                     -422.531204453 a.u.
 SCF   energy in the final basis set =     -422.5312044531
 Total energy in the final basis set =     -422.5312044531
 
 --------------------------------------------------------------
 
                    Orbital Energies (a.u.)
 --------------------------------------------------------------
 
 Alpha MOs
 -- Occupied --
-19.3436 -19.3375 -10.4068 -10.3873 -10.3521 -10.3479 -10.3476 -10.3440
-10.3429  -1.1731  -1.1461  -0.9772  -0.8835  -0.8766  -0.7987  -0.7230
 -0.7210  -0.6372  -0.6308  -0.6067  -0.5844  -0.5776  -0.5291  -0.5282
 -0.5241  -0.4845  -0.4682  -0.4636  -0.4420  -0.4382  -0.4103  -0.3869
 -0.3627  -0.2705
 -- Virtual --
  0.0248   0.0346   0.0372   0.0471   0.0543   0.0562   0.0636   0.0715
  0.0788   0.0870   0.1005   0.1128   0.1212   0.1295   0.1416   0.1426
  0.1458   0.1521   0.1547   0.1606   0.1619   0.1644   0.1696   0.1761
  0.1797   0.1872   0.1945   0.2044   0.2061   0.2156   0.2160   0.2192
  0.2206   0.2282   0.2486   0.2518   0.2539   0.2719   0.2766   0.2820
  0.2972   0.3046   0.3118   0.3231   0.3290   0.3351   0.3361   0.3412
  0.3518   0.3590   0.3640   0.3800   0.3870   0.3941   0.3965   0.4133
  0.4203   0.4287   0.4420   0.4621   0.4627   0.4824   0.5258   0.5375
  0.5520   0.5677   0.5876   0.5904   0.5966   0.6015   0.6047   0.6130
  0.6274   0.6316   0.6340   0.6516   0.6560   0.6732   0.6877   0.6966
  0.6976   0.7058   0.7205   0.7231   0.7270   0.7375   0.7416   0.7512
  0.7616   0.7672   0.7808   0.7898   0.8000   0.8223   0.8321   0.8373
  0.8486   0.8574   0.8626   0.8715   0.8854   0.9027   0.9034   0.9188
  0.9618   1.0060   1.0126   1.0282   1.0325   1.0528   1.0760   1.1050
  1.1084   1.1193   1.1265   1.1460   1.1511   1.1598   1.1827   1.1961
  1.2104   1.2193   1.2315   1.2378   1.2621   1.2696   1.2893   1.2963
  1.2987   1.3203   1.3523   1.3695   1.3718   1.3813   1.3949   1.4028
  1.4163   1.4207   1.4276   1.4415   1.4527   1.4764   1.4885   1.4911
  1.5073   1.5133   1.5349   1.5414   1.5540   1.5615   1.5803   1.5837
  1.6034   1.6194   1.6320   1.6698   1.6893   1.7188   1.7222   1.7636
  1.7787   1.8027   1.8274   1.8536   1.8670   1.9082   1.9635   1.9914
  2.0010   2.0565   2.0914   2.0966   2.1092   2.1391   2.2095   2.2557
  2.3228   2.3809   2.4247   2.4423   2.4676   2.5765   2.5943   2.6336
  2.6483   2.6641   2.6900   2.7394   2.7629   2.7801   2.8026   2.8054
  2.8179   2.8291   2.8426   2.8551   2.8693   2.8857   2.8862   2.9065
  2.9212   2.9354   2.9434   2.9603   2.9818   2.9904   2.9982   3.0298
  3.0507   3.0779   3.0872   3.1302   3.1581   3.1872   3.1895   3.2062
  3.2103   3.2327   3.2349   3.2618   3.2726   3.2772   3.2966   3.3143
  3.3214   3.3364   3.3646   3.3853   3.4130   3.4347   3.4418   3.4540
  3.4783   3.4792   3.4908   3.4942   3.5007   3.5213   3.5447   3.5563
  3.5887   3.5962   3.6434   3.6580   3.6676   3.6719   3.7083   3.7265
  3.7344   3.7512   3.7900   3.8015   3.8165   3.8450   3.8525   3.8558
  3.8728   3.8798   3.8992   3.9238   3.9260   3.9450   3.9678   3.9871
  3.9994   4.0085   4.0268   4.0614   4.0830   4.1092   4.1305   4.1619
  4.1678   4.1826   4.1988   4.2125   4.2242   4.2543   4.2567   4.2727
  4.3192   4.3372   4.3430   4.3670   4.3930   4.4241   4.4441   4.4646
  4.4795   4.4875   4.4948   4.5083   4.5339   4.5422   4.5920   4.6319
  4.6530   4.6576   4.6656   4.7045   4.7222   4.7297   4.7892   4.8214
  4.9010   4.9933   5.0486   5.1301   5.1552   5.1601   5.2172   5.2457
  5.2773   5.3159   5.3175   5.3651   5.3894   5.3984   5.4616   5.4842
  5.4967   5.5704   5.5836   5.6016   5.6416   5.6784   5.6969   5.7248
  5.7714   5.7797   5.8474   5.8787   5.9223   5.9557   6.0152   6.0675
  6.1843   6.4526   6.5871   6.6492   7.1193   7.1609   7.2909   7.3191
  7.3390   7.3787   7.4264   7.4985   7.6621   7.6862   7.7919   7.8463
 24.2496  24.6246  24.6958  24.8146  24.8727  25.0982  25.4007  50.6021
 50.6693
 
 Beta MOs
 -- Occupied --
-19.3434 -19.3361 -10.4075 -10.3861 -10.3466 -10.3456 -10.3444 -10.3426
-10.3422  -1.1715  -1.1442  -0.9705  -0.8770  -0.8710  -0.7901  -0.7180
 -0.7152  -0.6336  -0.6275  -0.6044  -0.5783  -0.5741  -0.5264  -0.5254
 -0.5210  -0.4784  -0.4637  -0.4519  -0.4359  -0.4277  -0.4047  -0.3790
 -0.3470
 -- Virtual --
 -0.0235   0.0244   0.0344   0.0369   0.0471   0.0544   0.0560   0.0698
  0.0760   0.0836   0.0872   0.1003   0.1128   0.1204   0.1319   0.1423
  0.1438   0.1451   0.1541   0.1555   0.1606   0.1619   0.1655   0.1699
  0.1762   0.1796   0.1884   0.1981   0.2039   0.2074   0.2154   0.2161
  0.2202   0.2265   0.2295   0.2483   0.2518   0.2534   0.2721   0.2771
  0.2824   0.2982   0.3075   0.3148   0.3244   0.3318   0.3380   0.3402
  0.3422   0.3537   0.3599   0.3661   0.3812   0.3875   0.3952   0.3991
  0.4153   0.4226   0.4301   0.4429   0.4632   0.4650   0.4833   0.5271
  0.5395   0.5548   0.5734   0.5911   0.5941   0.5992   0.6064   0.6091
  0.6168   0.6295   0.6329   0.6381   0.6546   0.6599   0.6766   0.6911
  0.6999   0.7013   0.7096   0.7238   0.7276   0.7293   0.7399   0.7477
  0.7560   0.7631   0.7699   0.7838   0.7944   0.8025   0.8255   0.8355
  0.8369   0.8535   0.8617   0.8667   0.8747   0.8902   0.9068   0.9073
  0.9201   0.9636   1.0083   1.0142   1.0303   1.0346   1.0533   1.0780
  1.1061   1.1102   1.1202   1.1274   1.1479   1.1530   1.1623   1.1860
  1.1996   1.2114   1.2193   1.2326   1.2388   1.2641   1.2711   1.2919
  1.2975   1.3006   1.3232   1.3545   1.3712   1.3768   1.3848   1.3974
  1.4075   1.4191   1.4254   1.4321   1.4447   1.4566   1.4793   1.4902
  1.4964   1.5099   1.5151   1.5390   1.5455   1.5567   1.5678   1.5845
  1.5872   1.6056   1.6214   1.6342   1.6728   1.6912   1.7231   1.7261
  1.7674   1.7836   1.8070   1.8357   1.8591   1.8703   1.9124   1.9677
  1.9947   2.0045   2.0640   2.0951   2.1011   2.1115   2.1423   2.2111
  2.2591   2.3247   2.3821   2.4264   2.4434   2.4694   2.5847   2.6008
  2.6462   2.6560   2.6691   2.6994   2.7488   2.7671   2.7932   2.8120
  2.8185   2.8280   2.8356   2.8494   2.8640   2.8802   2.8973   2.8997
  2.9161   2.9363   2.9540   2.9605   2.9697   2.9986   2.9993   3.0143
  3.0509   3.0644   3.0914   3.1047   3.1387   3.1662   3.1950   3.1986
  3.2128   3.2175   3.2415   3.2424   3.2726   3.2816   3.2867   3.3006
  3.3189   3.3318   3.3473   3.3810   3.3957   3.4219   3.4416   3.4516
  3.4593   3.4861   3.4883   3.5012   3.5036   3.5119   3.5328   3.5528
  3.5690   3.6019   3.6082   3.6544   3.6726   3.6780   3.6836   3.7129
  3.7359   3.7431   3.7632   3.7991   3.8089   3.8240   3.8509   3.8607
  3.8633   3.8808   3.8896   3.9071   3.9317   3.9335   3.9564   3.9777
  3.9947   4.0093   4.0182   4.0365   4.0689   4.0917   4.1169   4.1361
  4.1679   4.1748   4.1886   4.2028   4.2216   4.2315   4.2599   4.2623
  4.2801   4.3251   4.3463   4.3490   4.3747   4.3984   4.4291   4.4496
  4.4765   4.4887   4.4962   4.5042   4.5181   4.5421   4.5530   4.6015
  4.6420   4.6599   4.6705   4.6795   4.7133   4.7343   4.7400   4.7986
  4.8315   4.9113   5.0083   5.0618   5.1397   5.1679   5.1714   5.2296
  5.2550   5.2793   5.3171   5.3193   5.3697   5.3932   5.4062   5.4671
  5.4865   5.5017   5.5780   5.5873   5.6056   5.6498   5.6801   5.7048
  5.7274   5.7795   5.7824   5.8645   5.8917   5.9267   5.9633   6.0188
  6.0693   6.1979   6.4628   6.5907   6.6506   7.1201   7.1632   7.2931
  7.3196   7.3404   7.3804   7.4297   7.5015   7.6631   7.6896   7.7928
  7.8505  24.2515  24.6263  24.6967  24.8179  24.8755  25.0998  25.4033
 50.6026  50.6702
 --------------------------------------------------------------
 
          Ground-State Mulliken Net Atomic Charges

     Atom                 Charge (a.u.)    Spin (a.u.)
  --------------------------------------------------------
      1 C                    -0.164165       0.377063
      2 C                    -0.318043      -0.153112
      3 C                    -0.457253       0.529434
      4 C                    -0.390274      -0.156248
      5 C                    -0.146169       0.384535
      6 C                     0.196710      -0.024166
      7 C                    -0.498271       0.026577
      8 H                     0.297274      -0.007735
      9 H                     0.293673       0.004719
     10 H                     0.282962      -0.009349
     11 H                     0.292772       0.004633
     12 H                     0.278930      -0.008120
     13 H                     0.225464       0.002848
     14 O                    -0.421612       0.006525
     15 H                     0.240464       0.002078
     16 H                     0.334367      -0.000391
     17 O                    -0.399193       0.018789
     18 H                     0.352364       0.001921
  --------------------------------------------------------
  Sum of atomic charges =     0.000000
  Sum of spin   charges =     1.000000

 -----------------------------------------------------------------
                    Cartesian Multipole Moments
 -----------------------------------------------------------------
    Charge (ESU x 10^10)
                 0.0000
    Dipole Moment (Debye)
         X      -3.7276      Y       0.0670      Z      -0.8403
       Tot       3.8218
    Quadrupole Moments (Debye-Ang)
        XX     -52.8403     XY       3.9675     YY     -56.6862
        XZ       1.2180     YZ       3.6942     ZZ     -46.3082
    Octopole Moments (Debye-Ang^2)
       XXX     119.1378    XXY      10.2813    XYY      29.4443
       YYY      55.1106    XXZ      -3.0788    XYZ       7.4517
       YYZ       6.9967    XZZ      28.0618    YZZ       8.4184
       ZZZ      -4.2392
    Hexadecapole Moments (Debye-Ang^3)
      XXXX    -609.1061   XXXY    -130.2042   XXYY    -156.9229
      XYYY    -140.8613   YYYY    -558.9756   XXXZ      71.8496
      XXYZ      22.4088   XYYZ      29.9522   YYYZ     131.9302
      XXZZ    -173.3234   XYZZ     -48.6448   YYZZ    -204.2020
      XZZZ      90.0629   YZZZ     119.5418   ZZZZ    -503.5902
 -----------------------------------------------------------------
 Calculating analytic gradient of the SCF energy
 Gradient of CDS energy
            1           2           3           4           5           6
    1   0.0002747   0.0000265  -0.0004145  -0.0002107   0.0001726   0.0001790
    2   0.0000507   0.0001163  -0.0002979  -0.0002724  -0.0001105   0.0000750
    3   0.0001151   0.0004620   0.0002723  -0.0003304  -0.0002305  -0.0000990
            7           8           9          10          11          12
    1  -0.0001963   0.0001624  -0.0000235  -0.0001394  -0.0001176   0.0000297
    2   0.0010071   0.0001595   0.0000154  -0.0001086  -0.0001376   0.0000103
    3  -0.0001352   0.0000162   0.0002069   0.0000959  -0.0001041  -0.0000861
           13          14          15          16          17          18
    1  -0.0001577   0.0000662   0.0002589  -0.0000938  -0.0002451   0.0004286
    2  -0.0002477  -0.0002102  -0.0001190   0.0000921   0.0000431  -0.0000655
    3   0.0000434   0.0002350   0.0001198  -0.0004957   0.0001683  -0.0002537
 Gradient of SCF Energy
            1           2           3           4           5           6
    1  -0.0033947  -0.0000346   0.0066271   0.0003025   0.0003621   0.0035105
    2  -0.0025648   0.0002721   0.0036096   0.0009568   0.0028509   0.0015992
    3  -0.0026573  -0.0051729  -0.0024178   0.0043660   0.0090516   0.0023454
            7           8           9          10          11          12
    1   0.0042915   0.0003617  -0.0010612  -0.0046496  -0.0041736   0.0004508
    2  -0.0065220   0.0022639   0.0003343  -0.0034420  -0.0041786   0.0003543
    3  -0.0043858   0.0012381   0.0048226   0.0030593  -0.0035794  -0.0102491
           13          14          15          16          17          18
    1  -0.0069895   0.0123890   0.0006670  -0.0113156   0.0043971  -0.0017404
    2   0.0013532   0.0127446   0.0023145  -0.0094176  -0.0032070   0.0006786
    3  -0.0003541   0.0082898   0.0031185  -0.0079097   0.0063336  -0.0058987
 Max gradient component =       1.274E-02
 RMS gradient           =       5.076E-03
 Computing fast CPCM-SWIG gradient
 Updating gradient with PCM contributions...
 -- total gradient after adding PCM contribution --
---------------------------------------------------
  Atom         X              Y              Z     
---------------------------------------------------
   1      -0.000055      -0.000065       0.000239
   2       0.000009       0.000097       0.000065
   3       0.000021       0.000105       0.000075
   4       0.000036      -0.000010      -0.000184
   5       0.000064      -0.000076      -0.000156
   6       0.000090       0.000098      -0.000160
   7      -0.000140      -0.000030       0.000098
   8       0.000083      -0.000001      -0.000023
   9       0.000002      -0.000039      -0.000110
  10      -0.000098      -0.000077       0.000079
  11      -0.000062       0.000032      -0.000002
  12      -0.000040       0.000017       0.000105
  13       0.000029      -0.000122       0.000000
  14       0.000113       0.000232       0.000158
  15       0.000034       0.000050      -0.000034
  16       0.000002      -0.000134      -0.000123
  17       0.000035       0.000046      -0.000040
  18      -0.000124      -0.000122       0.000014
---------------------------------------------------
 Number of fixed atoms: 0
 Gradient time:  CPU 307.89 s  wall 43.72 s

STARTING FREEZING STRING ITERATION # 1
 The distance between the innermost nodes (Angstroms): 3.394
-Adding two new nodes
 The distance between the previous and current R_nodes (Angstroms): 0.1561
 The distance between the previous and current P_nodes (Angstroms): 0.1598
-Optimizing new reactant side node
 Using BFGS, step: 2 E_tol 0.0255
 max_steps 6, node_spacing 0.1697, sigma 0.7000
 ----------------------------------------------------------------
             Standard Nuclear Orientation (Angstroms)
    I     Atom           X                Y                Z
 ----------------------------------------------------------------
    1      C      -0.7050100580     0.0660476316     1.1506291694
    2      C      -1.1244245429    -1.0506864237     1.8601174597
    3      C      -1.9351822304    -2.0000848115     1.2521893538
    4      C      -2.3265335355    -1.8372765877    -0.0725738111
    5      C      -1.9087905295    -0.7247891209    -0.7841389923
    6      C      -1.0949790180     0.2350555012    -0.1792153231
    7      C      -0.6325860087     1.4329078482    -0.9596481546
    8      H      -0.0851588953     0.8147649586     1.6274477894
    9      H      -0.8234419614    -1.1741820807     2.8917639279
   10      H      -2.2676807876    -2.8654831260     1.8090102227
   11      H      -2.9618463577    -2.5738703437    -0.5456259844
   12      H      -2.2211472686    -0.5979491796    -1.8137293112
   13      H      -1.4174053376     1.7812013203    -1.6303276034
   14      O       0.5486195626     1.1230229036    -1.7226945475
   15      H      -0.3525110426     2.2482872595    -0.2973468848
   16      H       0.2910535040     0.5349320812    -2.4421717379
   17      O       1.7107286179    -0.7338921642     0.0676682651
   18      H       1.4532892093    -0.0936321475    -0.6352776160
 ----------------------------------------------------------------
 Nuclear Repulsion Energy =         428.93285714 hartrees
 There are       34 alpha and       33 beta electrons
 Discretize the solute cavity surface with Lebedev spheres
	Using 110 Lebedev grid points for each H atom
	Using 194 Lebedev grid points for other atoms
	Atomic van der Waals radii will be scaled by 1.20
 Remove points where switching function is < 1.0e-08
 Keep 1345 surface tesserae and discard 1391 interior tesserae
 Molecular Surface Area = 160.201 Angst**2
 Applying Cartesian multipole field
    Component          Value
    ---------          -----
     (2,0,0)        1.00000E-11
     (0,2,0)        2.00000E-11
     (0,0,2)       -3.00000E-11
 Nucleus-field energy     =     0.0000000023 hartrees
 Requested basis set is 6-311++G(2df,2p)
 There are 126 shells and 396 basis functions
 A cutoff of  1.0D-12 yielded   7252 shell pairs
 There are     72386 function pairs (     89755 Cartesian)
 Smallest overlap matrix eigenvalue = 7.15E-07
 Linear dependence detected in AO basis
 Tighter screening thresholds may be required for diffuse basis sets
 Use S2THRESH > 14 and THRESH = 14 in case of SCF convergence issues
 Number of orthogonalized atomic orbitals = 395
 Maximum deviation from orthogonality = 3.880E-11
 Guess from superposition of atomic densities
 Warning:  Energy on first SCF cycle will be non-variational
 SAD guess density has 67.000000 electrons

 -----------------------------------------------------------------------
  General SCF calculation program by
  Eric Jon Sundstrom, Paul Horn, Yuezhi Mao, Dmitri Zuev, Alec White,
  David Stuck, Shaama M.S., Shane Yost, Joonho Lee, David Small,
  Daniel Levine, Susi Lehtola, Hugh Burton, Evgeny Epifanovsky,
  Bang C. Huynh
 -----------------------------------------------------------------------
 Exchange:     0.1500 Hartree-Fock + 1.0000 wB97M-V + LR-HF
 Correlation:  1.0000 wB97M-V
 Using SG-2 standard quadrature grid
 Nonlocal Correlation:  VV10 with C = 0.0100 and b = 6.00 and scale = 1.00000
 Grid used for NLC:  SG-1 standard quadrature
 
 Citation of the SMD model:
 Marenich, A.V.; Cramer, C.J.; Truhlar, D.G.
 J. Phys. Chem. B 2009, 113, 6378-6396.
 iSolventCode=           1
 Solvent: water                                                           
 
 vradii
            1           2           3           4           5           6
    1   1.8500000   1.8500000   1.8500000   1.8500000   1.8500000   1.8500000
            7           8           9          10          11          12
    1   1.8500000   1.2000000   1.2000000   1.2000000   1.2000000   1.2000000
           13          14          15          16          17          18
    1   1.2000000   1.5200000   1.2000000   1.2000000   1.5200000   1.2000000
 -------------------------------------------------------
 OpenMP BLAS3 based DFT computing Module                
 Release: version 1.0, May 2013, Q-Chem Inc. Pittsburgh 
 -------------------------------------------------------
 A unrestricted SCF calculation will be
 performed using DIIS, GDM
 SCF converges when RMS gradient is below 1.0e-07
 ---------------------------------------
  Cycle       Energy         DIIS error
 ---------------------------------------
    1    -424.8225913011      1.25e-02  
    2    -422.2751218324      1.68e-03  Done DIIS. Switching to GDM
 ---------------------------------------
  Cycle       Energy        RMS Gradient
 ---------------------------------------
    1    -422.2751218324      4.32e-01   Descent step
    2    -422.4562408415      2.05e-02   Normal BFGS step
    3    -422.4800194046      7.35e-02   Normal BFGS step
    4    -422.4911116744      4.99e-02   Normal BFGS step
    5    -422.5009539478      3.12e-02   Dog-leg BFGS step
    6    -422.5006084726      6.32e-02  Line search: overstep
    7    -422.5072765383      1.94e-02   Normal BFGS step
    8    -422.5101790129      8.83e-03   Normal BFGS step
    9    -422.5106772011      3.56e-03   Normal BFGS step
   10    -422.5107526208      1.31e-03   Normal BFGS step
   11    -422.5107727794      4.50e-04   Normal BFGS step
   12    -422.5107758255      2.84e-04   Normal BFGS step
   13    -422.5107770705      2.40e-04   Normal BFGS step
   14    -422.5107775587      1.39e-04   Normal BFGS step
   15    -422.5107777282      4.90e-05   Normal BFGS step
   16    -422.5107777588      1.99e-05   Normal BFGS step
   17    -422.5107777651      1.87e-05   Normal BFGS step
   18    -422.5107777662      1.77e-05   Normal BFGS step
   19    -422.5107777670      1.66e-05   Normal BFGS step
   20    -422.5107777680      1.50e-05   Normal BFGS step
   21    -422.5107777696      1.20e-05   Normal BFGS step
   22    -422.5107777717      1.09e-05   Normal BFGS step
   23    -422.5107777736      6.69e-06   Normal BFGS step
   24    -422.5107777745      4.35e-06   Normal BFGS step
   25    -422.5107777747      2.62e-06   Normal BFGS step
   26    -422.5107777747      1.62e-06   Normal BFGS step
   27    -422.5107777748      7.73e-07   Normal BFGS step
   28    -422.5107777748      2.12e-07   Normal BFGS step
   29    -422.5107777748      7.84e-08  Convergence criterion met
 ---------------------------------------
 SCF time:   CPU 2915.23s  wall 369.00s 
<S^2> =          0.753849182
(3)  G-ENP(liq) elect-nuc-pol free energy of system     -422.510777775 a.u.
(4)  G-CDS(liq) cavity-dispersion-solvent structure 
     free energy                                                3.3446 kcal/mol
(6)  G-S(liq) free energy of system                     -422.505447849 a.u.
 SCF   energy in the final basis set =     -422.5054478492
 Total energy in the final basis set =     -422.5054478492
 
 --------------------------------------------------------------
 
                    Orbital Energies (a.u.)
 --------------------------------------------------------------
 
 Alpha MOs
 -- Occupied --
-19.3841 -19.3463 -10.3882 -10.3539 -10.3474 -10.3455 -10.3451 -10.3447
-10.3443  -1.1624  -1.1235  -0.9894  -0.8924  -0.8729  -0.7986  -0.7245
 -0.7045  -0.6375  -0.6164  -0.5842  -0.5711  -0.5635  -0.5392  -0.5267
 -0.5199  -0.5106  -0.4784  -0.4645  -0.4507  -0.4479  -0.4332  -0.3964
 -0.3482  -0.3429
 -- Virtual --
  0.0237   0.0354   0.0368   0.0482   0.0523   0.0558   0.0584   0.0601
  0.0812   0.0861   0.0890   0.0944   0.1069   0.1254   0.1369   0.1377
  0.1487   0.1517   0.1568   0.1603   0.1611   0.1629   0.1734   0.1768
  0.1791   0.1834   0.1924   0.2035   0.2094   0.2140   0.2170   0.2194
  0.2272   0.2479   0.2488   0.2601   0.2634   0.2685   0.2797   0.2819
  0.2835   0.2943   0.3034   0.3060   0.3215   0.3253   0.3290   0.3427
  0.3459   0.3504   0.3560   0.3613   0.3702   0.3786   0.3887   0.4095
  0.4252   0.4300   0.4417   0.4517   0.4556   0.4979   0.5326   0.5387
  0.5676   0.5832   0.5922   0.5983   0.6039   0.6143   0.6163   0.6201
  0.6267   0.6337   0.6387   0.6485   0.6606   0.6755   0.6870   0.6979
  0.7035   0.7108   0.7255   0.7292   0.7345   0.7385   0.7413   0.7491
  0.7563   0.7653   0.7869   0.7939   0.8060   0.8276   0.8299   0.8402
  0.8507   0.8602   0.8721   0.8900   0.8921   0.8959   0.9056   0.9121
  0.9326   0.9486   0.9662   1.0174   1.0242   1.0444   1.0605   1.0758
  1.0832   1.0930   1.1154   1.1301   1.1393   1.1509   1.1688   1.1870
  1.1918   1.1965   1.2178   1.2250   1.2352   1.2406   1.2472   1.2653
  1.2681   1.2928   1.3028   1.3240   1.3389   1.3639   1.3701   1.3845
  1.3935   1.4025   1.4172   1.4427   1.4438   1.4474   1.4640   1.4681
  1.4883   1.4900   1.5136   1.5307   1.5501   1.5727   1.5810   1.5854
  1.5895   1.6188   1.6252   1.6475   1.6879   1.7022   1.7088   1.7289
  1.7452   1.7884   1.8053   1.8195   1.8695   1.8917   1.9212   1.9416
  1.9815   2.0206   2.0593   2.0775   2.0886   2.1064   2.1230   2.2034
  2.2298   2.2725   2.3495   2.4161   2.4675   2.5668   2.5984   2.6461
  2.6532   2.6802   2.6896   2.7172   2.7530   2.7966   2.8057   2.8220
  2.8312   2.8393   2.8498   2.8685   2.8748   2.8808   2.8925   2.9114
  2.9175   2.9336   2.9411   2.9494   2.9617   2.9722   3.0037   3.0165
  3.0340   3.0571   3.0813   3.0897   3.1474   3.1660   3.1747   3.1825
  3.2017   3.2124   3.2224   3.2431   3.2514   3.2647   3.2760   3.2953
  3.3047   3.3233   3.3390   3.3587   3.3648   3.3728   3.3912   3.4230
  3.4411   3.4553   3.4678   3.4863   3.5049   3.5237   3.5316   3.5459
  3.5503   3.5735   3.5930   3.6152   3.6197   3.6429   3.6560   3.6737
  3.7458   3.7631   3.7878   3.8008   3.8080   3.8235   3.8330   3.8476
  3.8611   3.8851   3.8947   3.9095   3.9225   3.9344   3.9551   3.9603
  3.9765   3.9815   4.0111   4.0442   4.0772   4.1095   4.1297   4.1387
  4.1563   4.1756   4.2008   4.2096   4.2228   4.2769   4.2970   4.3244
  4.3532   4.3622   4.3888   4.4064   4.4112   4.4314   4.4423   4.4566
  4.4819   4.4878   4.5249   4.5528   4.5744   4.5857   4.5934   4.6006
  4.6293   4.6473   4.7058   4.7505   4.7911   4.8147   4.8449   4.8885
  4.9563   5.0660   5.0745   5.0789   5.0828   5.0873   5.1257   5.1493
  5.1789   5.2028   5.2131   5.2288   5.2608   5.2961   5.3203   5.3578
  5.4081   5.4389   5.5153   5.5187   5.5500   5.5822   5.5944   5.6054
  5.7213   5.7479   5.7624   5.8306   5.8555   5.8885   5.9145   5.9445
  6.0142   6.2797   6.6276   6.6437   6.8018   6.8658   6.9903   7.0022
  7.1305   7.1984   7.3244   7.3427   7.4024   7.5585   7.6709   7.7950
 24.2119  24.7953  24.8016  24.8045  25.0339  25.0704  25.5295  50.4012
 50.6138
 
 Beta MOs
 -- Occupied --
-19.3602 -19.3464 -10.3882 -10.3535 -10.3471 -10.3454 -10.3450 -10.3448
-10.3443  -1.1618  -1.0564  -0.9886  -0.8919  -0.8724  -0.7984  -0.7239
 -0.7040  -0.6373  -0.6142  -0.5737  -0.5703  -0.5521  -0.5367  -0.5253
 -0.5166  -0.4839  -0.4652  -0.4476  -0.4332  -0.4195  -0.3956  -0.3499
 -0.3438
 -- Virtual --
 -0.0626   0.0239   0.0356   0.0370   0.0497   0.0530   0.0564   0.0590
  0.0619   0.0825   0.0862   0.0890   0.0948   0.1078   0.1264   0.1379
  0.1387   0.1491   0.1523   0.1570   0.1605   0.1615   0.1631   0.1736
  0.1770   0.1793   0.1842   0.1934   0.2038   0.2098   0.2151   0.2171
  0.2201   0.2274   0.2484   0.2497   0.2616   0.2647   0.2693   0.2802
  0.2832   0.2848   0.2946   0.3045   0.3121   0.3230   0.3257   0.3331
  0.3434   0.3483   0.3508   0.3577   0.3621   0.3703   0.3788   0.3901
  0.4111   0.4260   0.4303   0.4427   0.4524   0.4574   0.4986   0.5335
  0.5397   0.5685   0.5846   0.5928   0.5987   0.6052   0.6146   0.6167
  0.6218   0.6270   0.6357   0.6402   0.6488   0.6619   0.6761   0.6895
  0.6984   0.7043   0.7116   0.7260   0.7303   0.7349   0.7390   0.7416
  0.7498   0.7568   0.7656   0.7872   0.7943   0.8068   0.8281   0.8310
  0.8422   0.8514   0.8614   0.8725   0.8906   0.8927   0.8965   0.9064
  0.9128   0.9342   0.9504   0.9670   1.0194   1.0265   1.0464   1.0614
  1.0769   1.0862   1.0936   1.1199   1.1320   1.1412   1.1528   1.1697
  1.1885   1.1985   1.2010   1.2185   1.2315   1.2384   1.2430   1.2569
  1.2673   1.2865   1.2946   1.3046   1.3245   1.3471   1.3669   1.3750
  1.3853   1.3950   1.4052   1.4200   1.4435   1.4449   1.4480   1.4650
  1.4689   1.4890   1.4917   1.5146   1.5341   1.5508   1.5756   1.5812
  1.5861   1.5908   1.6208   1.6415   1.6807   1.6958   1.7092   1.7120
  1.7376   1.7725   1.7915   1.8068   1.8205   1.8749   1.8953   1.9279
  1.9535   1.9975   2.0330   2.0617   2.0786   2.0896   2.1099   2.1245
  2.2068   2.2339   2.2750   2.3553   2.4189   2.4720   2.5679   2.5988
  2.6467   2.6539   2.6810   2.6903   2.7188   2.7537   2.7973   2.8066
  2.8239   2.8347   2.8425   2.8521   2.8696   2.8763   2.8817   2.8949
  2.9122   2.9183   2.9347   2.9417   2.9508   2.9627   2.9733   3.0055
  3.0174   3.0349   3.0600   3.0825   3.0907   3.1477   3.1674   3.1751
  3.1831   3.2024   3.2129   3.2231   3.2438   3.2521   3.2660   3.2767
  3.2960   3.3056   3.3239   3.3396   3.3594   3.3664   3.3734   3.3916
  3.4233   3.4416   3.4563   3.4682   3.4870   3.5055   3.5244   3.5321
  3.5466   3.5511   3.5741   3.5938   3.6157   3.6217   3.6436   3.6566
  3.6747   3.7465   3.7657   3.7903   3.8017   3.8103   3.8247   3.8336
  3.8495   3.8626   3.8861   3.8967   3.9104   3.9235   3.9354   3.9557
  3.9615   3.9774   3.9829   4.0137   4.0471   4.0827   4.1106   4.1306
  4.1394   4.1566   4.1766   4.2014   4.2103   4.2237   4.2773   4.2982
  4.3253   4.3537   4.3643   4.3929   4.4069   4.4129   4.4319   4.4444
  4.4574   4.4834   4.4892   4.5263   4.5538   4.5753   4.5868   4.5944
  4.6015   4.6298   4.6478   4.7070   4.7516   4.7918   4.8154   4.8463
  4.8894   4.9573   5.0682   5.1316   5.1397   5.1465   5.1521   5.1736
  5.1805   5.1914   5.2117   5.2317   5.2632   5.2976   5.3061   5.3249
  5.3621   5.4089   5.4646   5.5196   5.5240   5.5513   5.5943   5.6221
  5.6437   5.7219   5.7527   5.7632   5.8316   5.8557   5.8890   5.9147
  5.9453   6.0144   6.2803   6.6293   6.6444   6.9162   6.9874   7.0291
  7.1050   7.1376   7.2395   7.3261   7.3446   7.4129   7.5923   7.6898
  7.7962  24.2120  24.7954  24.8018  24.8045  25.0341  25.0705  25.5298
 50.4177  50.6138
 --------------------------------------------------------------
 
          Ground-State Mulliken Net Atomic Charges

     Atom                 Charge (a.u.)    Spin (a.u.)
  --------------------------------------------------------
      1 C                    -0.253864       0.004839
      2 C                    -0.359674       0.019067
      3 C                    -0.457360      -0.017141
      4 C                    -0.256915       0.023913
      5 C                    -0.205782      -0.004884
      6 C                     0.355119       0.023275
      7 C                    -0.607074      -0.003460
      8 H                     0.328017       0.001267
      9 H                     0.294996      -0.000151
     10 H                     0.277387       0.000113
     11 H                     0.290586      -0.000259
     12 H                     0.286119       0.000246
     13 H                     0.209660       0.000334
     14 O                    -0.418183       0.000597
     15 H                     0.217383      -0.000499
     16 H                     0.334325      -0.000550
     17 O                    -0.401486       0.961756
     18 H                     0.366747      -0.008466
  --------------------------------------------------------
  Sum of atomic charges =     0.000000
  Sum of spin   charges =     1.000000

 -----------------------------------------------------------------
                    Cartesian Multipole Moments
 -----------------------------------------------------------------
    Charge (ESU x 10^10)
                 0.0000
    Dipole Moment (Debye)
         X      -3.6166      Y       0.8910      Z      -2.0329
       Tot       4.2434
    Quadrupole Moments (Debye-Ang)
        XX     -57.7757     XY       3.8275     YY     -53.3391
        XZ       2.5820     YZ       0.7082     ZZ     -44.8539
    Octopole Moments (Debye-Ang^2)
       XXX     129.1859    XXY      11.7116    XYY      24.7731
       YYY      55.9217    XXZ     -14.4092    XYZ       7.6491
       YYZ       6.0995    XZZ      36.3266    YZZ      11.2539
       ZZZ     -16.5042
    Hexadecapole Moments (Debye-Ang^3)
      XXXX    -811.5323   XXXY    -136.8715   XXYY    -196.2858
      XYYY    -131.9585   YYYY    -554.3816   XXXZ      76.7673
      XXYZ      47.7505   XYYZ      19.9144   YYYZ     127.2101
      XXZZ    -211.9700   XYZZ     -51.8993   YYZZ    -177.6065
      XZZZ      67.9431   YZZZ     122.8378   ZZZZ    -433.2213
 -----------------------------------------------------------------
 Calculating analytic gradient of the SCF energy
 Gradient of CDS energy
            1           2           3           4           5           6
    1  -0.0000723   0.0001532  -0.0001466  -0.0002927  -0.0000889   0.0003587
    2   0.0003042   0.0000380  -0.0004073  -0.0003307   0.0001893  -0.0001743
    3   0.0000591   0.0004289   0.0002783  -0.0002477  -0.0002323  -0.0000549
            7           8           9          10          11          12
    1  -0.0002151   0.0001424   0.0000578  -0.0000636  -0.0001219  -0.0000588
    2   0.0011252   0.0001399  -0.0000237  -0.0001657  -0.0001414   0.0000572
    3  -0.0001167   0.0000225   0.0001980   0.0001066  -0.0000908  -0.0001482
           13          14          15          16          17          18
    1  -0.0001250  -0.0001951   0.0001956   0.0002000  -0.0000415   0.0003138
    2  -0.0002412  -0.0002020  -0.0000883   0.0000038  -0.0001702   0.0000872
    3  -0.0001545   0.0002344   0.0001888  -0.0004887   0.0002036  -0.0001862
 Gradient of SCF Energy
            1           2           3           4           5           6
    1   0.0007463  -0.0004668   0.0026620   0.0031275   0.0006676   0.0026903
    2  -0.0065530   0.0026981   0.0054181   0.0033691  -0.0015979   0.0001054
    3   0.0075363  -0.0065464  -0.0015813   0.0031468   0.0032343   0.0003483
            7           8           9          10          11          12
    1   0.0072514   0.0012705   0.0003799  -0.0017224  -0.0039847  -0.0029215
    2  -0.0098132   0.0035518   0.0001591  -0.0033519  -0.0041259   0.0007873
    3   0.0038676   0.0014732   0.0024914   0.0017208  -0.0032619  -0.0109175
           13          14          15          16          17          18
    1  -0.0069053   0.0039087   0.0001945  -0.0058478  -0.0000704  -0.0009798
    2   0.0020535   0.0127458   0.0055986  -0.0103129  -0.0017429   0.0010110
    3  -0.0065460   0.0133926   0.0039262  -0.0109137   0.0023738  -0.0037443
 Max gradient component =       1.339E-02
 RMS gradient           =       5.092E-03
 Computing fast CPCM-SWIG gradient
 Updating gradient with PCM contributions...
 -- total gradient after adding PCM contribution --
---------------------------------------------------
  Atom         X              Y              Z     
---------------------------------------------------
   1       0.000753       0.000158       0.004516
   2       0.000873       0.002466      -0.001478
   3      -0.000487      -0.000007      -0.000525
   4      -0.000643       0.000650      -0.001339
   5      -0.002070      -0.002213      -0.001107
   6       0.003909      -0.000971      -0.002098
   7      -0.001080       0.001370       0.001568
   8       0.000523      -0.000330       0.000134
   9       0.000111       0.000366      -0.000156
  10      -0.000133       0.000008      -0.000354
  11      -0.000045       0.000083      -0.000169
  12      -0.000404      -0.001171       0.000023
  13      -0.000001      -0.000300       0.000352
  14      -0.001440      -0.000648       0.001181
  15       0.000129       0.000485      -0.000610
  16       0.000128       0.000006       0.000023
  17      -0.000437       0.000462      -0.000222
  18       0.000312      -0.000413       0.000261
---------------------------------------------------
 Number of fixed atoms: 0
 Gradient time:  CPU 282.28 s  wall 40.96 s
 ----------------------------------------------------------------
             Standard Nuclear Orientation (Angstroms)
    I     Atom           X                Y                Z
 ----------------------------------------------------------------
    1      C      -0.7087051958     0.0648167674     1.1256291694
    2      C      -1.1300563838    -1.0643646207     1.8689562547
    3      C      -1.9332012603    -1.9996448467     1.2554075934
    4      C      -2.3222180248    -1.8412615961    -0.0653064737
    5      C      -1.8952290734    -0.7133026662    -0.7783867092
    6      C      -1.1152470403     0.2395946015    -0.1674354915
    7      C      -0.6261228884     1.4252278127    -0.9677958351
    8      H      -0.0875360785     0.8161227060     1.6274362524
    9      H      -0.8258765944    -1.1756021392     2.8934993621
   10      H      -2.2688905742    -2.8645274107     1.8114590890
   11      H      -2.9608840348    -2.5745833714    -0.5451102752
   12      H      -2.2162554869    -0.5929576630    -1.8146539800
   13      H      -1.4182869544     1.7833334564    -1.6299328047
   14      O       0.5558827749     1.1276817003    -1.7307597131
   15      H      -0.3520652133     2.2451347278    -0.2929575125
   16      H       0.2885913505     0.5363826111    -2.4437759765
   17      O       1.7116807705    -0.7361475917     0.0678885554
   18      H       1.4513844469    -0.0914038277    -0.6386075714
 ----------------------------------------------------------------
 Nuclear Repulsion Energy =         429.06950624 hartrees
 There are       34 alpha and       33 beta electrons
 Discretize the solute cavity surface with Lebedev spheres
	Using 110 Lebedev grid points for each H atom
	Using 194 Lebedev grid points for other atoms
	Atomic van der Waals radii will be scaled by 1.20
 Remove points where switching function is < 1.0e-08
 Keep 1338 surface tesserae and discard 1398 interior tesserae
 Molecular Surface Area = 160.212 Angst**2
 Applying Cartesian multipole field
    Component          Value
    ---------          -----
     (2,0,0)        1.00000E-11
     (0,2,0)        2.00000E-11
     (0,0,2)       -3.00000E-11
 Nucleus-field energy     =     0.0000000023 hartrees
 Requested basis set is 6-311++G(2df,2p)
 There are 126 shells and 396 basis functions
 A cutoff of  1.0D-12 yielded   7251 shell pairs
 There are     72374 function pairs (     89743 Cartesian)
 Smallest overlap matrix eigenvalue = 6.89E-07
 Linear dependence detected in AO basis
 Tighter screening thresholds may be required for diffuse basis sets
 Use S2THRESH > 14 and THRESH = 14 in case of SCF convergence issues
 Number of orthogonalized atomic orbitals = 395
 Maximum deviation from orthogonality = 7.455E-11
 Guess from superposition of atomic densities
 Warning:  Energy on first SCF cycle will be non-variational
 SAD guess density has 67.000000 electrons

 -----------------------------------------------------------------------
  General SCF calculation program by
  Eric Jon Sundstrom, Paul Horn, Yuezhi Mao, Dmitri Zuev, Alec White,
  David Stuck, Shaama M.S., Shane Yost, Joonho Lee, David Small,
  Daniel Levine, Susi Lehtola, Hugh Burton, Evgeny Epifanovsky,
  Bang C. Huynh
 -----------------------------------------------------------------------
 Exchange:     0.1500 Hartree-Fock + 1.0000 wB97M-V + LR-HF
 Correlation:  1.0000 wB97M-V
 Using SG-2 standard quadrature grid
 Nonlocal Correlation:  VV10 with C = 0.0100 and b = 6.00 and scale = 1.00000
 Grid used for NLC:  SG-1 standard quadrature
 
 Citation of the SMD model:
 Marenich, A.V.; Cramer, C.J.; Truhlar, D.G.
 J. Phys. Chem. B 2009, 113, 6378-6396.
 iSolventCode=           1
 Solvent: water                                                           
 
 vradii
            1           2           3           4           5           6
    1   1.8500000   1.8500000   1.8500000   1.8500000   1.8500000   1.8500000
            7           8           9          10          11          12
    1   1.8500000   1.2000000   1.2000000   1.2000000   1.2000000   1.2000000
           13          14          15          16          17          18
    1   1.2000000   1.5200000   1.2000000   1.2000000   1.5200000   1.2000000
 -------------------------------------------------------
 OpenMP BLAS3 based DFT computing Module                
 Release: version 1.0, May 2013, Q-Chem Inc. Pittsburgh 
 -------------------------------------------------------
 A unrestricted SCF calculation will be
 performed using DIIS, GDM
 SCF converges when RMS gradient is below 1.0e-07
 ---------------------------------------
  Cycle       Energy         DIIS error
 ---------------------------------------
    1    -424.8352536748      1.26e-02  
    2    -422.2763884495      1.67e-03  Done DIIS. Switching to GDM
 ---------------------------------------
  Cycle       Energy        RMS Gradient
 ---------------------------------------
    1    -422.2763884495      4.44e-01   Descent step
    2    -422.4554030913      3.49e-02   Normal BFGS step
    3    -422.4792353005      7.40e-02   Normal BFGS step
    4    -422.4903741868      5.04e-02   Normal BFGS step
    5    -422.4996455611      3.03e-02   Dog-leg BFGS step
    6    -422.4984077789      6.63e-02  Line search: overstep
    7    -422.5054903845      1.73e-02   Normal BFGS step
    8    -422.5080882058      7.73e-03   Normal BFGS step
    9    -422.5085194922      2.37e-03   Normal BFGS step
   10    -422.5085931584      1.66e-03   Normal BFGS step
   11    -422.5086187792      9.09e-04   Normal BFGS step
   12    -422.5086308185      8.27e-04   Normal BFGS step
   13    -422.5086355131      7.94e-04   Normal BFGS step
   14    -422.5086379997      7.62e-04   Normal BFGS step
   15    -422.5086397094      7.33e-04   Normal BFGS step
   16    -422.5086419033      6.73e-04   Normal BFGS step
   17    -422.5086455951      6.43e-04   Normal BFGS step
   18    -422.5086503429      7.35e-04   Normal BFGS step
   19    -422.5086537358      4.80e-04   Normal BFGS step
   20    -422.5086547722      1.61e-04   Normal BFGS step
   21    -422.5086549346      5.82e-05   Normal BFGS step
   22    -422.5086549725      2.87e-05   Normal BFGS step
   23    -422.5086549799      1.97e-05   Normal BFGS step
   24    -422.5086549829      8.29e-06   Normal BFGS step
   25    -422.5086549835      5.08e-06   Normal BFGS step
   26    -422.5086549837      2.64e-06   Normal BFGS step
   27    -422.5086549837      6.69e-07   Normal BFGS step
   28    -422.5086549837      2.63e-07   Normal BFGS step
   29    -422.5086549837      1.23e-07   Normal BFGS step
   30    -422.5086549838      5.40e-08  Convergence criterion met
 ---------------------------------------
 SCF time:   CPU 3048.26s  wall 385.00s 
<S^2> =          0.753949298
(3)  G-ENP(liq) elect-nuc-pol free energy of system     -422.508654984 a.u.
(4)  G-CDS(liq) cavity-dispersion-solvent structure 
     free energy                                                3.3215 kcal/mol
(6)  G-S(liq) free energy of system                     -422.503361820 a.u.
 SCF   energy in the final basis set =     -422.5033618205
 Total energy in the final basis set =     -422.5033618205
 
 --------------------------------------------------------------
 
                    Orbital Energies (a.u.)
 --------------------------------------------------------------
 
 Alpha MOs
 -- Occupied --
-19.3846 -19.3483 -10.3893 -10.3495 -10.3479 -10.3465 -10.3459 -10.3448
-10.3427  -1.1639  -1.1223  -0.9918  -0.8958  -0.8689  -0.7977  -0.7281
 -0.7023  -0.6379  -0.6158  -0.5830  -0.5705  -0.5619  -0.5421  -0.5273
 -0.5182  -0.5097  -0.4784  -0.4627  -0.4505  -0.4479  -0.4354  -0.3951
[...]
 -----------------------------------------------------------------
    Charge (ESU x 10^10)
                 0.0000
    Dipole Moment (Debye)
         X      -5.4699      Y       1.2537      Z      -0.7033
       Tot       5.6557
    Quadrupole Moments (Debye-Ang)
        XX     -54.7437     XY       4.2629     YY     -51.0831
        XZ       3.0980     YZ       0.9007     ZZ     -43.8563
    Octopole Moments (Debye-Ang^2)
       XXX     130.9001    XXY      12.7065    XYY      22.5391
       YYY      55.2317    XXZ      -5.5940    XYZ      11.0409
       YYZ       5.0812    XZZ      23.0896    YZZ      11.8191
       ZZZ      -4.9166
    Hexadecapole Moments (Debye-Ang^3)
      XXXX    -634.0219   XXXY    -141.7974   XXYY    -161.0839
      XYYY    -121.2294   YYYY    -567.1447   XXXZ      97.3512
      XXYZ      29.5447   XYYZ      30.5674   YYYZ     118.3736
      XXZZ    -180.5713   XYZZ     -51.9408   YYZZ    -190.0651
      XZZZ     110.3268   YZZZ     109.4802   ZZZZ    -496.8824
 -----------------------------------------------------------------
 Calculating analytic gradient of the SCF energy
 Gradient of CDS energy
            1           2           3           4           5           6
    1   0.0000610   0.0000279  -0.0002187  -0.0001815  -0.0000826   0.0003135
    2   0.0002812   0.0000651  -0.0004030  -0.0003227   0.0001461  -0.0000760
    3   0.0000469   0.0004800   0.0002534  -0.0002970  -0.0002345  -0.0000538
            7           8           9          10          11          12
    1   0.0000735   0.0001010  -0.0000034  -0.0000870  -0.0000885   0.0000385
    2   0.0009760   0.0001447   0.0000003  -0.0001557  -0.0001560   0.0000139
    3  -0.0001894   0.0000539   0.0002074   0.0001032  -0.0001036  -0.0000739
           13          14          15          16          17          18
    1  -0.0002517  -0.0000876   0.0001983  -0.0000366  -0.0001532   0.0003769
    2  -0.0001125  -0.0002214  -0.0002162   0.0001063   0.0000595  -0.0001297
    3  -0.0000028   0.0002736   0.0001532  -0.0005108   0.0001725  -0.0002781
 Gradient of SCF Energy
            1           2           3           4           5           6
    1  -0.0065389  -0.0001160   0.0029061   0.0022893  -0.0008416   0.0063592
    2  -0.0020820   0.0004286   0.0048572   0.0019707  -0.0031129  -0.0011384
    3  -0.0071531  -0.0076625  -0.0024580   0.0040860   0.0101402   0.0131934
            7           8           9          10          11          12
    1   0.0060446   0.0010364  -0.0006071  -0.0032201  -0.0033284  -0.0012358
    2  -0.0052216   0.0046431   0.0000566  -0.0048738  -0.0048238   0.0010422
    3  -0.0077539   0.0024346   0.0055527   0.0033608  -0.0035427  -0.0115214
           13          14          15          16          17          18
    1  -0.0080437   0.0182870  -0.0005220  -0.0155545   0.0051565  -0.0020707
    2   0.0054442   0.0058706   0.0032825  -0.0035684  -0.0023413  -0.0004334
    3  -0.0011264   0.0094253   0.0028149  -0.0087426   0.0001575  -0.0012050
 Max gradient component =       1.829E-02
 RMS gradient           =       5.936E-03
 Computing fast CPCM-SWIG gradient
 Updating gradient with PCM contributions...
 -- total gradient after adding PCM contribution --
---------------------------------------------------
  Atom         X              Y              Z     
---------------------------------------------------
   1      -0.000012       0.000038      -0.000011
   2       0.000009      -0.000003       0.000006
   3      -0.000021       0.000004      -0.000010
   4      -0.000028       0.000016       0.000011
   5      -0.000054      -0.000017      -0.000022
   6      -0.000094       0.000060       0.000069
   7       0.000050      -0.000043      -0.000011
   8      -0.000003      -0.000006      -0.000016
   9       0.000002      -0.000001      -0.000014
  10      -0.000010       0.000002       0.000007
  11      -0.000011       0.000005       0.000006
  12      -0.000021       0.000020      -0.000003
  13       0.000024       0.000012       0.000020
  14       0.000099       0.000180       0.000035
  15       0.000048      -0.000007      -0.000018
  16      -0.000057      -0.000139      -0.000057
  17       0.000105      -0.000029      -0.000112
  18      -0.000025      -0.000094       0.000120
---------------------------------------------------
 Number of fixed atoms: 0
 Gradient time:  CPU 255.90 s  wall 36.75 s
 Geometry Optimization Parameters
   NAtoms,    NIC,     NZ,  NCons,   NDum,   NFix, NCnnct, MaxDiis
       18     120       0       0       0       0       0       0

 Cartesian Hessian Update
 Hessian updated using Powell/Murtagh-Sargent update
  Mixing factors:     0.974111 Powell                      0.025889 Murtagh-Sargent


** GEOMETRY OPTIMIZATION IN DELOCALIZED INTERNAL COORDINATES **
   Searching for a Transition State

   Optimization Cycle:  36

                       Coordinates (Angstroms)
     ATOM                X               Y               Z
      1  C        -0.8310754451    0.1509603146    1.3093907329
      2  C        -1.4120055601   -0.8921755864    1.9896700104
      3  C        -1.9868045686   -1.9553395540    1.2855605997
      4  C        -1.9877030975   -1.9573239331   -0.1043068545
      5  C        -1.4043429108   -0.9135568858   -0.7970489634
      6  C        -0.7711669069    0.1424518608   -0.1043138726
      7  C        -0.3751189910    1.4135656787   -0.8159855675
      8  H        -0.3881055362    0.9807512944    1.8452198149
      9  H        -1.4298862379   -0.8906848464    3.0708686732
     10  H        -2.4430952802   -2.7726055246    1.8269513952
     11  H        -2.4495696300   -2.7714800783   -0.6450870285
     12  H        -1.4123477259   -0.9078898075   -1.8791718772
     13  H        -1.2390048778    2.0814073835   -0.8504992322
     14  O         0.1302499620    1.1991022628   -2.1268953221
     15  H         0.4078125748    1.9107336308   -0.2475801204
     16  H        -0.6096699429    1.0561144877   -2.7258527717
     17  O         1.1337396770   -0.7751381791   -0.2587517663
     18  H         1.1675632808   -0.5606097504   -1.2041027546
   Point Group: c1    Number of degrees of freedom:    48


   Energy is   -422.501324164

 Hessian updated using Powell/Murtagh-Sargent update
  Mixing factors:     0.999848 Powell                      0.000152 Murtagh-Sargent

 48 Hessian modes will be used to form the next step
  Hessian Eigenvalues:
    -0.338890    0.002859    0.003582    0.008194    0.021258    0.022747
     0.022912    0.023579    0.023857    0.023967    0.024245    0.025521
     0.033527    0.050182    0.058806    0.068821    0.089636    0.105343
     0.111429    0.146654    0.159624    0.159948    0.160118    0.160320
     0.160941    0.182482    0.219177    0.220249    0.227633    0.232641
     0.272620    0.311864    0.349576    0.351290    0.355924    0.357174
     0.359250    0.362339    0.364095    0.408711    0.418190    0.420628
     0.454202    0.466734    0.479351    0.503357    0.555709    0.581640

 Transition state search - taking P-RFO step
 Searching for Lamda that Maximizes Along the Lowest mode
 Value Taken    Lamda =   0.00000042
 Searching for Lamda that Minimizes Along All other modes
 Value Taken    Lamda =  -0.00000114
 Step Taken.  Stepsize is  0.012625

                             Maximum     Tolerance    Cnvgd?
         Gradient           0.000280      0.000300     YES
         Displacement       0.005284      0.001200      NO
         Energy change     -0.000000      0.000001     YES

 Final energy is   -422.501324163874     


 ******************************
 **  OPTIMIZATION CONVERGED  **
 ******************************

                       Coordinates (Angstroms)
     ATOM                X               Y               Z
      1  C        -0.8310754451    0.1509603146    1.3093907329
      2  C        -1.4120055601   -0.8921755864    1.9896700104
      3  C        -1.9868045686   -1.9553395540    1.2855605997
      4  C        -1.9877030975   -1.9573239331   -0.1043068545
      5  C        -1.4043429108   -0.9135568858   -0.7970489634
      6  C        -0.7711669069    0.1424518608   -0.1043138726
      7  C        -0.3751189910    1.4135656787   -0.8159855675
      8  H        -0.3881055362    0.9807512944    1.8452198149
      9  H        -1.4298862379   -0.8906848464    3.0708686732
     10  H        -2.4430952802   -2.7726055246    1.8269513952
     11  H        -2.4495696300   -2.7714800783   -0.6450870285
     12  H        -1.4123477259   -0.9078898075   -1.8791718772
     13  H        -1.2390048778    2.0814073835   -0.8504992322
     14  O         0.1302499620    1.1991022628   -2.1268953221
     15  H         0.4078125748    1.9107336308   -0.2475801204
     16  H        -0.6096699429    1.0561144877   -2.7258527717
     17  O         1.1337396770   -0.7751381791   -0.2587517663
     18  H         1.1675632808   -0.5606097504   -1.2041027546

Z-matrix Print:
$molecule
0 2
C 
C  1 1.412780
H  2 1.082167 1 119.321872
C  2 1.381901 1 120.528324 3 178.840120 0
H  4 1.081025 2 119.896786 1 -178.598357 0
C  4 1.389869 2 119.996332 1 1.775194 0
H  6 1.081309 4 119.955582 2 -179.974474 0
C  6 1.398743 4 120.313933 2 0.794855 0
H  8 1.081348 6 119.839412 4 179.003175 0
C  8 1.374188 6 120.099310 4 -0.711659 0
H  10 1.082538 8 120.651500 6 179.685806 0
C  1 1.509656 2 121.050031 3 13.456276 0
H  12 1.087770 1 109.106425 2 -158.194854 0
H  12 1.092475 1 108.793558 2 84.401590 0
O  12 1.421224 1 113.643951 2 -38.690938 0
H  15 0.962641 12 108.844761 1 79.167061 0
O  1 2.120022 2 92.490962 3 -84.385805 0
H  17 0.969977 1 90.378367 2 72.691540 0
$end

 
 --------------------------------------------------------------
 
                    Orbital Energies (a.u.)
 --------------------------------------------------------------
 
 Alpha MOs
 -- Occupied --
-19.3430 -19.3373 -10.3921 -10.3831 -10.3592 -10.3574 -10.3555 -10.3485
-10.3471  -1.1627  -1.0925  -0.9955  -0.8991  -0.8811  -0.8052  -0.7296
 -0.7108  -0.6440  -0.6204  -0.5843  -0.5709  -0.5585  -0.5373  -0.5327
 -0.5244  -0.5056  -0.4645  -0.4527  -0.4448  -0.4391  -0.4181  -0.3978
 -0.3561  -0.3195
 -- Virtual --
  0.0239   0.0347   0.0368   0.0459   0.0528   0.0553   0.0564   0.0616
  0.0750   0.0860   0.0880   0.1007   0.1082   0.1287   0.1346   0.1365
  0.1494   0.1547   0.1549   0.1573   0.1623   0.1626   0.1689   0.1716
  0.1782   0.1803   0.1921   0.2000   0.2076   0.2161   0.2179   0.2202
  0.2281   0.2411   0.2505   0.2575   0.2609   0.2622   0.2783   0.2818
  0.2922   0.2958   0.3046   0.3075   0.3287   0.3334   0.3389   0.3429
  0.3482   0.3494   0.3538   0.3588   0.3731   0.3867   0.3965   0.4070
  0.4204   0.4278   0.4417   0.4531   0.4734   0.4860   0.5210   0.5447
  0.5457   0.5743   0.5803   0.5901   0.5931   0.6074   0.6077   0.6135
  0.6231   0.6267   0.6486   0.6539   0.6635   0.6747   0.6832   0.6904
  0.7056   0.7085   0.7262   0.7294   0.7323   0.7357   0.7424   0.7525
  0.7709   0.7754   0.7780   0.7887   0.8022   0.8249   0.8275   0.8378
  0.8439   0.8579   0.8692   0.8786   0.8847   0.8979   0.9126   0.9295
  0.9451   0.9659   1.0086   1.0272   1.0350   1.0363   1.0635   1.0647
  1.0956   1.1041   1.1085   1.1184   1.1341   1.1576   1.1670   1.1793
  1.1855   1.1977   1.2143   1.2296   1.2472   1.2542   1.2672   1.2847
  1.3042   1.3236   1.3365   1.3498   1.3531   1.3807   1.3849   1.3973
  1.4007   1.4155   1.4300   1.4376   1.4482   1.4519   1.4606   1.4746
  1.4900   1.4985   1.5233   1.5439   1.5553   1.5597   1.5789   1.5856
  1.5968   1.6015   1.6458   1.6481   1.6912   1.7232   1.7549   1.7635
  1.7836   1.7956   1.8130   1.8279   1.8730   1.9136   1.9412   1.9704
  2.0085   2.0216   2.0529   2.0837   2.1085   2.1193   2.1311   2.1773
  2.2009   2.2695   2.3860   2.3921   2.4142   2.5596   2.5852   2.6044
  2.6357   2.6832   2.7003   2.7391   2.7547   2.7928   2.8037   2.8104
  2.8174   2.8265   2.8501   2.8556   2.8661   2.8746   2.8936   2.9007
  2.9182   2.9212   2.9293   2.9542   2.9689   2.9828   2.9915   3.0080
  3.0129   3.0323   3.0958   3.1375   3.1625   3.1662   3.1827   3.1956
  3.2090   3.2217   3.2426   3.2439   3.2478   3.2677   3.2765   3.2899
  3.3058   3.3381   3.3521   3.3723   3.3744   3.3932   3.4203   3.4304
  3.4484   3.4688   3.4739   3.4910   3.4940   3.5083   3.5126   3.5458
  3.5575   3.5891   3.6028   3.6158   3.6403   3.6541   3.6740   3.7042
  3.7335   3.7470   3.7836   3.7949   3.8055   3.8116   3.8267   3.8313
  3.8416   3.8720   3.8932   3.8993   3.9134   3.9206   3.9467   3.9600
  3.9683   3.9976   4.0222   4.0546   4.0693   4.0905   4.1180   4.1322
  4.1546   4.1727   4.1914   4.2068   4.2308   4.2689   4.2810   4.2954
  4.3322   4.3500   4.3690   4.3890   4.4073   4.4375   4.4660   4.4742
  4.4966   4.5079   4.5283   4.5344   4.5492   4.5715   4.5798   4.5963
  4.6056   4.6426   4.6981   4.7497   4.7720   4.7969   4.8227   4.8656
  4.9589   5.0390   5.1063   5.1481   5.1591   5.1663   5.1998   5.2105
  5.2292   5.2684   5.2727   5.2917   5.3099   5.3261   5.3350   5.3707
  5.4040   5.4496   5.4739   5.5274   5.5340   5.5902   5.6679   5.6849
  5.7018   5.7321   5.7583   5.7994   5.8538   5.8777   5.9024   5.9657
  6.0747   6.2575   6.5976   6.6457   7.0306   7.0607   7.1016   7.1435
  7.1937   7.2999   7.3178   7.3269   7.4393   7.5850   7.6684   7.7992
 24.2038  24.7525  24.7979  24.8155  24.9852  25.0707  25.4936  50.5370
 50.6052
 
 Beta MOs
 -- Occupied --
-19.3430 -19.3199 -10.3919 -10.3828 -10.3561 -10.3544 -10.3529 -10.3497
-10.3486  -1.1625  -1.0531  -0.9902  -0.8954  -0.8786  -0.8021  -0.7271
 -0.7087  -0.6426  -0.6183  -0.5822  -0.5684  -0.5462  -0.5315  -0.5273
 -0.5221  -0.4845  -0.4619  -0.4497  -0.4406  -0.4012  -0.3943  -0.3586
 -0.3467
 -- Virtual --
 -0.0610   0.0240   0.0350   0.0370   0.0505   0.0534   0.0555   0.0650
  0.0701   0.0793   0.0860   0.0886   0.1008   0.1088   0.1296   0.1350
  0.1370   0.1495   0.1549   0.1556   0.1583   0.1626   0.1634   0.1692
  0.1740   0.1789   0.1811   0.1922   0.2008   0.2077   0.2163   0.2179
  0.2202   0.2288   0.2417   0.2517   0.2587   0.2613   0.2641   0.2796
  0.2834   0.2930   0.2960   0.3056   0.3081   0.3325   0.3345   0.3394
  0.3439   0.3488   0.3502   0.3556   0.3603   0.3746   0.3869   0.3975
  0.4081   0.4216   0.4291   0.4433   0.4545   0.4758   0.4874   0.5224
  0.5459   0.5471   0.5757   0.5818   0.5924   0.5952   0.6086   0.6108
  0.6155   0.6249   0.6285   0.6508   0.6566   0.6660   0.6776   0.6846
  0.6924   0.7077   0.7114   0.7278   0.7308   0.7337   0.7365   0.7430
  0.7544   0.7711   0.7776   0.7798   0.7897   0.8059   0.8268   0.8316
  0.8369   0.8467   0.8608   0.8730   0.8802   0.8868   0.8998   0.9142
  0.9305   0.9480   0.9670   1.0096   1.0303   1.0368   1.0390   1.0648
  1.0684   1.0965   1.1057   1.1115   1.1202   1.1346   1.1601   1.1702
  1.1807   1.1879   1.2003   1.2151   1.2304   1.2499   1.2599   1.2682
  1.2857   1.3064   1.3274   1.3428   1.3521   1.3576   1.3862   1.3872
  1.4010   1.4077   1.4201   1.4328   1.4400   1.4517   1.4535   1.4638
  1.4766   1.4927   1.5002   1.5260   1.5476   1.5593   1.5615   1.5817
  1.5877   1.5999   1.6040   1.6470   1.6517   1.6932   1.7251   1.7573
  1.7662   1.7909   1.8041   1.8145   1.8405   1.8805   1.9190   1.9531
  1.9798   2.0110   2.0311   2.0584   2.0874   2.1161   2.1247   2.1351
  2.1827   2.2070   2.2714   2.3891   2.3945   2.4169   2.5623   2.5910
  2.6064   2.6380   2.6869   2.7063   2.7426   2.7621   2.7990   2.8078
  2.8139   2.8241   2.8298   2.8558   2.8621   2.8715   2.8790   2.8975
  2.9044   2.9250   2.9280   2.9332   2.9616   2.9736   2.9890   2.9963
  3.0133   3.0206   3.0404   3.0989   3.1385   3.1667   3.1710   3.1871
  3.1968   3.2128   3.2254   3.2443   3.2496   3.2528   3.2701   3.2804
  3.2932   3.3090   3.3422   3.3573   3.3759   3.3807   3.3973   3.4246
  3.4336   3.4537   3.4750   3.4783   3.4942   3.4977   3.5124   3.5168
  3.5517   3.5610   3.5936   3.6094   3.6198   3.6472   3.6582   3.6772
  3.7074   3.7376   3.7501   3.7884   3.8000   3.8071   3.8152   3.8322
  3.8340   3.8457   3.8772   3.8972   3.9029   3.9176   3.9251   3.9525
  3.9642   3.9738   4.0012   4.0250   4.0591   4.0718   4.0955   4.1208
  4.1368   4.1572   4.1776   4.1935   4.2100   4.2334   4.2719   4.2852
  4.2993   4.3371   4.3535   4.3729   4.3924   4.4095   4.4392   4.4713
  4.4768   4.5035   4.5148   4.5344   4.5410   4.5554   4.5757   4.5859
  4.6011   4.6113   4.6470   4.7019   4.7540   4.7775   4.8022   4.8294
  4.8686   4.9666   5.0464   5.1175   5.1671   5.1746   5.1797   5.2164
  5.2495   5.2564   5.2861   5.2996   5.3096   5.3283   5.3342   5.3435
  5.3927   5.4204   5.4713   5.5094   5.5379   5.5400   5.5929   5.6834
  5.6981   5.7132   5.7405   5.7692   5.8051   5.8660   5.8839   5.9072
  5.9676   6.0755   6.2631   6.6023   6.6460   7.0653   7.1131   7.1392
  7.1988   7.2495   7.3186   7.3215   7.3368   7.4591   7.6225   7.6795
  7.7999  24.2047  24.7531  24.7989  24.8160  24.9868  25.0717  25.4950
 50.5487  50.6059
 --------------------------------------------------------------
 
          Ground-State Mulliken Net Atomic Charges

     Atom                 Charge (a.u.)    Spin (a.u.)
  --------------------------------------------------------
      1 C                     0.023332       0.167083
      2 C                    -0.496276      -0.071341
      3 C                    -0.242434       0.200861
      4 C                    -0.485163      -0.085594
      5 C                    -0.548849       0.216228
      6 C                     0.496988      -0.028009
      7 C                    -0.361477       0.003649
      8 H                     0.293216      -0.004898
      9 H                     0.283654       0.002462
     10 H                     0.285022      -0.003683
     11 H                     0.287573       0.002627
     12 H                     0.288901      -0.004975
     13 H                     0.199121      -0.002259
     14 O                    -0.422600       0.002022
     15 H                     0.248179       0.000894
     16 H                     0.340591      -0.000123
     17 O                    -0.510643       0.613737
     18 H                     0.320867      -0.008681
  --------------------------------------------------------
  Sum of atomic charges =     0.000000
  Sum of spin   charges =     1.000000

 -----------------------------------------------------------------
                    Cartesian Multipole Moments
 -----------------------------------------------------------------
    Charge (ESU x 10^10)
                 0.0000
    Dipole Moment (Debye)
         X      -5.4699      Y       1.2537      Z      -0.7033
       Tot       5.6557
    Quadrupole Moments (Debye-Ang)
        XX     -54.7437     XY       4.2629     YY     -51.0831
        XZ       3.0980     YZ       0.9007     ZZ     -43.8563
    Octopole Moments (Debye-Ang^2)
       XXX     130.9001    XXY      12.7065    XYY      22.5391
       YYY      55.2317    XXZ      -5.5940    XYZ      11.0409
       YYZ       5.0812    XZZ      23.0896    YZZ      11.8191
       ZZZ      -4.9166
    Hexadecapole Moments (Debye-Ang^3)
      XXXX    -634.0219   XXXY    -141.7974   XXYY    -161.0839
      XYYY    -121.2294   YYYY    -567.1447   XXXZ      97.3512
      XXYZ      29.5447   XYYZ      30.5674   YYYZ     118.3736
      XXZZ    -180.5713   XYZZ     -51.9408   YYZZ    -190.0651
      XZZZ     110.3268   YZZZ     109.4802   ZZZZ    -496.8824
 -----------------------------------------------------------------
 Total job time:  10722.61s(wall), 83629.21s(cpu) 
 Wed Dec 28 08:21:16 2022

        *************************************************************
        *                                                           *
        *  Thank you very much for using Q-Chem.  Have a nice day.  *
        *                                                           *
        *************************************************************


