
Running Job 1 of 2 Q_in.in
qchem Q_in.in_308930.0 /scratch/ari.fischer/qChem2234330.hpc-mn1/qchem308930/ 0
/usr/local/qchem-5.4.1/exe/qcprog.exe_s Q_in.in_308930.0 /scratch/ari.fischer/qChem2234330.hpc-mn1/qchem308930/
                  Welcome to Q-Chem
     A Quantum Leap Into The Future Of Chemistry


 Q-Chem 5.4, Q-Chem, Inc., Pleasanton, CA (2021)

 License issued to: Nanyang Technological University (site)

 E. Epifanovsky,  A. T. B. Gilbert,  Xintian Feng,  Joonho Lee,  Yuezhi Mao,  
 N. Mardirossian,  P. Pokhilko,  A. White,  M. Wormit,  M. P. Coons,  
 A. L. Dempwolff,  Zhengting Gan,  D. Hait,  P. R. Horn,  L. D. Jacobson,  
 I. Kaliman,  J. Kussmann,  A. W. Lange,  Ka Un Lao,  D. S. Levine,  Jie Liu,  
 S. C. McKenzie,  A. F. Morrison,  K. Nanda,  F. Plasser,  D. R. Rehn,  
 M. L. Vidal,  Zhi-Qiang You,  Ying Zhu,  B. Alam,  B. Albrecht,  
 A. Aldossary,  E. Alguire,  J. H. Andersen,  D. Barton,  K. Begam,  A. Behn,  
 Y. A. Bernard,  E. J. Berquist,  H. Burton,  A. Carreras,  K. Carter-Fenk,  
 R. Chakraborty,  A. D. Chien,  K. D. Closser,  V. Cofer-Shabica,  
 S. Dasgupta,  Jia Deng,  M. de Wergifosse,  M. Diedenhofen,  Hainam Do,  
 S. Ehlert,  Po-Tung Fang,  S. Fatehi,  Qingguo Feng,  T. Friedhoff,  
 J. Gayvert,  Qinghui Ge,  G. Gidofalvi,  M. Goldey,  J. Gomes,  
 C. Gonzalez-Espinoza,  S. Gulania,  A. Gunina,  M. W. D. Hanson-Heine,  
 P. H. P. Harbach,  A. W. Hauser,  M. F. Herbst,  M. Hernandez Vera,  
 M. Hodecker,  Z. C. Holden,  S. Houck,  Xunkun Huang,  Kerwin Hui,  
 B. C. Huynh,  M. Ivanov,  Hyunjun Ji,  Hanjie Jiang,  B. Kaduk,  S. Kaehler,  
 K. Khistyaev,  Jaehoon Kim,  P. Klunzinger,  Z. Koczor-Benda,  
 Joong Hoon Koh,  D. Kosenkov,  L. Koulias,  T. Kowalczyk,  C. M. Krauter,  
 K. Kue,  A. Kunitsa,  T. Kus,  A. Landau,  K. V. Lawler,  D. Lefrancois,  
 S. Lehtola,  Rain Li,  Yi-Pei Li,  Jiashu Liang,  M. Liebenthal,  
 Hung-Hsuan Lin,  You-Sheng Lin,  Fenglai Liu,  Kuan-Yu Liu,  
 M. Loipersberger,  A. Luenser,  A. Manjanath,  P. Manohar,  E. Mansoor,  
 S. F. Manzer,  Shan-Ping Mao,  A. V. Marenich,  T. Markovich,  S. Mason,  
 S. A. Maurer,  P. F. McLaughlin,  M. F. S. J. Menger,  J.-M. Mewes,  
 S. A. Mewes,  P. Morgante,  J. W. Mullinax,  K. J. Oosterbaan,  G. Paran,  
 Alexander C. Paul,  Suranjan K. Paul,  F. Pavosevic,  Zheng Pei,  S. Prager,  
 E. I. Proynov,  E. Ramos,  B. Rana,  A. E. Rask,  A. Rettig,  R. M. Richard,  
 F. Rob,  E. Rossomme,  T. Scheele,  M. Scheurer,  M. Schneider,  
 N. Sergueev,  S. M. Sharada,  W. Skomorowski,  D. W. Small,  C. J. Stein,  
 Yu-Chuan Su,  E. J. Sundstrom,  Zhen Tao,  J. Thirman,  T. Tsuchimochi,  
 N. M. Tubman,  S. P. Veccham,  O. Vydrov,  J. Wenzel,  J. Witte,  A. Yamada,  
 Kun Yao,  S. Yeganeh,  S. R. Yost,  A. Zech,  Igor Ying Zhang,  Xing Zhang,  
 Yu Zhang,  D. Zuev,  A. Aspuru-Guzik,  A. T. Bell,  N. A. Besley,  
 K. B. Bravaya,  B. R. Brooks,  D. Casanova,  Jeng-Da Chai,  S. Coriani,  
 C. J. Cramer,  A. E. DePrince, III,  R. A. DiStasio Jr.,  A. Dreuw,  
 B. D. Dunietz,  T. R. Furlani,  W. A. Goddard III,  S. Grimme,  
 S. Hammes-Schiffer,  T. Head-Gordon,  W. J. Hehre,  Chao-Ping Hsu,  
 T.-C. Jagau,  Yousung Jung,  A. Klamt,  Jing Kong,  D. S. Lambrecht,  
 WanZhen Liang,  N. J. Mayhall,  C. W. McCurdy,  J. B. Neaton,  
 C. Ochsenfeld,  J. A. Parkhill,  R. Peverati,  V. A. Rassolov,  Yihan Shao,  
 L. V. Slipchenko,  T. Stauch,  R. P. Steele,  J. E. Subotnik,  
 A. J. W. Thom,  A. Tkatchenko,  D. G. Truhlar,  T. Van Voorhis,  
 T. A. Wesolowski,  K. B. Whaley,  H. L. Woodcock III,  P. M. Zimmerman,  
 S. Faraji,  P. M. W. Gill,  M. Head-Gordon,  J. M. Herbert,  A. I. Krylov

 Additional authors for Version 5.4.1: 
 S. Kotaru,  Shaozhi Li,  Xiangyuan Li,  F. Matz,  A. Molle,  Haisheng Ren,  
 Yingli Su,  Hung-Yi Tsai,  C. Utku,  Fang Wang

 Contributors to earlier versions of Q-Chem not listed above: 
 R. D. Adamson,  B. Austin,  R. Baer,  J. Baker,  G. J. O. Beran,  
 K. Brandhorst,  S. T. Brown,  E. F. C. Byrd,  A. K. Chakraborty,  
 G. K. L. Chan,  Chun-Min Chang,  Yunqing Chen,  C.-L. Cheng,  
 Siu Hung Chien,  D. M. Chipman,  D. L. Crittenden,  H. Dachsel,  
 R. J. Doerksen,  A. D. Dutoi,  R. G. Edgar,  J. Fosso-Tande,  
 L. Fusti-Molnar,  D. Ghosh,  A. Ghysels,  A. Golubeva-Zadorozhnaya,  
 J. Gonthier,  M. S. Gordon,  S. R. Gwaltney,  G. Hawkins,  J. E. Herr,  
 A. Heyden,  S. Hirata,  E. G. Hohenstein,  G. Kedziora,  F. J. Keil,  
 C. Kelley,  Jihan Kim,  R. A. King,  R. Z. Khaliullin,  P. P. Korambath,  
 W. Kurlancheek,  A. Laurent,  A. M. Lee,  M. S. Lee,  S. V. Levchenko,  
 Ching Yeh Lin,  D. Liotard,  E. Livshits,  R. C. Lochan,  I. Lotan,  
 L. A. Martinez-Martinez,  P. E. Maslen,  N. Nair,  D. P. O'Neill,  
 D. Neuhauser,  E. Neuscamman,  C. M. Oana,  R. Olivares-Amaya,  R. Olson,  
 T. M. Perrine,  B. Peters,  P. A. Pieniazek,  A. Prociuk,  Y. M. Rhee,  
 J. Ritchie,  M. A. Rohrdanz,  E. Rosta,  N. J. Russ,  H. F. Schaefer III,  
 M. W. Schmidt,  N. E. Schultz,  S. Sharma,  N. Shenvi,  C. D. Sherrill,  
 A. C. Simmonett,  A. Sodt,  T. Stein,  D. Stuck,  K. S. Thanthiriwatte,  
 V. Vanovschi,  L. Vogt,  Tao Wang,  A. Warshel,  M. A. Watson,  
 C. F. Williams,  Q. Wu,  X. Xu,  Jun Yang,  W. Zhang,  Yan Zhao

 Please cite Q-Chem as follows:
 Y. Shao et al., Mol. Phys. 113, 184-215 (2015)
 DOI: 10.1080/00268976.2014.952696

 Q-Chem 5.4.1 for Intel X86 EM64T Linux

 Parts of Q-Chem use Armadillo 9.800.1 (Horizon Scraper).
 http://arma.sourceforge.net/

 Q-Chem begins on Fri Jul 12 09:30:45 2024  

 Host: 
0

     Scratch files written to /scratch/ari.fischer/qChem2234330.hpc-mn1/qchem308930//
 Aug1521 |scratch|qcdevops|jenkins|workspace|build_RNUM 8249   
 Processing $rem in /usr/local/qchem-5.4.1/config/preferences:
 Processing $rem in /home/ari.fischer/.qchemrc:
 Now reading second FSM geometry
 Symmetry turned off for PCM/SM12/SMD calculation

 Checking the input file for inconsistencies... 	...done.

--------------------------------------------------------------
User input:
--------------------------------------------------------------
$molecule
0 2
H    0.4362129    0.4358851    1.4069634
C   -0.1686535    0.7625273    0.5729390
C   -1.3997407    1.2413227    0.7413752
H   -1.8236581    1.3218287    1.7335492
C   -2.2165509    1.6745575   -0.3965827
H   -3.2554324    1.9167128   -0.2167070
C   -1.6911527    1.7929369   -1.6137674
H   -2.2816222    2.1395623   -2.4521019
C   -0.2377744    1.5112266   -1.8632899
H   -0.1132564    1.0079937   -2.8245287
C    0.4001292    0.6243236   -0.7995155
H    1.4783781    0.7695501   -0.8166569
O    0.5203286    2.7276004   -1.8595646
H    0.1012681    3.3405139   -2.4745570
O    0.9110762   -1.1469661   -2.1853609
O    0.1787160   -0.7886078   -1.1710027
****
H    0.5874130    1.4909392    1.4964192
C   -0.1438913    1.2813729    0.7299697
C   -1.4428310    1.5481838    0.8102850
H   -1.9413301    2.0191171    1.6450151
C   -2.2010368    1.0748908   -0.3996915
H   -3.2797895    1.1521048   -0.3146593
C   -1.6276114    1.7217012   -1.6082584
H   -2.2116632    2.2784856   -2.3240531
C   -0.1676529    1.4719633   -1.7528198
H    0.0498761    0.9159026   -2.6697116
C    0.2219175    0.5999172   -0.5536456
H    1.2536412    0.2648677   -0.6070367
O    0.6307941    2.6601101   -1.7121786
H    0.3708573    3.2175090   -2.4540498
O   -1.9663291   -0.3702967   -0.5071115
O   -0.5463296   -0.6241342   -0.6830018
$end

$rem
BASIS = 6-311++G(2df,2p)
GUI = 2
JOB_TYPE = FSM
FSM_MODE = 2
METHOD = wB97M-v
MAX_SCF_CYCLES = 120
FSM_NGRAD = 6
FSM_NNODE = 20
SCF_CONVERGENCE = 7
THRESH = 12
SCF_ALGORITHM = DIIS_GDM
solvent_method = SMD
$end

--------------------------------------------------------------
 ----------------------------------------------------------------
             Standard Nuclear Orientation (Angstroms)
    I     Atom           X                Y                Z
 ----------------------------------------------------------------
    1      H       0.4362129000     0.4358851000     1.4069634000
    2      C      -0.1686535000     0.7625273000     0.5729390000
    3      C      -1.3997407000     1.2413227000     0.7413752000
    4      H      -1.8236581000     1.3218287000     1.7335492000
    5      C      -2.2165509000     1.6745575000    -0.3965827000
    6      H      -3.2554324000     1.9167128000    -0.2167070000
    7      C      -1.6911527000     1.7929369000    -1.6137674000
    8      H      -2.2816222000     2.1395623000    -2.4521019000
    9      C      -0.2377744000     1.5112266000    -1.8632899000
   10      H      -0.1132564000     1.0079937000    -2.8245287000
   11      C       0.4001292000     0.6243236000    -0.7995155000
   12      H       1.4783781000     0.7695501000    -0.8166569000
   13      O       0.5203286000     2.7276004000    -1.8595646000
   14      H       0.1012681000     3.3405139000    -2.4745570000
   15      O       0.9110762000    -1.1469661000    -2.1853609000
   16      O       0.1787160000    -0.7886078000    -1.1710027000
 ----------------------------------------------------------------
 Nuclear Repulsion Energy =         448.43739510 hartrees
 There are       34 alpha and       33 beta electrons
 Requested basis set is 6-311++G(2df,2p)
 There are 114 shells and 376 basis functions

 Total QAlloc Memory Limit 288000 MB
 Mega-Array Size       188 MB
 MEM_STATIC part       192 MB
 beginning FSman 

*******************************************
*******************************************
******** Starting FSM Calculation *********
*******************************************
*******************************************
-FSM parameters:
 Maximum displacement of each coordinate during optimization (Angstrom)      0.05
 Maximum optimization steps for each new node                                6
 The scaling factor for optimization (hartrees/Angstrom^2)                   1.75
 The number of LST interpolations used for reparameterization                100
-Aligning product structure to maximum coincidence with the reactant structure
 Total R --> P Distance 3.483782
 New node interpolation distace (Angstroms): 0.17
-Performing force calculation on reactant structure in state:0
 ----------------------------------------------------------------
             Standard Nuclear Orientation (Angstroms)
    I     Atom           X                Y                Z
 ----------------------------------------------------------------
    1      H       0.4362129000     0.4358851000     1.4069634000
    2      C      -0.1686535000     0.7625273000     0.5729390000
    3      C      -1.3997407000     1.2413227000     0.7413752000
    4      H      -1.8236581000     1.3218287000     1.7335492000
    5      C      -2.2165509000     1.6745575000    -0.3965827000
    6      H      -3.2554324000     1.9167128000    -0.2167070000
    7      C      -1.6911527000     1.7929369000    -1.6137674000
    8      H      -2.2816222000     2.1395623000    -2.4521019000
    9      C      -0.2377744000     1.5112266000    -1.8632899000
   10      H      -0.1132564000     1.0079937000    -2.8245287000
   11      C       0.4001292000     0.6243236000    -0.7995155000
   12      H       1.4783781000     0.7695501000    -0.8166569000
   13      O       0.5203286000     2.7276004000    -1.8595646000
   14      H       0.1012681000     3.3405139000    -2.4745570000
   15      O       0.9110762000    -1.1469661000    -2.1853609000
   16      O       0.1787160000    -0.7886078000    -1.1710027000
 ----------------------------------------------------------------
 Nuclear Repulsion Energy =         448.43739510 hartrees
 There are       34 alpha and       33 beta electrons
 
 Citation of the SMD model:
 Marenich, A.V.; Cramer, C.J.; Truhlar, D.G.
 J. Phys. Chem. B 2009, 113, 6378-6396.
 iSolventCode=           1
 Solvent: water                                                           
 
 vradii
            1           2           3           4           5           6
    1   1.2000000   1.8500000   1.8500000   1.2000000   1.8500000   1.2000000
            7           8           9          10          11          12
    1   1.8500000   1.2000000   1.8500000   1.2000000   1.8500000   1.2000000
           13          14          15          16
    1   1.5200000   1.2000000   1.5200000   1.5200000
 Changing PCM_VDW_RADII to SMD_RADIUS
 Discretize the solute cavity surface with Lebedev spheres
	Using 110 Lebedev grid points for each H atom
	Using 194 Lebedev grid points for other atoms
	Atomic van der Waals radii will be scaled by 1.20
 Remove points where switching function is < 1.0e-08
 Keep 1228 surface tesserae and discard 1288 interior tesserae
 Molecular Surface Area = 145.161 Angst**2
 Requested basis set is 6-311++G(2df,2p)
 There are 114 shells and 376 basis functions
 A cutoff of  1.0D-12 yielded   6043 shell pairs
 There are     66382 function pairs (     83229 Cartesian)
 Smallest overlap matrix eigenvalue = 2.27E-06

 Scale SEOQF with 1.000000e-01/1.000000e-01/1.000000e-01

 Standard Electronic Orientation quadrupole field applied
 Nucleus-field energy     =    -0.0000000011 hartrees
 Guess from superposition of atomic densities
 Warning:  Energy on first SCF cycle will be non-variational
 SAD guess density has 67.000000 electrons

 -----------------------------------------------------------------------
  General SCF calculation program by
  Eric Jon Sundstrom, Paul Horn, Yuezhi Mao, Dmitri Zuev, Alec White,
  David Stuck, Shaama M.S., Shane Yost, Joonho Lee, David Small,
  Daniel Levine, Susi Lehtola, Hugh Burton, Evgeny Epifanovsky,
  Bang C. Huynh
 -----------------------------------------------------------------------
 Exchange:     0.1500 Hartree-Fock + 1.0000 wB97M-V + LR-HF
 Correlation:  1.0000 wB97M-V
 Using SG-2 standard quadrature grid
 Nonlocal Correlation:  VV10 with C = 0.0100 and b = 6.00 and scale = 1.00000
 Grid used for NLC:  SG-1 standard quadrature
 
 Citation of the SMD model:
 Marenich, A.V.; Cramer, C.J.; Truhlar, D.G.
 J. Phys. Chem. B 2009, 113, 6378-6396.
 iSolventCode=           1
 Solvent: water                                                           
 
 vradii
            1           2           3           4           5           6
    1   1.2000000   1.8500000   1.8500000   1.2000000   1.8500000   1.2000000
            7           8           9          10          11          12
    1   1.8500000   1.2000000   1.8500000   1.2000000   1.8500000   1.2000000
           13          14          15          16
    1   1.5200000   1.2000000   1.5200000   1.5200000
 using 32 threads for integral computing
 -------------------------------------------------------
 OpenMP Integral computing Module                
 Release: version 1.0, May 2013, Q-Chem Inc. Pittsburgh 
 -------------------------------------------------------
 -------------------------------------------------------
 OpenMP BLAS3 based DFT computing Module                
 Release: version 1.0, May 2013, Q-Chem Inc. Pittsburgh 
 -------------------------------------------------------
 A unrestricted SCF calculation will be
 performed using DIIS, GDM
 SCF converges when RMS gradient is below 1.0e-07
 ---------------------------------------
  Cycle       Energy         DIIS error
 ---------------------------------------
    1    -460.6880680993      1.29e-02  
    2    -458.2438559641      1.33e-03  Done DIIS. Switching to GDM
 ---------------------------------------
  Cycle       Energy        RMS Gradient
 ---------------------------------------
    1    -458.2438559641      1.10e-01   Descent step
    2    -458.3362202343      2.07e-02   Normal BFGS step
    3    -458.3502880114      3.29e-02   Normal BFGS step
    4    -458.3538970933      5.31e-03   Normal BFGS step
    5    -458.3546473061      5.85e-03   Normal BFGS step
    6    -458.3548541932      3.72e-03   Normal BFGS step
    7    -458.3549217095      1.92e-03   Normal BFGS step
    8    -458.3549385703      4.41e-04   Normal BFGS step
    9    -458.3549408509      2.75e-04   Normal BFGS step
   10    -458.3549412268      8.86e-05   Normal BFGS step
   11    -458.3549412878      3.65e-05   Normal BFGS step
   12    -458.3549412977      2.85e-05   Normal BFGS step
   13    -458.3549413034      1.97e-05   Normal BFGS step
   14    -458.3549413061      1.16e-05   Normal BFGS step
   15    -458.3549413071      4.61e-06   Normal BFGS step
   16    -458.3549413074      1.85e-06   Normal BFGS step
   17    -458.3549413074      5.89e-07   Normal BFGS step
   18    -458.3549413074      2.39e-07   Normal BFGS step
   19    -458.3549413075      9.08e-08  Convergence criterion met
 ---------------------------------------
 SCF time:   CPU 2370.80s  wall 90.00s 
<S^2> =          0.754047890
(3)  G-ENP(liq) elect-nuc-pol free energy of system     -458.354941307 a.u.
(4)  G-CDS(liq) cavity-dispersion-solvent structure 
     free energy                                                2.5591 kcal/mol
(6)  G-S(liq) free energy of system                     -458.350863179 a.u.
 SCF   energy in the final basis set =     -458.3508631791
 Total energy in the final basis set =     -458.3508631791
 
 --------------------------------------------------------------
 
                    Orbital Energies (a.u.)
 --------------------------------------------------------------
 
 Alpha MOs
 -- Occupied --
-19.4642 -19.4167 -19.3450 -10.4118 -10.4062 -10.3557 -10.3505 -10.3491
-10.3471  -1.3436  -1.1648  -1.0281  -0.9571  -0.8761  -0.8606  -0.7476
 -0.7310  -0.6684  -0.6499  -0.6256  -0.6186  -0.5935  -0.5726  -0.5534
 -0.5323  -0.5196  -0.4981  -0.4635  -0.4366  -0.4316  -0.4065  -0.3972
 -0.3884  -0.3335
 -- Virtual --
  0.0168   0.0268   0.0369   0.0406   0.0546   0.0577   0.0599   0.0822
  0.0987   0.1078   0.1131   0.1205   0.1322   0.1372   0.1451   0.1520
  0.1547   0.1566   0.1612   0.1638   0.1652   0.1722   0.1764   0.1843
  0.1890   0.1960   0.2018   0.2099   0.2123   0.2235   0.2291   0.2400
  0.2471   0.2511   0.2628   0.2766   0.2842   0.2866   0.2963   0.3068
  0.3143   0.3254   0.3350   0.3361   0.3528   0.3564   0.3659   0.3707
  0.3828   0.3886   0.3928   0.3974   0.4052   0.4122   0.4255   0.4311
  0.4415   0.4568   0.4757   0.5187   0.5331   0.5376   0.5650   0.5805
  0.5927   0.5963   0.6117   0.6242   0.6328   0.6380   0.6441   0.6513
  0.6815   0.6874   0.6988   0.7093   0.7182   0.7222   0.7401   0.7452
  0.7507   0.7741   0.7816   0.7958   0.8070   0.8134   0.8175   0.8344
  0.8443   0.8501   0.8753   0.8911   0.8986   0.9060   0.9373   0.9578
  0.9915   1.0210   1.0456   1.0691   1.0869   1.0963   1.1087   1.1290
  1.1370   1.1586   1.1714   1.1779   1.1923   1.1966   1.2170   1.2252
  1.2287   1.2426   1.2507   1.2586   1.2722   1.2817   1.3087   1.3279
  1.3347   1.3507   1.3592   1.3798   1.3822   1.3932   1.4155   1.4286
  1.4382   1.4530   1.4539   1.4640   1.4912   1.5169   1.5292   1.5470
  1.5515   1.5647   1.5690   1.5957   1.6109   1.6240   1.6429   1.6528
  1.6770   1.6838   1.7116   1.7435   1.7758   1.7910   1.8077   1.8255
  1.8576   1.9024   1.9325   1.9747   2.0040   2.0136   2.0487   2.0661
  2.1492   2.1717   2.2418   2.2455   2.2933   2.3194   2.3566   2.3959
  2.4276   2.5669   2.6000   2.6455   2.6675   2.6691   2.7219   2.7307
  2.7621   2.7978   2.8173   2.8295   2.8417   2.8528   2.8689   2.8721
  2.8874   2.9110   2.9395   2.9562   2.9652   2.9751   2.9799   2.9818
  3.0154   3.0476   3.0717   3.0945   3.1219   3.1644   3.1797   3.2200
  3.2344   3.2537   3.2569   3.2841   3.3089   3.3273   3.3452   3.3756
  3.3878   3.4016   3.4256   3.4387   3.4446   3.4682   3.4874   3.4989
  3.5171   3.5250   3.5378   3.5657   3.5876   3.6076   3.6492   3.6754
  3.7130   3.7315   3.7374   3.7481   3.7697   3.7806   3.7930   3.8168
  3.8455   3.8615   3.8770   3.8889   3.8998   3.9218   3.9292   3.9483
  3.9667   3.9897   4.0251   4.0583   4.0784   4.0919   4.1350   4.1810
  4.1913   4.2057   4.2195   4.2469   4.2874   4.2944   4.3336   4.3438
  4.3709   4.3814   4.4053   4.4214   4.4541   4.4952   4.5262   4.5642
  4.5732   4.5898   4.6232   4.6478   4.6658   4.7221   4.7255   4.7499
  4.7653   4.7841   4.8434   4.8976   4.9244   4.9589   5.0115   5.0264
  5.0430   5.0601   5.0947   5.0970   5.1076   5.1700   5.1909   5.2443
  5.2494   5.2725   5.2942   5.3325   5.3672   5.3755   5.3902   5.4479
  5.4648   5.5075   5.5238   5.5900   5.6306   5.6706   5.6758   5.7050
  5.7233   5.7939   5.8086   5.9216   5.9396   6.0119   6.1105   6.2779
  6.4286   6.4821   6.6032   6.6226   6.8309   6.8916   6.9731   7.0972
  7.1134   7.2190   7.2693   7.3252   7.3360   7.3886   7.4107   7.4526
  7.6770   7.8009   7.8323   8.0262   8.1035  24.2758  24.5561  24.7092
 24.7804  25.1380  25.3540  50.4332  50.5363  50.6185
 
 Beta MOs
 -- Occupied --
-19.4537 -19.3982 -19.3450 -10.4122 -10.4059 -10.3557 -10.3505 -10.3490
-10.3471  -1.3171  -1.1646  -1.0071  -0.9461  -0.8752  -0.8524  -0.7427
 -0.7302  -0.6598  -0.6420  -0.6088  -0.5946  -0.5873  -0.5612  -0.5407
 -0.5290  -0.4975  -0.4962  -0.4617  -0.4334  -0.4220  -0.3948  -0.3867
 -0.3332
 -- Virtual --
 -0.0319   0.0177   0.0269   0.0372   0.0406   0.0549   0.0582   0.0601
  0.0826   0.0995   0.1086   0.1137   0.1213   0.1328   0.1376   0.1461
  0.1521   0.1550   0.1573   0.1615   0.1644   0.1659   0.1727   0.1766
  0.1854   0.1906   0.1964   0.2028   0.2105   0.2131   0.2249   0.2300
  0.2405   0.2479   0.2530   0.2685   0.2830   0.2856   0.2881   0.2994
  0.3074   0.3160   0.3257   0.3363   0.3380   0.3556   0.3585   0.3671
  0.3717   0.3834   0.3900   0.3947   0.3980   0.4059   0.4129   0.4260
  0.4338   0.4419   0.4575   0.4772   0.5190   0.5333   0.5379   0.5661
  0.5806   0.5928   0.5967   0.6121   0.6245   0.6331   0.6383   0.6444
  0.6518   0.6818   0.6877   0.6988   0.7098   0.7186   0.7233   0.7401
  0.7453   0.7507   0.7749   0.7819   0.7961   0.8078   0.8138   0.8178
  0.8350   0.8444   0.8501   0.8758   0.8922   0.8988   0.9061   0.9375
  0.9603   0.9931   1.0230   1.0473   1.0724   1.0886   1.0977   1.1105
  1.1316   1.1412   1.1602   1.1741   1.1834   1.1992   1.2143   1.2216
  1.2307   1.2365   1.2516   1.2543   1.2608   1.2757   1.2833   1.3103
  1.3296   1.3373   1.3531   1.3598   1.3812   1.3824   1.3939   1.4181
  1.4299   1.4391   1.4544   1.4574   1.4671   1.4935   1.5197   1.5303
  1.5478   1.5592   1.5658   1.5725   1.5970   1.6164   1.6315   1.6538
  1.6602   1.6871   1.6908   1.7275   1.7474   1.7769   1.7930   1.8098
  1.8283   1.8617   1.9131   1.9337   1.9801   2.0080   2.0155   2.0508
  2.0671   2.1556   2.1773   2.2468   2.2550   2.3031   2.3242   2.3693
  2.4001   2.4309   2.5675   2.6005   2.6485   2.6689   2.6723   2.7231
  2.7331   2.7627   2.7983   2.8173   2.8296   2.8419   2.8529   2.8690
  2.8727   2.8881   2.9113   2.9399   2.9563   2.9654   2.9753   2.9802
  2.9826   3.0154   3.0480   3.0726   3.0954   3.1225   3.1647   3.1802
  3.2203   3.2348   3.2541   3.2571   3.2841   3.3092   3.3274   3.3457
  3.3757   3.3880   3.4017   3.4257   3.4391   3.4449   3.4688   3.4876
  3.4991   3.5174   3.5251   3.5382   3.5662   3.5882   3.6079   3.6493
  3.6758   3.7138   3.7320   3.7377   3.7489   3.7697   3.7810   3.7933
  3.8172   3.8459   3.8616   3.8771   3.8893   3.9003   3.9221   3.9296
  3.9488   3.9670   3.9900   4.0254   4.0591   4.0788   4.0922   4.1356
  4.1813   4.1919   4.2061   4.2199   4.2471   4.2879   4.2953   4.3344
  4.3447   4.3719   4.3819   4.4062   4.4221   4.4550   4.4960   4.5273
  4.5679   4.5749   4.5984   4.6380   4.6497   4.6692   4.7237   4.7358
  4.7579   4.7706   4.7873   4.8448   4.9152   4.9321   4.9645   5.0149
  5.0379   5.0473   5.0666   5.1422   5.1451   5.1785   5.2000   5.2115
  5.2585   5.2886   5.2971   5.3073   5.3355   5.3728   5.3790   5.4038
  5.4543   5.4800   5.5180   5.5339   5.5908   5.6384   5.6751   5.6789
  5.7079   5.7284   5.8011   5.8288   5.9219   5.9405   6.0137   6.1108
  6.2793   6.4428   6.5285   6.6083   6.6308   6.9151   6.9713   7.0335
  7.1148   7.1396   7.2463   7.3105   7.3267   7.3424   7.3910   7.4401
  7.4952   7.6779   7.8096   7.8373   8.0395   8.1240  24.2758  24.5561
 24.7090  24.7805  25.1380  25.3540  50.4458  50.5460  50.6187
 --------------------------------------------------------------
 
          Ground-State Mulliken Net Atomic Charges

     Atom                 Charge (a.u.)    Spin (a.u.)
  --------------------------------------------------------
      1 H                     0.308771      -0.000574
      2 C                    -0.100363       0.007943
      3 C                    -0.300658      -0.001813
      4 H                     0.283252       0.000198
      5 C                    -0.171156      -0.000901
      6 H                     0.288238      -0.000081
      7 C                    -0.246843       0.003881
      8 H                     0.305298       0.000211
      9 C                    -0.253389       0.006516
     10 H                     0.227853      -0.001849
     11 C                    -0.401491      -0.005211
     12 H                     0.287461       0.006381
     13 O                    -0.415180       0.000234
     14 H                     0.341392       0.000082
     15 O                    -0.231877       0.665563
     16 O                     0.078693       0.319419
  --------------------------------------------------------
  Sum of atomic charges =     0.000000
  Sum of spin   charges =     1.000000

 -----------------------------------------------------------------
                    Cartesian Multipole Moments
 -----------------------------------------------------------------
    Charge (ESU x 10^10)
                -0.0000
    Dipole Moment (Debye)
         X      -2.8022      Y       3.1002      Z       0.6879
       Tot       4.2352
    Quadrupole Moments (Debye-Ang)
        XX     -49.1438     XY      -6.3914     YY     -54.3585
        XZ       5.1045     YZ      -9.7615     ZZ     -47.0326
    Octopole Moments (Debye-Ang^2)
       XXX      52.4571    XXY     -42.0778    XYY       5.1942
       YYY    -144.2281    XXZ      55.4491    XYZ       6.5510
       YYZ      32.7149    XZZ       4.3943    YZZ     -16.3769
       ZZZ     135.8356
    Hexadecapole Moments (Debye-Ang^3)
      XXXX    -445.8495   XXXY     117.0756   XXYY    -209.3354
      XYYY     128.3477   YYYY    -758.6496   XXXZ      11.1061
      XXYZ      46.8825   XYYZ      31.9838   YYYZ      45.5152
      XXZZ    -200.2709   XYZZ      26.7799   YYZZ    -179.4340
      XZZZ      43.4520   YZZZ      45.3064   ZZZZ    -648.8714
 -----------------------------------------------------------------
 Calculating analytic gradient of the SCF energy
 Gradient of CDS energy
            1           2           3           4           5           6
    1   0.0001125   0.0002831  -0.0000645  -0.0000804  -0.0005057  -0.0001970
    2  -0.0000608  -0.0001414  -0.0000254   0.0000153   0.0001376   0.0000459
    3   0.0001552   0.0002604   0.0005232   0.0001883  -0.0000807   0.0000341
            7           8           9          10          11          12
    1  -0.0001838  -0.0001094   0.0003091   0.0000426   0.0000809   0.0001982
    2   0.0000071   0.0000630   0.0000485  -0.0001440  -0.0001286   0.0000395
    3  -0.0002930  -0.0001560  -0.0000940  -0.0001136  -0.0001405  -0.0000824
           13          14          15          16
    1  -0.0000598   0.0001389  -0.0000126   0.0000479
    2  -0.0002583   0.0004432  -0.0000386  -0.0000030
    3   0.0001213  -0.0002274   0.0000132  -0.0001079
 Gradient of SCF Energy
            1           2           3           4           5           6
    1   0.0036300  -0.0008304   0.0030268  -0.0036016   0.0060903  -0.0086617
    2  -0.0016597   0.0032547  -0.0017303   0.0006337  -0.0003911   0.0023227
    3   0.0048302  -0.0045478  -0.0065470   0.0075372   0.0037409   0.0016210
            7           8           9          10          11          12
    1   0.0050966  -0.0053062   0.0024376  -0.0009806  -0.0052460   0.0026972
    2  -0.0042017   0.0039828   0.0036412  -0.0006676  -0.0053204  -0.0002964
    3   0.0024868  -0.0088614   0.0086287  -0.0051968  -0.0060150   0.0016643
           13          14          15          16
    1   0.0093762  -0.0080080   0.0007108  -0.0004310
    2  -0.0055772   0.0074067  -0.0005966  -0.0008010
    3   0.0112269  -0.0104113  -0.0002423   0.0000856
 Max gradient component =       1.123E-02
 RMS gradient           =       5.003E-03
 Computing fast CPCM-SWIG gradient
 Updating gradient with PCM contributions...
 -- total gradient after adding PCM contribution --
---------------------------------------------------
  Atom         X              Y              Z     
---------------------------------------------------
   1      -0.000017      -0.000021       0.000002
   2      -0.000007      -0.000019      -0.000011
   3      -0.000001      -0.000003      -0.000009
   4      -0.000016      -0.000007      -0.000005
   5      -0.000006       0.000007      -0.000012
   6       0.000002       0.000013      -0.000009
   7       0.000014       0.000005       0.000018
   8       0.000017       0.000033      -0.000006
   9       0.000030       0.000016       0.000000
  10      -0.000007       0.000004      -0.000001
  11      -0.000015       0.000036       0.000016
  12      -0.000000      -0.000017       0.000010
  13      -0.000003      -0.000002       0.000047
  14       0.000031       0.000006      -0.000020
  15      -0.000001      -0.000009      -0.000021
  16      -0.000022      -0.000041       0.000001
---------------------------------------------------
 Number of fixed atoms: 0
 Gradient time:  CPU 332.40 s  wall 15.69 s
-Performing force calculation on product structure in state0
 ----------------------------------------------------------------
             Standard Nuclear Orientation (Angstroms)
    I     Atom           X                Y                Z
 ----------------------------------------------------------------
    1      H       0.7735113680     1.1762195756     1.3085461517
    2      C       0.0705710267     1.0158482276     0.5046028971
    3      C      -1.2520413036     1.0770549393     0.6133839164
    4      H      -1.8026396595     1.3053622658     1.5143673129
    5      C      -1.9493570074     0.7412190879    -0.6765348872
    6      H      -3.0271908098     0.6482964596    -0.5956674391
    7      C      -1.4865075612     1.6806365493    -1.7306124736
    8      H      -2.1512604089     2.2758601195    -2.3366652589
    9      C      -0.0076262331     1.6709106760    -1.8966283273
   10      H       0.2759257378     1.3360399135    -2.8989620008
   11      C       0.5145023817     0.6499080417    -0.8791886046
   12      H       1.5825210317     0.4796879515    -0.9788071489
   13      O       0.6155609390     2.9297982437    -1.6178775825
   14      H       0.2712804608     3.5761773515    -2.2442149935
   15      O      -1.5142674692    -0.6093470215    -1.0531805416
   16      O      -0.0747146930    -0.6227046812    -1.2513694199
 ----------------------------------------------------------------
 Nuclear Repulsion Energy =         476.44153166 hartrees
 There are       34 alpha and       33 beta electrons
 Discretize the solute cavity surface with Lebedev spheres
	Using 110 Lebedev grid points for each H atom
	Using 194 Lebedev grid points for other atoms
	Atomic van der Waals radii will be scaled by 1.20
 Remove points where switching function is < 1.0e-08
 Keep 1156 surface tesserae and discard 1360 interior tesserae
 Molecular Surface Area = 135.097 Angst**2
 Applying Cartesian multipole field
    Component          Value
    ---------          -----
     (2,0,0)        1.00000E-11
     (0,2,0)        2.00000E-11
     (0,0,2)       -3.00000E-11
 Nucleus-field energy     =     0.0000000014 hartrees
 Requested basis set is 6-311++G(2df,2p)
 There are 114 shells and 376 basis functions
 A cutoff of  1.0D-12 yielded   6193 shell pairs
 There are     68530 function pairs (     86111 Cartesian)
 Smallest overlap matrix eigenvalue = 2.52E-06
 Guess from superposition of atomic densities
 Warning:  Energy on first SCF cycle will be non-variational
 SAD guess density has 67.000000 electrons

 -----------------------------------------------------------------------
  General SCF calculation program by
  Eric Jon Sundstrom, Paul Horn, Yuezhi Mao, Dmitri Zuev, Alec White,
  David Stuck, Shaama M.S., Shane Yost, Joonho Lee, David Small,
  Daniel Levine, Susi Lehtola, Hugh Burton, Evgeny Epifanovsky,
  Bang C. Huynh
 -----------------------------------------------------------------------
 Exchange:     0.1500 Hartree-Fock + 1.0000 wB97M-V + LR-HF
 Correlation:  1.0000 wB97M-V
 Using SG-2 standard quadrature grid
 Nonlocal Correlation:  VV10 with C = 0.0100 and b = 6.00 and scale = 1.00000
 Grid used for NLC:  SG-1 standard quadrature
 
 Citation of the SMD model:
 Marenich, A.V.; Cramer, C.J.; Truhlar, D.G.
 J. Phys. Chem. B 2009, 113, 6378-6396.
 iSolventCode=           1
 Solvent: water                                                           
 
 vradii
            1           2           3           4           5           6
    1   1.2000000   1.8500000   1.8500000   1.2000000   1.8500000   1.2000000
            7           8           9          10          11          12
    1   1.8500000   1.2000000   1.8500000   1.2000000   1.8500000   1.2000000
           13          14          15          16
    1   1.5200000   1.2000000   1.5200000   1.5200000
 -------------------------------------------------------
 OpenMP BLAS3 based DFT computing Module                
 Release: version 1.0, May 2013, Q-Chem Inc. Pittsburgh 
 -------------------------------------------------------
 A unrestricted SCF calculation will be
 performed using DIIS, GDM
 SCF converges when RMS gradient is below 1.0e-07
 ---------------------------------------
  Cycle       Energy         DIIS error
 ---------------------------------------
    1    -460.8310307998      1.29e-02  
    2    -458.2526317688      1.14e-03  Done DIIS. Switching to GDM
 ---------------------------------------
  Cycle       Energy        RMS Gradient
 ---------------------------------------
    1    -458.2526317688      3.44e-02   Descent step
    2    -458.3221842481      2.25e-02   Normal BFGS step
    3    -458.3348636809      9.47e-03   Normal BFGS step
    4    -458.3365082291      4.60e-03   Normal BFGS step
    5    -458.3367426503      2.14e-03   Normal BFGS step
    6    -458.3367798803      7.84e-04   Normal BFGS step
    7    -458.3367851349      3.03e-04   Normal BFGS step
    8    -458.3367884165      1.40e-04   Normal BFGS step
    9    -458.3367886093      7.71e-05   Normal BFGS step
   10    -458.3367886792      3.25e-05   Normal BFGS step
   11    -458.3367886997      2.24e-05   Normal BFGS step
   12    -458.3367887065      9.60e-06   Normal BFGS step
   13    -458.3367887086      7.23e-06   Normal BFGS step
   14    -458.3367887090      4.15e-06   Normal BFGS step
   15    -458.3367887090      1.60e-06   Normal BFGS step
   16    -458.3367887090      3.76e-07   Normal BFGS step
   17    -458.3367887090      1.64e-07   Normal BFGS step
   18    -458.3367887091      9.49e-08  Convergence criterion met
 ---------------------------------------
 SCF time:   CPU 2352.98s  wall 88.00s 
<S^2> =          0.754517570
(3)  G-ENP(liq) elect-nuc-pol free energy of system     -458.336788709 a.u.
(4)  G-CDS(liq) cavity-dispersion-solvent structure 
     free energy                                                2.4844 kcal/mol
(6)  G-S(liq) free energy of system                     -458.332829644 a.u.
 SCF   energy in the final basis set =     -458.3328296436
 Total energy in the final basis set =     -458.3328296436
 
 --------------------------------------------------------------
 
                    Orbital Energies (a.u.)
 --------------------------------------------------------------
 
 Alpha MOs
 -- Occupied --
-19.4003 -19.3991 -19.3429 -10.4092 -10.4064 -10.4019 -10.3595 -10.3513
-10.3485  -1.2632  -1.1624  -1.0600  -0.9797  -0.8811  -0.8273  -0.7699
 -0.7207  -0.6636  -0.6498  -0.6085  -0.6058  -0.5821  -0.5545  -0.5435
 -0.5255  -0.5050  -0.4882  -0.4722  -0.4619  -0.4418  -0.3992  -0.3776
 -0.3488  -0.3032
 -- Virtual --
  0.0248   0.0366   0.0386   0.0457   0.0518   0.0600   0.0645   0.0783
  0.0942   0.0984   0.1050   0.1274   0.1305   0.1362   0.1419   0.1427
  0.1459   0.1525   0.1577   0.1591   0.1634   0.1659   0.1700   0.1811
  0.1819   0.1929   0.1968   0.1987   0.2037   0.2133   0.2238   0.2346
  0.2606   0.2691   0.2750   0.2848   0.2950   0.2987   0.3092   0.3192
  0.3294   0.3358   0.3479   0.3559   0.3662   0.3671   0.3736   0.3789
  0.3820   0.3872   0.3949   0.4006   0.4064   0.4224   0.4303   0.4405
  0.4494   0.4680   0.4759   0.5123   0.5201   0.5377   0.5449   0.5608
  0.5804   0.5942   0.6102   0.6188   0.6203   0.6397   0.6472   0.6615
  0.6661   0.6823   0.6925   0.7002   0.7072   0.7156   0.7199   0.7392
  0.7466   0.7566   0.7731   0.7976   0.8108   0.8141   0.8210   0.8276
  0.8520   0.8805   0.8942   0.9122   0.9269   0.9507   0.9800   0.9908
  1.0119   1.0296   1.0651   1.0916   1.0980   1.1033   1.1170   1.1388
  1.1698   1.1798   1.1998   1.2142   1.2240   1.2294   1.2399   1.2463
  1.2601   1.2731   1.2787   1.2863   1.3019   1.3101   1.3143   1.3305
  1.3361   1.3512   1.3742   1.3808   1.4052   1.4204   1.4244   1.4384
  1.4494   1.4718   1.4905   1.4998   1.5124   1.5260   1.5379   1.5469
  1.5598   1.5637   1.5824   1.5920   1.6183   1.6461   1.6656   1.6736
  1.6883   1.7082   1.7581   1.7654   1.7762   1.8170   1.8387   1.8741
  1.9020   1.9123   1.9372   1.9623   1.9893   2.0411   2.0545   2.1083
  2.1339   2.2009   2.2496   2.2855   2.3344   2.3573   2.4040   2.4325
  2.5057   2.5836   2.6009   2.6765   2.7016   2.7265   2.7484   2.7722
  2.7816   2.7969   2.8084   2.8246   2.8452   2.8676   2.8982   2.9093
  2.9216   2.9236   2.9460   2.9674   2.9834   3.0031   3.0182   3.0355
  3.0594   3.0653   3.0807   3.1228   3.1372   3.1846   3.1888   3.2674
  3.2798   3.2966   3.3322   3.3403   3.3511   3.3710   3.3801   3.3991
  3.4252   3.4353   3.4492   3.4543   3.4750   3.5190   3.5276   3.5352
  3.5579   3.5712   3.5941   3.6033   3.6163   3.6396   3.6782   3.7076
  3.7122   3.7304   3.7501   3.7633   3.7683   3.7885   3.8046   3.8267
  3.8486   3.8513   3.8704   3.8901   3.9128   3.9374   3.9381   3.9588
  4.0030   4.0192   4.0285   4.0588   4.0902   4.1467   4.1613   4.1735
  4.1881   4.2176   4.2581   4.2604   4.2844   4.3013   4.3179   4.3529
  4.3680   4.3889   4.4133   4.4510   4.4717   4.4909   4.5202   4.5510
  4.5803   4.6023   4.6076   4.6219   4.6576   4.6724   4.6985   4.7131
  4.7540   4.7633   4.7838   4.8151   4.8988   4.9352   5.0012   5.0905
  5.1336   5.1599   5.2176   5.2666   5.2821   5.3145   5.3306   5.3444
  5.3466   5.3798   5.3963   5.4221   5.4409   5.4948   5.5154   5.5410
  5.5774   5.5919   5.6178   5.6643   5.6759   5.6860   5.6925   5.7509
  5.7631   5.8697   5.8832   5.8992   5.9368   6.0263   6.0543   6.1630
  6.3713   6.5124   6.5818   6.6188   6.8076   6.9737   7.1114   7.2341
  7.2737   7.3179   7.3262   7.3963   7.4508   7.4837   7.5453   7.6214
  7.6974   7.8242   7.8899   7.9577   8.2445  24.3662  24.5278  24.7350
 24.7794  24.9507  25.2506  50.5527  50.6303  50.6622
 
 Beta MOs
 -- Occupied --
-19.4003 -19.3975 -19.3415 -10.4099 -10.4064 -10.4027 -10.3509 -10.3477
-10.3466  -1.2615  -1.1593  -1.0580  -0.9742  -0.8700  -0.8219  -0.7656
 -0.7114  -0.6598  -0.6450  -0.6042  -0.6005  -0.5784  -0.5470  -0.5420
 -0.5230  -0.5001  -0.4824  -0.4628  -0.4601  -0.4394  -0.3945  -0.3698
 -0.3466
 -- Virtual --
 -0.0035   0.0247   0.0363   0.0383   0.0458   0.0550   0.0603   0.0683
  0.0794   0.0944   0.0993   0.1047   0.1278   0.1299   0.1371   0.1415
  0.1431   0.1458   0.1524   0.1580   0.1591   0.1637   0.1670   0.1710
  0.1803   0.1820   0.1937   0.1965   0.1978   0.2043   0.2128   0.2236
  0.2349   0.2626   0.2676   0.2767   0.2854   0.2960   0.3028   0.3125
  0.3215   0.3313   0.3364   0.3488   0.3598   0.3666   0.3693   0.3746
  0.3790   0.3831   0.3880   0.3960   0.4018   0.4074   0.4275   0.4339
  0.4434   0.4503   0.4685   0.4781   0.5133   0.5212   0.5417   0.5475
  0.5654   0.5824   0.5971   0.6133   0.6213   0.6232   0.6470   0.6554
  0.6686   0.6722   0.6874   0.6942   0.7012   0.7113   0.7175   0.7243
  0.7447   0.7509   0.7609   0.7769   0.8010   0.8125   0.8209   0.8220
  0.8311   0.8548   0.8812   0.8978   0.9138   0.9274   0.9504   0.9827
  0.9946   1.0132   1.0317   1.0672   1.0949   1.0992   1.1045   1.1177
  1.1402   1.1715   1.1839   1.2022   1.2176   1.2251   1.2339   1.2422
  1.2483   1.2632   1.2766   1.2815   1.2889   1.3038   1.3116   1.3180
  1.3326   1.3382   1.3522   1.3778   1.3860   1.4066   1.4242   1.4282
  1.4438   1.4554   1.4744   1.4940   1.5049   1.5157   1.5296   1.5396
  1.5501   1.5632   1.5687   1.5873   1.5949   1.6210   1.6490   1.6708
  1.6773   1.6927   1.7124   1.7617   1.7746   1.7807   1.8200   1.8434
  1.8760   1.9035   1.9171   1.9408   1.9668   1.9922   2.0457   2.0581
  2.1110   2.1378   2.2049   2.2533   2.2877   2.3369   2.3589   2.4059
  2.4350   2.5085   2.5863   2.6116   2.6892   2.7053   2.7325   2.7588
  2.7822   2.7876   2.8053   2.8143   2.8332   2.8537   2.8815   2.9066
  2.9314   2.9338   2.9499   2.9681   2.9915   2.9995   3.0136   3.0296
  3.0455   3.0641   3.0720   3.0879   3.1363   3.1491   3.1962   3.2137
  3.2854   3.2881   3.3090   3.3354   3.3466   3.3563   3.3834   3.3922
  3.4173   3.4330   3.4524   3.4629   3.4650   3.4925   3.5270   3.5340
  3.5515   3.5676   3.5803   3.6105   3.6148   3.6334   3.6536   3.6838
  3.7124   3.7206   3.7487   3.7665   3.7720   3.7752   3.7920   3.8107
  3.8360   3.8522   3.8560   3.8771   3.8938   3.9186   3.9474   3.9510
  3.9656   4.0115   4.0264   4.0381   4.0658   4.0971   4.1539   4.1698
  4.1856   4.1986   4.2298   4.2623   4.2740   4.3018   4.3067   4.3225
  4.3682   4.3736   4.4005   4.4292   4.4602   4.4911   4.5030   4.5266
  4.5626   4.5870   4.6102   4.6142   4.6309   4.6646   4.6805   4.7026
  4.7202   4.7632   4.7713   4.7867   4.8243   4.9018   4.9461   5.0042
  5.1034   5.1519   5.1738   5.2241   5.2695   5.2842   5.3176   5.3346
  5.3477   5.3499   5.3850   5.3987   5.4252   5.4441   5.5057   5.5187
  5.5445   5.5804   5.5981   5.6217   5.6695   5.6785   5.6972   5.7015
  5.7666   5.7902   5.8720   5.8911   5.9059   5.9425   6.0275   6.0576
  6.1656   6.3734   6.5165   6.5822   6.6226   6.8089   6.9755   7.1141
  7.2365   7.2772   7.3211   7.3299   7.4010   7.4532   7.4852   7.5477
  7.6244   7.7000   7.8295   7.8920   7.9600   8.2455  24.3669  24.5348
 24.7364  24.7811  24.9529  25.2513  50.5534  50.6314  50.6628
 --------------------------------------------------------------
 
          Ground-State Mulliken Net Atomic Charges

     Atom                 Charge (a.u.)    Spin (a.u.)
  --------------------------------------------------------
      1 H                     0.288711      -0.000557
      2 C                    -0.189478       0.056700
      3 C                    -0.295419      -0.006216
      4 H                     0.285399      -0.002234
      5 C                     0.045286      -0.031031
      6 H                     0.275222       0.006443
      7 C                    -0.337344       0.899736
      8 H                     0.304167      -0.014949
      9 C                    -0.126222       0.003696
     10 H                     0.247437       0.027280
     11 C                    -0.412051       0.000568
     12 H                     0.270754      -0.000910
     13 O                    -0.436012       0.029226
     14 H                     0.345255      -0.002816
     15 O                    -0.165031       0.034308
     16 O                    -0.100675       0.000756
  --------------------------------------------------------
  Sum of atomic charges =     0.000000
  Sum of spin   charges =     1.000000

 -----------------------------------------------------------------
                    Cartesian Multipole Moments
 -----------------------------------------------------------------
    Charge (ESU x 10^10)
                -0.0000
    Dipole Moment (Debye)
         X      -1.3936      Y       3.9506      Z      -0.3906
       Tot       4.2074
    Quadrupole Moments (Debye-Ang)
        XX     -45.9085     XY      -8.4684     YY     -52.6749
        XZ       0.7582     YZ      -9.6316     ZZ     -45.3654
    Octopole Moments (Debye-Ang^2)
       XXX      68.4533    XXY     -43.6838    XYY      16.1816
       YYY    -141.8539    XXZ      47.3478    XYZ      10.9304
       YYZ      22.3153    XZZ      26.6185    YZZ     -18.4147
       ZZZ     123.5083
    Hexadecapole Moments (Debye-Ang^3)
      XXXX    -399.4545   XXXY       7.2530   XXYY    -206.6223
      XYYY       5.6388   YYYY    -652.6294   XXXZ     -48.6238
      XXYZ      54.3026   XYYZ       3.7473   YYYZ      65.2463
      XXZZ    -169.9646   XYZZ      -8.6806   YYZZ    -129.4220
      XZZZ     -59.0205   YZZZ      96.4578   ZZZZ    -529.4336
 -----------------------------------------------------------------
 Calculating analytic gradient of the SCF energy
 Gradient of CDS energy
            1           2           3           4           5           6
    1   0.0001298   0.0003334  -0.0002430  -0.0001016  -0.0002721  -0.0002064
    2   0.0000296   0.0000422   0.0000717   0.0000421  -0.0003435  -0.0000796
    3   0.0001484   0.0003234   0.0004397   0.0001662  -0.0000912   0.0000031
            7           8           9          10          11          12
    1  -0.0002940  -0.0001129   0.0003476   0.0000491   0.0001116   0.0002079
    2   0.0001769   0.0001019   0.0001319  -0.0001211  -0.0002108  -0.0000503
    3  -0.0002851  -0.0001034  -0.0000274  -0.0001777  -0.0002142  -0.0000486
           13          14          15          16
    1  -0.0000743   0.0001202   0.0001035  -0.0000988
    2  -0.0002752   0.0004810  -0.0000091   0.0000123
    3   0.0000562  -0.0001552  -0.0000107  -0.0000235
 Gradient of SCF Energy
            1           2           3           4           5           6
    1   0.0029493  -0.0026861   0.0044021  -0.0041587   0.0070256  -0.0081184
    2   0.0004421   0.0018033   0.0006998   0.0017946  -0.0027634   0.0008600
    3   0.0033530  -0.0033954  -0.0028543   0.0056831  -0.0016853   0.0008809
            7           8           9          10          11          12
    1   0.0060956  -0.0064627  -0.0020203   0.0014221  -0.0027533   0.0037691
    2  -0.0031200   0.0067940   0.0009207   0.0001287  -0.0043197  -0.0001121
    3   0.0053214  -0.0064385   0.0078873  -0.0056391  -0.0031284  -0.0003430
           13          14          15          16
    1   0.0078014  -0.0066904  -0.0025753   0.0020001
    2  -0.0065466   0.0082932  -0.0023898  -0.0024848
    3   0.0126918  -0.0112197   0.0000661  -0.0011799
 Max gradient component =       1.269E-02
 RMS gradient           =       4.861E-03
 Computing fast CPCM-SWIG gradient
 Updating gradient with PCM contributions...
 -- total gradient after adding PCM contribution --
---------------------------------------------------
  Atom         X              Y              Z     
---------------------------------------------------
   1       0.000015       0.000008       0.000009
   2       0.000054       0.000115       0.000069
   3       0.000013      -0.000176       0.000023
   4       0.000034       0.000080      -0.000024
   5       0.000010      -0.000104      -0.000077
   6      -0.000028       0.000053       0.000015
   7      -0.000079       0.000021       0.000128
   8      -0.000029       0.000027      -0.000026
   9       0.000144       0.000044      -0.000088
  10      -0.000033      -0.000043       0.000079
  11       0.000005      -0.000213      -0.000052
  12      -0.000011      -0.000040      -0.000028
  13      -0.000037      -0.000029      -0.000075
  14       0.000043       0.000019       0.000079
  15      -0.000132       0.000164       0.000063
  16       0.000031       0.000076      -0.000095
---------------------------------------------------
 Number of fixed atoms: 0
 Gradient time:  CPU 370.45 s  wall 16.74 s

STARTING FREEZING STRING ITERATION # 1
 The distance between the innermost nodes (Angstroms): 3.484
-Adding two new nodes
 The distance between the previous and current R_nodes (Angstroms): 0.1744
 The distance between the previous and current P_nodes (Angstroms): 0.1604
-Optimizing new reactant side node
 Using BFGS, step: 2 E_tol 0.0180
 max_steps 6, node_spacing 0.1742, sigma 0.7000
 ----------------------------------------------------------------
             Standard Nuclear Orientation (Angstroms)
    I     Atom           X                Y                Z
 ----------------------------------------------------------------
    1      H       0.4644856736     0.4794061233     1.4094853651
    2      C      -0.1495813245     0.7818055095     0.5730827573
    3      C      -1.3903100931     1.2327920915     0.7382701456
    4      H      -1.8197608802     1.3205460899     1.7273037254
    5      C      -2.2138916823     1.6181393317    -0.4113046638
    6      H      -3.2572237459     1.8435171234    -0.2358850885
    7      C      -1.6784554908     1.7869787318    -1.6261794997
    8      H      -2.2708576252     2.1508198946    -2.4555336278
    9      C      -0.2223885173     1.5224886857    -1.8659677777
   10      H      -0.0900015439     1.0338035230    -2.8335954524
   11      C       0.4067123459     0.6299057454    -0.8031500883
   12      H       1.4873320295     0.7518922440    -0.8268214329
   13      O       0.5282210725     2.7428696582    -1.8446832833
   14      H       0.1132263395     3.3577969761    -2.4604229419
   15      O       0.8111310944    -1.1799099252    -2.1896884840
   16      O       0.1348409702    -0.7771588055    -1.1491739883
 ----------------------------------------------------------------
 Nuclear Repulsion Energy =         449.05063984 hartrees
 There are       34 alpha and       33 beta electrons
 Discretize the solute cavity surface with Lebedev spheres
	Using 110 Lebedev grid points for each H atom
	Using 194 Lebedev grid points for other atoms
	Atomic van der Waals radii will be scaled by 1.20
 Remove points where switching function is < 1.0e-08
 Keep 1225 surface tesserae and discard 1291 interior tesserae
 Molecular Surface Area = 145.177 Angst**2
 Applying Cartesian multipole field
    Component          Value
    ---------          -----
     (2,0,0)        1.00000E-11
     (0,2,0)        2.00000E-11
     (0,0,2)       -3.00000E-11
 Nucleus-field energy     =    -0.0000000011 hartrees
 Requested basis set is 6-311++G(2df,2p)
 There are 114 shells and 376 basis functions
 A cutoff of  1.0D-12 yielded   6048 shell pairs
 There are     66478 function pairs (     83363 Cartesian)
 Smallest overlap matrix eigenvalue = 2.22E-06
 Guess from superposition of atomic densities
 Warning:  Energy on first SCF cycle will be non-variational
 SAD guess density has 67.000000 electrons

 -----------------------------------------------------------------------
  General SCF calculation program by
  Eric Jon Sundstrom, Paul Horn, Yuezhi Mao, Dmitri Zuev, Alec White,
  David Stuck, Shaama M.S., Shane Yost, Joonho Lee, David Small,
  Daniel Levine, Susi Lehtola, Hugh Burton, Evgeny Epifanovsky,
  Bang C. Huynh
 -----------------------------------------------------------------------
 Exchange:     0.1500 Hartree-Fock + 1.0000 wB97M-V + LR-HF
 Correlation:  1.0000 wB97M-V
 Using SG-2 standard quadrature grid
 Nonlocal Correlation:  VV10 with C = 0.0100 and b = 6.00 and scale = 1.00000
 Grid used for NLC:  SG-1 standard quadrature
 
 Citation of the SMD model:
 Marenich, A.V.; Cramer, C.J.; Truhlar, D.G.
 J. Phys. Chem. B 2009, 113, 6378-6396.
 iSolventCode=           1
 Solvent: water                                                           
 
 vradii
            1           2           3           4           5           6
    1   1.2000000   1.8500000   1.8500000   1.2000000   1.8500000   1.2000000
            7           8           9          10          11          12
    1   1.8500000   1.2000000   1.8500000   1.2000000   1.8500000   1.2000000
           13          14          15          16
    1   1.5200000   1.2000000   1.5200000   1.5200000
 -------------------------------------------------------
 OpenMP BLAS3 based DFT computing Module                
 Release: version 1.0, May 2013, Q-Chem Inc. Pittsburgh 
 -------------------------------------------------------
 A unrestricted SCF calculation will be
 performed using DIIS, GDM
 SCF converges when RMS gradient is below 1.0e-07
 ---------------------------------------
  Cycle       Energy         DIIS error
 ---------------------------------------
    1    -460.6821122257      1.29e-02  
    2    -458.2435381242      1.33e-03  Done DIIS. Switching to GDM
 ---------------------------------------
  Cycle       Energy        RMS Gradient
 ---------------------------------------
    1    -458.2435381242      1.11e-01   Descent step
    2    -458.3356083008      2.07e-02   Normal BFGS step
    3    -458.3497989438      3.25e-02   Normal BFGS step
    4    -458.3534605607      5.19e-03   Normal BFGS step
    5    -458.3542353714      5.92e-03   Normal BFGS step
    6    -458.3544509949      3.68e-03   Normal BFGS step
    7    -458.3545214293      1.91e-03   Normal BFGS step
    8    -458.3545388074      4.95e-04   Normal BFGS step
    9    -458.3545412234      3.08e-04   Normal BFGS step
   10    -458.3545416252      8.30e-05   Normal BFGS step
   11    -458.3545416934      3.70e-05   Normal BFGS step
   12    -458.3545417059      3.13e-05   Normal BFGS step
   13    -458.3545417137      2.03e-05   Normal BFGS step
   14    -458.3545417178      1.36e-05   Normal BFGS step
   15    -458.3545417196      8.97e-06   Normal BFGS step
   16    -458.3545417202      6.85e-06   Normal BFGS step
   17    -458.3545417204      5.60e-06   Normal BFGS step
   18    -458.3545417205      4.12e-06   Normal BFGS step
   19    -458.3545417205      2.13e-06   Normal BFGS step
   20    -458.3545417206      9.76e-07   Normal BFGS step
   21    -458.3545417206      5.08e-07   Normal BFGS step
   22    -458.3545417206      1.74e-07   Normal BFGS step
   23    -458.3545417205      1.04e-07   Normal BFGS step
   24    -458.3545417206      5.24e-08  Convergence criterion met
 ---------------------------------------
 SCF time:   CPU 2868.52s  wall 109.00s 
<S^2> =          0.754062628
(3)  G-ENP(liq) elect-nuc-pol free energy of system     -458.354541721 a.u.
(4)  G-CDS(liq) cavity-dispersion-solvent structure 
     free energy                                                2.5585 kcal/mol
(6)  G-S(liq) free energy of system                     -458.350464522 a.u.
 SCF   energy in the final basis set =     -458.3504645216
 Total energy in the final basis set =     -458.3504645216
 
 --------------------------------------------------------------
 
                    Orbital Energies (a.u.)
 --------------------------------------------------------------
 
 Alpha MOs
 -- Occupied --
-19.4641 -19.4172 -19.3450 -10.4120 -10.4062 -10.3554 -10.3513 -10.3487
-10.3480  -1.3417  -1.1649  -1.0303  -0.9566  -0.8762  -0.8602  -0.7470
 -0.7307  -0.6687  -0.6506  -0.6252  -0.6178  -0.5932  -0.5730  -0.5532
 -0.5333  -0.5191  -0.4974  -0.4630  -0.4374  -0.4318  -0.4070  -0.3971
 -0.3887  -0.3327
 -- Virtual --
  0.0165   0.0269   0.0369   0.0404   0.0546   0.0578   0.0599   0.0826
  0.0979   0.1077   0.1133   0.1193   0.1326   0.1375   0.1447   0.1514
  0.1544   0.1574   0.1615   0.1633   0.1663   0.1715   0.1762   0.1834
  0.1886   0.1955   0.2023   0.2091   0.2119   0.2229   0.2280   0.2413
  0.2460   0.2521   0.2611   0.2763   0.2804   0.2913   0.2981   0.3069
  0.3153   0.3243   0.3319   0.3350   0.3533   0.3573   0.3652   0.3690
  0.3845   0.3887   0.3931   0.3982   0.4041   0.4131   0.4258   0.4300
  0.4430   0.4568   0.4768   0.5206   0.5326   0.5365   0.5633   0.5774
  0.5928   0.5956   0.6104   0.6256   0.6329   0.6372   0.6460   0.6513
  0.6806   0.6865   0.6966   0.7098   0.7194   0.7214   0.7400   0.7462
  0.7531   0.7740   0.7823   0.7941   0.8078   0.8137   0.8178   0.8350
  0.8419   0.8536   0.8737   0.8925   0.9004   0.9049   0.9356   0.9591
  0.9907   1.0268   1.0431   1.0656   1.0844   1.0959   1.1055   1.1306
  1.1412   1.1605   1.1741   1.1765   1.1914   1.1977   1.2173   1.2251
  1.2285   1.2411   1.2545   1.2571   1.2728   1.2810   1.3078   1.3184
  1.3365   1.3528   1.3552   1.3805   1.3848   1.3940   1.4112   1.4283
  1.4410   1.4516   1.4546   1.4683   1.4970   1.5155   1.5288   1.5501
  1.5552   1.5662   1.5695   1.5944   1.6105   1.6261   1.6423   1.6552
  1.6765   1.6848   1.7119   1.7451   1.7727   1.7919   1.8103   1.8242
  1.8592   1.9048   1.9297   1.9625   2.0045   2.0100   2.0435   2.0630
  2.1519   2.1716   2.2367   2.2433   2.2884   2.3167   2.3571   2.3988
  2.4284   2.5716   2.6013   2.6458   2.6672   2.6764   2.7249   2.7263
  2.7618   2.7983   2.8133   2.8360   2.8406   2.8520   2.8649   2.8694
  2.8823   2.9109   2.9399   2.9562   2.9626   2.9787   2.9816   2.9885
  3.0128   3.0469   3.0650   3.0947   3.1228   3.1663   3.1718   3.2166
  3.2372   3.2572   3.2644   3.2902   3.3167   3.3271   3.3450   3.3756
  3.3924   3.4083   3.4234   3.4398   3.4499   3.4690   3.4840   3.5021
  3.5171   3.5289   3.5365   3.5683   3.5877   3.6060   3.6487   3.6780
  3.7086   3.7315   3.7393   3.7544   3.7709   3.7783   3.7892   3.8158
  3.8418   3.8567   3.8760   3.8885   3.9090   3.9165   3.9251   3.9514
  3.9608   3.9930   4.0241   4.0537   4.0787   4.0930   4.1378   4.1680
  4.1971   4.2081   4.2234   4.2437   4.2889   4.2966   4.3335   4.3455
  4.3713   4.3807   4.4116   4.4238   4.4548   4.4954   4.5224   4.5645
  4.5788   4.5827   4.6214   4.6525   4.6634   4.7172   4.7292   4.7539
  4.7729   4.7874   4.8319   4.8989   4.9264   4.9492   5.0161   5.0279
  5.0406   5.0604   5.0937   5.0954   5.1082   5.1713   5.1896   5.2452
  5.2473   5.2671   5.2938   5.3354   5.3701   5.3787   5.3850   5.4473
  5.4672   5.5016   5.5289   5.5902   5.6283   5.6715   5.6760   5.7053
  5.7195   5.7935   5.8102   5.9185   5.9424   6.0114   6.1064   6.2642
  6.4379   6.4704   6.5982   6.6212   6.8308   6.8883   6.9725   7.0922
  7.1134   7.2152   7.2709   7.3247   7.3358   7.3880   7.4097   7.4528
  7.6790   7.8044   7.8353   8.0275   8.0990  24.2814  24.5570  24.7134
 24.7848  25.1282  25.3420  50.4296  50.5372  50.6185
 
 Beta MOs
 -- Occupied --
-19.4536 -19.3986 -19.3450 -10.4124 -10.4059 -10.3555 -10.3513 -10.3487
-10.3480  -1.3152  -1.1647  -1.0091  -0.9457  -0.8755  -0.8520  -0.7421
 -0.7300  -0.6601  -0.6428  -0.6085  -0.5944  -0.5869  -0.5608  -0.5417
 -0.5293  -0.4969  -0.4952  -0.4610  -0.4337  -0.4227  -0.3948  -0.3869
 -0.3325
 -- Virtual --
 -0.0326   0.0173   0.0270   0.0373   0.0404   0.0550   0.0583   0.0600
  0.0830   0.0986   0.1085   0.1138   0.1201   0.1332   0.1380   0.1456
  0.1516   0.1546   0.1580   0.1618   0.1639   0.1671   0.1721   0.1765
  0.1848   0.1902   0.1958   0.2034   0.2097   0.2127   0.2245   0.2286
  0.2419   0.2467   0.2545   0.2661   0.2805   0.2845   0.2922   0.3013
  0.3074   0.3172   0.3250   0.3330   0.3374   0.3560   0.3593   0.3664
  0.3697   0.3851   0.3904   0.3948   0.3988   0.4047   0.4137   0.4262
  0.4326   0.4436   0.4575   0.4783   0.5208   0.5328   0.5368   0.5645
  0.5775   0.5931   0.5959   0.6108   0.6259   0.6332   0.6376   0.6463
  0.6518   0.6810   0.6866   0.6966   0.7101   0.7201   0.7224   0.7400
  0.7464   0.7532   0.7747   0.7826   0.7945   0.8085   0.8143   0.8179
  0.8357   0.8420   0.8536   0.8740   0.8937   0.9007   0.9049   0.9358
  0.9615   0.9923   1.0288   1.0450   1.0692   1.0863   1.0975   1.1072
  1.1320   1.1462   1.1630   1.1768   1.1818   1.1964   1.2165   1.2243
  1.2290   1.2372   1.2508   1.2566   1.2591   1.2758   1.2825   1.3098
  1.3206   1.3386   1.3550   1.3558   1.3816   1.3854   1.3945   1.4136
  1.4292   1.4421   1.4528   1.4584   1.4721   1.4987   1.5187   1.5300
  1.5512   1.5602   1.5672   1.5752   1.5958   1.6151   1.6332   1.6544
  1.6617   1.6872   1.6933   1.7264   1.7488   1.7736   1.7944   1.8124
  1.8262   1.8634   1.9162   1.9309   1.9689   2.0075   2.0122   2.0455
  2.0638   2.1568   2.1785   2.2437   2.2509   2.2983   2.3222   2.3690
  2.4028   2.4318   2.5722   2.6019   2.6480   2.6708   2.6783   2.7255
  2.7293   2.7624   2.7989   2.8133   2.8361   2.8408   2.8523   2.8650
  2.8699   2.8830   2.9111   2.9404   2.9562   2.9629   2.9791   2.9819
  2.9893   3.0130   3.0474   3.0658   3.0955   3.1234   3.1666   3.1724
  3.2169   3.2375   3.2573   3.2649   3.2903   3.3170   3.3272   3.3455
  3.3759   3.3924   3.4085   3.4236   3.4402   3.4501   3.4696   3.4844
  3.5022   3.5172   3.5291   3.5368   3.5688   3.5884   3.6062   3.6488
  3.6785   3.7093   3.7320   3.7395   3.7552   3.7708   3.7789   3.7894
  3.8163   3.8422   3.8568   3.8760   3.8888   3.9097   3.9168   3.9256
  3.9521   3.9610   3.9934   4.0245   4.0543   4.0791   4.0933   4.1384
  4.1684   4.1978   4.2085   4.2239   4.2440   4.2895   4.2976   4.3345
  4.3462   4.3720   4.3811   4.4126   4.4246   4.4558   4.4961   4.5232
  4.5686   4.5796   4.5899   4.6394   4.6530   4.6673   4.7182   4.7424
  4.7612   4.7777   4.7893   4.8331   4.9151   4.9342   4.9568   5.0195
  5.0389   5.0424   5.0694   5.1425   5.1449   5.1785   5.1992   5.2114
  5.2574   5.2856   5.2962   5.3051   5.3377   5.3748   5.3830   5.4008
  5.4511   5.4836   5.5159   5.5352   5.5910   5.6356   5.6754   5.6806
  5.7079   5.7251   5.7997   5.8303   5.9188   5.9432   6.0134   6.1068
  6.2654   6.4526   6.5166   6.6057   6.6269   6.9151   6.9684   7.0330
  7.1152   7.1340   7.2422   7.3114   7.3262   7.3435   7.3904   7.4374
  7.4964   7.6798   7.8116   7.8416   8.0413   8.1192  24.2814  24.5570
 24.7133  24.7849  25.1282  25.3420  50.4423  50.5469  50.6187
 --------------------------------------------------------------
 
          Ground-State Mulliken Net Atomic Charges

     Atom                 Charge (a.u.)    Spin (a.u.)
  --------------------------------------------------------
      1 H                     0.308810      -0.000589
      2 C                    -0.117448       0.007785
      3 C                    -0.283862      -0.003174
      4 H                     0.283680       0.000171
      5 C                    -0.196439       0.002020
      6 H                     0.289118      -0.000022
      7 C                    -0.232804       0.001679
      8 H                     0.301908       0.000193
      9 C                    -0.267161       0.007099
     10 H                     0.231625      -0.001667
     11 C                    -0.379500      -0.004543
     12 H                     0.288497       0.006515
     13 O                    -0.416150       0.000252
     14 H                     0.341714       0.000061
     15 O                    -0.231431       0.667515
     16 O                     0.079443       0.316706
  --------------------------------------------------------
  Sum of atomic charges =     0.000000
  Sum of spin   charges =     1.000000

 -----------------------------------------------------------------
                    Cartesian Multipole Moments
 -----------------------------------------------------------------
    Charge (ESU x 10^10)
                -0.0000
    Dipole Moment (Debye)
         X      -2.6081      Y       3.1588      Z       0.6427
       Tot       4.1464
    Quadrupole Moments (Debye-Ang)
        XX     -48.9460     XY      -6.4451     YY     -54.3880
        XZ       4.6975     YZ      -9.9861     ZZ     -46.9263
    Octopole Moments (Debye-Ang^2)
       XXX      53.9637    XXY     -42.5051    XYY       5.9827
       YYY    -143.1181    XXZ      55.0352    XYZ       6.9008
       YYZ      32.2448    XZZ       5.7968    YZZ     -15.4327
       ZZZ     135.9099
    Hexadecapole Moments (Debye-Ang^3)
      XXXX    -437.0486   XXXY     111.3548   XXYY    -209.1324
      XYYY     121.5611   YYYY    -755.9589   XXXZ       5.6886
      XXYZ      47.0352   XYYZ      30.1650   YYYZ      42.6274
      XXZZ    -197.7704   XYZZ      24.1252   YYZZ    -177.8201
      XZZZ      36.3711   YZZZ      44.0480   ZZZZ    -648.0401
 -----------------------------------------------------------------
 Calculating analytic gradient of the SCF energy
 Gradient of CDS energy
            1           2           3           4           5           6
    1   0.0001143   0.0002898  -0.0000637  -0.0000815  -0.0005140  -0.0001973
    2  -0.0000563  -0.0001266  -0.0000151   0.0000166   0.0000896   0.0000426
    3   0.0001556   0.0002620   0.0005236   0.0001877  -0.0000832   0.0000332
            7           8           9          10          11          12
    1  -0.0001778  -0.0001108   0.0003135   0.0000406   0.0000771   0.0002008
    2   0.0000219   0.0000660   0.0000501  -0.0001395  -0.0001320   0.0000364
    3  -0.0003025  -0.0001526  -0.0000847  -0.0001177  -0.0001424  -0.0000793
           13          14          15          16
    1  -0.0000599   0.0001381  -0.0000137   0.0000444
    2  -0.0002607   0.0004459  -0.0000376  -0.0000014
    3   0.0001156  -0.0002227   0.0000136  -0.0001063
 Gradient of SCF Energy
            1           2           3           4           5           6
    1   0.0031773  -0.0018883   0.0045463  -0.0036343   0.0036931  -0.0080959
    2  -0.0018977   0.0028505   0.0002210   0.0007804  -0.0069569   0.0027259
    3   0.0050987  -0.0054729  -0.0047545   0.0074482   0.0089009   0.0018074
            7           8           9          10          11          12
    1   0.0090202  -0.0054052   0.0027171  -0.0013573  -0.0062552   0.0027308
    2  -0.0015803   0.0050889   0.0022149   0.0004722  -0.0056253   0.0003370
    3  -0.0056258  -0.0082598   0.0090466  -0.0056788  -0.0062718   0.0020324
           13          14          15          16
    1   0.0088886  -0.0079854   0.0015013  -0.0016529
    2  -0.0058899   0.0076018  -0.0026487   0.0023061
    3   0.0112432  -0.0105709  -0.0024869   0.0035439
 Max gradient component =       1.124E-02
 RMS gradient           =       5.420E-03
 Computing fast CPCM-SWIG gradient
 Updating gradient with PCM contributions...
 -- total gradient after adding PCM contribution --
---------------------------------------------------
  Atom         X              Y              Z     
---------------------------------------------------
   1      -0.000497      -0.000407       0.000274
   2      -0.000810      -0.001035      -0.001282
   3       0.001106       0.002331       0.001895
   4      -0.000055       0.000095       0.000008
   5      -0.001962      -0.006682       0.005594
   6       0.000336       0.000577       0.000245
   7       0.003880       0.003031      -0.008307
   8      -0.000107       0.000885       0.000418
   9       0.000212      -0.001712       0.000526
  10      -0.000513       0.000987      -0.000399
  11      -0.000565       0.000481      -0.000515
  12      -0.000301       0.000645       0.000544
  13      -0.000378      -0.000241      -0.000148
  14       0.000014       0.000098      -0.000027
  15       0.000844      -0.002001      -0.002372
  16      -0.001205       0.002948       0.003547
---------------------------------------------------
 Number of fixed atoms: 0
 Gradient time:  CPU 330.24 s  wall 15.79 s
 ----------------------------------------------------------------
             Standard Nuclear Orientation (Angstroms)
    I     Atom           X                Y                Z
 ----------------------------------------------------------------
    1      H       0.4671069288     0.4824644238     1.4088363337
    2      C      -0.1463426884     0.7859363472     0.5771281766
    3      C      -1.3933463230     1.2254553961     0.7324211277
    4      H      -1.8194672616     1.3202469777     1.7270982455
    5      C      -2.2079064649     1.6362631793    -0.4288924057
    6      H      -3.2584226887     1.8388491018    -0.2373566668
    7      C      -1.6898221847     1.7776107625    -1.6011794997
    8      H      -2.2700444833     2.1486793161    -2.4568607560
    9      C      -0.2224447219     1.5283022946    -1.8675448085
   10      H      -0.0874460513     1.0319767770    -2.8325979363
   11      C       0.4086643381     0.6287667946    -0.8015999993
   12      H       1.4885706484     0.7492541084    -0.8288161097
   13      O       0.5296733631     2.7443486147    -1.8434574490
   14      H       0.1136838061     3.3583404880    -2.4595992395
   15      O       0.8043411574    -1.1749688598    -2.1825297679
   16      O       0.1367961757    -0.7855477216    -1.1590015233
 ----------------------------------------------------------------
 Nuclear Repulsion Energy =         449.61242010 hartrees
 There are       34 alpha and       33 beta electrons
 Discretize the solute cavity surface with Lebedev spheres
	Using 110 Lebedev grid points for each H atom
	Using 194 Lebedev grid points for other atoms
	Atomic van der Waals radii will be scaled by 1.20
 Remove points where switching function is < 1.0e-08
 Keep 1220 surface tesserae and discard 1296 interior tesserae
 Molecular Surface Area = 145.147 Angst**2
 Applying Cartesian multipole field
    Component          Value
    ---------          -----
     (2,0,0)        1.00000E-11
     (0,2,0)        2.00000E-11
     (0,0,2)       -3.00000E-11
 Nucleus-field energy     =    -0.0000000011 hartrees
 Requested basis set is 6-311++G(2df,2p)
 There are 114 shells and 376 basis functions
 A cutoff of  1.0D-12 yielded   6049 shell pairs
 There are     66509 function pairs (     83398 Cartesian)
 Smallest overlap matrix eigenvalue = 2.32E-06
 Guess from superposition of atomic densities
 Warning:  Energy on first SCF cycle will be non-variational
 SAD guess density has 67.000000 electrons

 -----------------------------------------------------------------------
  General SCF calculation program by
  Eric Jon Sundstrom, Paul Horn, Yuezhi Mao, Dmitri Zuev, Alec White,
  David Stuck, Shaama M.S., Shane Yost, Joonho Lee, David Small,
  Daniel Levine, Susi Lehtola, Hugh Burton, Evgeny Epifanovsky,
  Bang C. Huynh
 -----------------------------------------------------------------------
 Exchange:     0.1500 Hartree-Fock + 1.0000 wB97M-V + LR-HF
 Correlation:  1.0000 wB97M-V
 Using SG-2 standard quadrature grid
 Nonlocal Correlation:  VV10 with C = 0.0100 and b = 6.00 and scale = 1.00000
 Grid used for NLC:  SG-1 standard quadrature
 
 Citation of the SMD model:
 Marenich, A.V.; Cramer, C.J.; Truhlar, D.G.
 J. Phys. Chem. B 2009, 113, 6378-6396.
 iSolventCode=           1
 Solvent: water                                                           
 
 vradii
            1           2           3           4           5           6
    1   1.2000000   1.8500000   1.8500000   1.2000000   1.8500000   1.2000000
            7           8           9          10          11          12
    1   1.8500000   1.2000000   1.8500000   1.2000000   1.8500000   1.2000000
           13          14          15          16
    1   1.5200000   1.2000000   1.5200000   1.5200000
 -------------------------------------------------------
 OpenMP BLAS3 based DFT computing Module                
 Release: version 1.0, May 2013, Q-Chem Inc. Pittsburgh 
 -------------------------------------------------------
 A unrestricted SCF calculation will be
 performed using DIIS, GDM
 SCF converges when RMS gradient is below 1.0e-07
 ---------------------------------------
  Cycle       Energy         DIIS error
 ---------------------------------------
    1    -460.7424986346      1.30e-02  
    2    -458.2392448028      1.34e-03  Done DIIS. Switching to GDM
 ---------------------------------------
  Cycle       Energy        RMS Gradient
 ---------------------------------------
    1    -458.2392448028      1.06e-01   Descent step
    2    -458.3340401920      2.43e-02   Normal BFGS step
    3    -458.3475628484      3.06e-02   Normal BFGS step
    4    -458.3510825539      5.01e-03   Normal BFGS step
    5    -458.3517483458      4.54e-03   Normal BFGS step
    6    -458.3519267952      2.50e-03   Normal BFGS step
    7    -458.3519834316      1.34e-03   Normal BFGS step
    8    -458.3519970317      3.62e-04   Normal BFGS step
    9    -458.3519988621      2.51e-04   Normal BFGS step
   10    -458.3519991545      6.29e-05   Normal BFGS step
   11    -458.3519992057      5.41e-05   Normal BFGS step
   12    -458.3519992160      4.82e-05   Normal BFGS step
   13    -458.3519992239      3.60e-05   Normal BFGS step
   14    -458.3519992289      2.07e-05   Normal BFGS step
   15    -458.3519992309      1.01e-05   Normal BFGS step
   16    -458.3519992317      6.25e-06   Normal BFGS step
   17    -458.3519992320      4.50e-06   Normal BFGS step
   18    -458.3519992322      2.90e-06   Normal BFGS step
   19    -458.3519992323      1.20e-06   Normal BFGS step
   20    -458.3519992323      5.17e-07   Normal BFGS step
   21    -458.3519992323      1.99e-07   Normal BFGS step
   22    -458.3519992323      6.73e-08  Convergence criterion met
 ---------------------------------------
 SCF time:   CPU 2669.36s  wall 101.00s 
<S^2> =          0.753982547
(3)  G-ENP(liq) elect-nuc-pol free energy of system     -458.351999232 a.u.
(4)  G-CDS(liq) cavity-dispersion-solvent structure 
     free energy                                                2.5555 kcal/mol
(6)  G-S(liq) free energy of system                     -458.347926825 a.u.
 SCF   energy in the final basis set =     -458.3479268252
 Total energy in the final basis set =     -458.3479268252
 
 --------------------------------------------------------------
 
                    Orbital Energies (a.u.)
 --------------------------------------------------------------
 
 Alpha MOs
 -- Occupied --
-19.4647 -19.4138 -19.3456 -10.4111 -10.4069 -10.3560 -10.3482 -10.3460
-10.3431  -1.3543  -1.1656  -1.0258  -0.9578  -0.8777  -0.8593  -0.7481
 -0.7274  -0.6700  -0.6506  -0.6281  -0.6197  -0.5944  -0.5734  -0.5543
 -0.5335  -0.5198  -0.4973  -0.4638  -0.4375  -0.4280  -0.4025  -0.3951
 -0.3851  -0.3381
 -- Virtual --
  0.0199   0.0273   0.0369   0.0405   0.0547   0.0578   0.0600   0.0823
  0.0983   0.1087   0.1121   0.1216   0.1331   0.1372   0.1450   0.1519
  0.1545   0.1568   0.1615   0.1640   0.1659   0.1723   0.1761   0.1834
  0.1893   0.1952   0.2029   0.2100   0.2129   0.2243   0.2289   0.2401
  0.2471   0.2510   0.2663   0.2812   0.2832   0.2909   0.2968   0.3051
  0.3155   0.3220   0.3305   0.3371   0.3544   0.3580   0.3657   0.3696
  0.3822   0.3883   0.3926   0.3981   0.4059   0.4132   0.4290   0.4324
  0.4431   0.4560   0.4767   0.5152   0.5331   0.5363   0.5609   0.5809
  0.5938   0.5955   0.6105   0.6241   0.6320   0.6401   0.6454   0.6529
  0.6825   0.6878   0.6964   0.7104   0.7191   0.7199   0.7389   0.7489
  0.7568   0.7747   0.7860   0.7954   0.8092   0.8152   0.8195   0.8374
  0.8419   0.8519   0.8836   0.8947   0.9004   0.9081   0.9358   0.9611
  0.9928   1.0233   1.0434   1.0660   1.0847   1.0946   1.1067   1.1310
  1.1455   1.1602   1.1723   1.1759   1.1916   1.1970   1.2175   1.2239
  1.2272   1.2421   1.2518   1.2579   1.2745   1.2821   1.3079   1.3207
  1.3372   1.3532   1.3565   1.3784   1.3857   1.3923   1.4140   1.4301
  1.4379   1.4539   1.4589   1.4677   1.4946   1.5205   1.5281   1.5519
  1.5561   1.5662   1.5700   1.5921   1.6107   1.6270   1.6432   1.6553
  1.6757   1.6845   1.7126   1.7440   1.7744   1.7926   1.8097   1.8268
  1.8546   1.9054   1.9378   1.9635   1.9963   2.0108   2.0466   2.0684
  2.1487   2.1765   2.2435   2.2488   2.3036   2.3256   2.3661   2.4043
  2.4323   2.5733   2.6061   2.6449   2.6663   2.6746   2.7275   2.7315
  2.7661   2.7873   2.8169   2.8318   2.8416   2.8531   2.8655   2.8727
  2.8881   2.9076   2.9403   2.9520   2.9622   2.9743   2.9816   2.9892
  3.0186   3.0431   3.0688   3.0973   3.1157   3.1613   3.1780   3.2119
  3.2347   3.2561   3.2635   3.2799   3.3140   3.3328   3.3426   3.3725
  3.3904   3.3973   3.4274   3.4405   3.4543   3.4684   3.4868   3.5012
  3.5181   3.5337   3.5407   3.5704   3.5857   3.6111   3.6432   3.6855
  3.7085   3.7277   3.7344   3.7542   3.7649   3.7766   3.7890   3.8193
  3.8478   3.8660   3.8748   3.8916   3.9036   3.9130   3.9358   3.9542
  3.9623   3.9979   4.0263   4.0559   4.0790   4.0955   4.1257   4.1658
  4.1885   4.2062   4.2148   4.2582   4.2924   4.2934   4.3330   4.3489
  4.3672   4.3784   4.4155   4.4179   4.4557   4.4979   4.5164   4.5637
  4.5742   4.5973   4.6395   4.6471   4.6737   4.7231   4.7366   4.7535
  4.7893   4.8126   4.8620   4.8900   4.9478   4.9992   5.0044   5.0302
  5.0339   5.0675   5.0915   5.0941   5.1086   5.1719   5.2020   5.2491
  5.2589   5.2849   5.3004   5.3404   5.3668   5.3796   5.3937   5.4570
  5.4679   5.5035   5.5298   5.5683   5.6329   5.6749   5.6769   5.7038
  5.7294   5.8073   5.8186   5.9299   5.9487   6.0169   6.1212   6.2868
  6.4108   6.5554   6.6216   6.6842   6.8353   6.8962   6.9898   7.0975
  7.1122   7.2318   7.2704   7.3245   7.3366   7.3894   7.4109   7.4532
  7.6763   7.8001   7.8319   8.0532   8.1488  24.2586  24.5198  24.6992
 24.7685  25.1982  25.4329  50.4554  50.5496  50.6195
 
 Beta MOs
 -- Occupied --
-19.4539 -19.3954 -19.3456 -10.4115 -10.4066 -10.3560 -10.3482 -10.3460
-10.3431  -1.3277  -1.1655  -1.0066  -0.9465  -0.8760  -0.8512  -0.7429
 -0.7266  -0.6610  -0.6420  -0.6094  -0.5944  -0.5886  -0.5615  -0.5420
 -0.5323  -0.4990  -0.4952  -0.4620  -0.4358  -0.4179  -0.3943  -0.3828
 -0.3376
 -- Virtual --
 -0.0271   0.0207   0.0276   0.0373   0.0405   0.0550   0.0583   0.0601
  0.0827   0.0990   0.1093   0.1126   0.1223   0.1336   0.1376   0.1459
  0.1521   0.1547   0.1573   0.1618   0.1645   0.1670   0.1727   0.1763
  0.1845   0.1907   0.1954   0.2040   0.2107   0.2135   0.2253   0.2295
  0.2407   0.2479   0.2521   0.2696   0.2824   0.2896   0.2942   0.3004
  0.3061   0.3180   0.3223   0.3320   0.3393   0.3561   0.3618   0.3667
  0.3706   0.3829   0.3898   0.3945   0.3986   0.4067   0.4139   0.4305
  0.4346   0.4437   0.4567   0.4782   0.5155   0.5333   0.5365   0.5620
  0.5810   0.5940   0.5960   0.6109   0.6244   0.6323   0.6404   0.6457
  0.6533   0.6829   0.6880   0.6964   0.7107   0.7199   0.7207   0.7389
  0.7491   0.7568   0.7755   0.7861   0.7959   0.8099   0.8154   0.8200
  0.8379   0.8419   0.8520   0.8843   0.8953   0.9008   0.9082   0.9360
  0.9633   0.9945   1.0254   1.0454   1.0696   1.0868   1.0964   1.1083
  1.1318   1.1507   1.1621   1.1751   1.1805   1.1971   1.2154   1.2213
  1.2296   1.2377   1.2519   1.2544   1.2599   1.2769   1.2837   1.3098
  1.3228   1.3395   1.3554   1.3571   1.3798   1.3861   1.3929   1.4162
  1.4313   1.4388   1.4562   1.4603   1.4730   1.4964   1.5240   1.5292
  1.5529   1.5605   1.5683   1.5753   1.5934   1.6157   1.6342   1.6538
  1.6630   1.6851   1.6929   1.7263   1.7483   1.7752   1.7943   1.8123
  1.8292   1.8587   1.9171   1.9390   1.9699   1.9999   2.0127   2.0484
  2.0692   2.1531   2.1833   2.2508   2.2545   2.3146   2.3306   2.3791
  2.4091   2.4362   2.5738   2.6068   2.6486   2.6683   2.6769   2.7280
  2.7343   2.7667   2.7878   2.8169   2.8319   2.8419   2.8532   2.8655
  2.8733   2.8887   2.9078   2.9407   2.9521   2.9625   2.9747   2.9818
  2.9899   3.0187   3.0435   3.0696   3.0981   3.1164   3.1615   3.1787
  3.2122   3.2350   3.2565   3.2637   3.2800   3.3143   3.3329   3.3431
  3.3726   3.3905   3.3975   3.4276   3.4410   3.4545   3.4689   3.4873
  3.5015   3.5184   3.5339   3.5410   3.5708   3.5863   3.6113   3.6434
  3.6858   3.7092   3.7284   3.7346   3.7550   3.7650   3.7769   3.7892
  3.8198   3.8481   3.8661   3.8748   3.8918   3.9043   3.9132   3.9363
  3.9548   3.9625   3.9982   4.0268   4.0565   4.0794   4.0958   4.1263
  4.1661   4.1892   4.2064   4.2152   4.2585   4.2935   4.2939   4.3343
[...]
      1 H                     0.308714      -0.000189
      2 C                     0.022891      -0.004407
      3 C                    -0.609833       0.030447
      4 H                     0.267744      -0.002873
      5 C                     0.330552      -0.037833
      6 H                     0.331614       0.002147
      7 C                    -0.583063       0.543023
      8 H                     0.275875      -0.007271
      9 C                    -0.021207      -0.000812
     10 H                     0.257757       0.006940
     11 C                    -0.400845       0.012517
     12 H                     0.271834      -0.000870
     13 O                    -0.416050       0.020436
     14 H                     0.349624      -0.000203
     15 O                    -0.278005       0.416268
     16 O                    -0.107603       0.022679
  --------------------------------------------------------
  Sum of atomic charges =    -0.000000
  Sum of spin   charges =     1.000000

 -----------------------------------------------------------------
                    Cartesian Multipole Moments
 -----------------------------------------------------------------
    Charge (ESU x 10^10)
                -0.0000
    Dipole Moment (Debye)
         X      -1.1662      Y       4.8725      Z      -0.3313
       Tot       5.0210
    Quadrupole Moments (Debye-Ang)
        XX     -45.8018     XY      -9.1135     YY     -52.3621
        XZ       0.4990     YZ     -11.8739     ZZ     -43.5919
    Octopole Moments (Debye-Ang^2)
       XXX      68.7080    XXY     -41.7445    XYY      18.1627
       YYY    -143.4394    XXZ      46.7968    XYZ      10.9625
       YYZ      20.8715    XZZ      24.7845    YZZ     -14.2876
       ZZZ     118.6964
    Hexadecapole Moments (Debye-Ang^3)
      XXXX    -395.4967   XXXY      21.2036   XXYY    -211.0027
      XYYY      30.3125   YYYY    -668.1744   XXXZ     -51.9434
      XXYZ      48.0964   XYYZ      -3.6562   YYYZ      55.6018
      XXZZ    -165.5794   XYZZ      -6.4961   YYZZ    -132.5987
      XZZZ     -53.0831   YZZZ      74.6553   ZZZZ    -516.2942
 -----------------------------------------------------------------
 Calculating analytic gradient of the SCF energy
 Gradient of CDS energy
            1           2           3           4           5           6
    1   0.0001271   0.0003199  -0.0001726  -0.0000942  -0.0003436  -0.0002002
    2  -0.0000078  -0.0000052   0.0000577   0.0000240  -0.0000923  -0.0000783
    3   0.0001547   0.0002996   0.0004166   0.0001793  -0.0000699   0.0000009
            7           8           9          10          11          12
    1  -0.0002167  -0.0001136   0.0003223   0.0000372   0.0001017   0.0002110
    2   0.0000871   0.0000346   0.0001457  -0.0001300  -0.0001928  -0.0000321
    3  -0.0002540  -0.0001550  -0.0000170  -0.0001726  -0.0002096  -0.0000454
           13          14          15          16
    1  -0.0000775   0.0001125   0.0000863  -0.0000997
    2  -0.0002770   0.0004841  -0.0000287   0.0000109
    3   0.0000635  -0.0001502  -0.0000093  -0.0000316
 Gradient of SCF Energy
            1           2           3           4           5           6
    1   0.0032169  -0.0026874   0.0078971  -0.0039018   0.0031308  -0.0088472
    2  -0.0000080   0.0080933  -0.0044260   0.0009832   0.0032992   0.0007751
    3   0.0040159  -0.0033094  -0.0038690   0.0065945   0.0033179   0.0009659
            7           8           9          10          11          12
    1   0.0081061  -0.0064577  -0.0012121   0.0019712  -0.0065841   0.0035034
    2  -0.0045427   0.0033998   0.0067861   0.0004857  -0.0111440   0.0001859
    3   0.0029030  -0.0093155   0.0103461  -0.0072346  -0.0042793  -0.0003193
           13          14          15          16
    1   0.0075515  -0.0066293  -0.0023974   0.0033401
    2  -0.0076184   0.0092270  -0.0023951  -0.0031012
    3   0.0144538  -0.0127737   0.0002343  -0.0017306
 Max gradient component =       1.445E-02
 RMS gradient           =       5.905E-03
 Computing fast CPCM-SWIG gradient
 Updating gradient with PCM contributions...
 -- total gradient after adding PCM contribution --
---------------------------------------------------
  Atom         X              Y              Z     
---------------------------------------------------
   1       0.000003      -0.000024      -0.000008
   2      -0.000003      -0.000014       0.000034
   3      -0.000008       0.000019       0.000020
   4       0.000010      -0.000017      -0.000005
   5       0.000007       0.000014       0.000046
   6      -0.000007       0.000004      -0.000003
   7       0.000048       0.000024      -0.000041
   8      -0.000005      -0.000034      -0.000007
   9      -0.000004      -0.000033       0.000005
  10       0.000002       0.000029      -0.000011
  11      -0.000052      -0.000032      -0.000105
  12       0.000006      -0.000007      -0.000015
  13      -0.000009       0.000002       0.000043
  14       0.000029      -0.000009      -0.000007
  15      -0.000185       0.000028       0.000026
  16       0.000167       0.000049       0.000027
---------------------------------------------------
 Number of fixed atoms: 0
 Gradient time:  CPU 369.94 s  wall 16.81 s
 Geometry Optimization Parameters
   NAtoms,    NIC,     NZ,  NCons,   NDum,   NFix, NCnnct, MaxDiis
       16     126       0       0       0       0       0       0

 Cartesian Hessian Update
 Hessian updated using Powell/Murtagh-Sargent update
  Mixing factors:     0.938377 Powell                      0.061623 Murtagh-Sargent


** GEOMETRY OPTIMIZATION IN DELOCALIZED INTERNAL COORDINATES **
   Searching for a Transition State

   Optimization Cycle:  30

                       Coordinates (Angstroms)
     ATOM                X               Y               Z
      1  H         0.7534248228    0.9034539402    1.3459088848
      2  C         0.0682695076    0.9454745479    0.5121185093
      3  C        -1.2422623766    1.1401152181    0.6425567871
      4  H        -1.7413625716    1.2675558995    1.5927027980
      5  C        -2.0365082034    1.1191022975   -0.5873451834
      6  H        -3.1021206744    0.9519617558   -0.5086360132
      7  C        -1.5170291844    1.6420497003   -1.7578919763
      8  H        -2.1452686391    1.8336323475   -2.6152047688
      9  C        -0.0243235908    1.6760297975   -1.8725919115
     10  H         0.2718178106    1.3661649325   -2.8765923362
     11  C         0.5221279785    0.6522667760   -0.8750731830
     12  H         1.5982099529    0.5406245019   -0.9702281965
     13  O         0.5448587517    2.9471277789   -1.5576857275
     14  H         0.2263201666    3.5834311075   -2.2076736033
     15  O        -1.4155564657   -0.6835180195   -1.1957196368
     16  O        -0.0057711625   -0.6391799304   -1.2998913782
   Point Group: c1    Number of degrees of freedom:    42


   Energy is   -458.310889672

 Hessian updated using Powell/Murtagh-Sargent update
  Mixing factors:     0.954885 Powell                      0.045115 Murtagh-Sargent

 42 Hessian modes will be used to form the next step
  Hessian Eigenvalues:
    -0.031852    0.003646    0.011464    0.012532    0.013240    0.016669
     0.019553    0.022211    0.024883    0.044880    0.049865    0.060381
     0.070274    0.075049    0.077371    0.088386    0.101702    0.109620
     0.135495    0.143950    0.156174    0.157243    0.159682    0.160255
     0.173107    0.196151    0.271911    0.295219    0.313944    0.329789
     0.336323    0.339927    0.340914    0.344260    0.347671    0.355103
     0.355516    0.403005    0.415376    0.442713    0.550315    0.575174

 Transition state search - taking P-RFO step
 Searching for Lamda that Maximizes Along the Lowest mode
 Value Taken    Lamda =   0.00000002
 Searching for Lamda that Minimizes Along All other modes
 Value Taken    Lamda =  -0.00000057
 Step Taken.  Stepsize is  0.008925

                             Maximum     Tolerance    Cnvgd?
         Gradient           0.000105      0.000300     YES
         Displacement       0.004333      0.001200      NO
         Energy change     -0.000001      0.000001     YES

 Final energy is   -458.310889671752     


 ******************************
 **  OPTIMIZATION CONVERGED  **
 ******************************

                       Coordinates (Angstroms)
     ATOM                X               Y               Z
      1  H         0.7534248228    0.9034539402    1.3459088848
      2  C         0.0682695076    0.9454745479    0.5121185093
      3  C        -1.2422623766    1.1401152181    0.6425567871
      4  H        -1.7413625716    1.2675558995    1.5927027980
      5  C        -2.0365082034    1.1191022975   -0.5873451834
      6  H        -3.1021206744    0.9519617558   -0.5086360132
      7  C        -1.5170291844    1.6420497003   -1.7578919763
      8  H        -2.1452686391    1.8336323475   -2.6152047688
      9  C        -0.0243235908    1.6760297975   -1.8725919115
     10  H         0.2718178106    1.3661649325   -2.8765923362
     11  C         0.5221279785    0.6522667760   -0.8750731830
     12  H         1.5982099529    0.5406245019   -0.9702281965
     13  O         0.5448587517    2.9471277789   -1.5576857275
     14  H         0.2263201666    3.5834311075   -2.2076736033
     15  O        -1.4155564657   -0.6835180195   -1.1957196368
     16  O        -0.0057711625   -0.6391799304   -1.2998913782

Z-matrix Print:
$molecule
0 2
O 
O  1 1.414324
C  1 1.458418 2 111.537552
H  3 1.086034 1 104.010475 2 178.100292 0
C  3 1.488711 1 109.601548 2 56.039546 0
H  5 1.080005 3 121.218815 1 107.792568 0
C  5 1.331312 3 114.847161 1 -66.615981 0
H  7 1.080796 5 123.914426 3 173.854071 0
C  7 1.464215 5 116.716385 3 -3.483441 0
H  9 1.081509 7 118.395291 5 160.490860 0
C  9 1.383298 7 120.109560 5 -36.288677 0
H  11 1.079988 9 121.354880 7 -166.643004 0
C  11 1.497491 9 116.598092 7 24.955504 0
H  13 1.091665 11 109.536725 9 137.680781 0
O  13 1.427874 11 113.619182 9 -98.438512 0
H  15 0.963760 13 107.893445 11 -63.729075 0
$end

 
 --------------------------------------------------------------
 
                    Orbital Energies (a.u.)
 --------------------------------------------------------------
 
 Alpha MOs
 -- Occupied --
-19.3966 -19.3846 -19.3473 -10.4059 -10.4057 -10.3980 -10.3723 -10.3561
-10.3521  -1.2496  -1.1671  -1.0076  -0.9862  -0.8880  -0.8460  -0.7492
 -0.7321  -0.6577  -0.6552  -0.5963  -0.5911  -0.5843  -0.5603  -0.5527
 -0.5232  -0.5026  -0.5015  -0.4650  -0.4586  -0.4319  -0.4017  -0.3843
 -0.3497  -0.3150
 -- Virtual --
  0.0160   0.0260   0.0377   0.0384   0.0507   0.0578   0.0609   0.0796
  0.0949   0.1024   0.1075   0.1169   0.1333   0.1365   0.1424   0.1436
  0.1491   0.1540   0.1591   0.1600   0.1642   0.1655   0.1676   0.1798
  0.1810   0.1902   0.1958   0.1986   0.2048   0.2164   0.2267   0.2309
  0.2432   0.2535   0.2702   0.2857   0.2914   0.2919   0.3055   0.3081
  0.3258   0.3345   0.3442   0.3521   0.3604   0.3647   0.3716   0.3775
  0.3843   0.3889   0.3966   0.4028   0.4049   0.4107   0.4187   0.4383
  0.4551   0.4695   0.5004   0.5131   0.5169   0.5251   0.5455   0.5730
  0.5834   0.5936   0.6016   0.6121   0.6280   0.6363   0.6464   0.6574
  0.6698   0.6819   0.6919   0.7039   0.7164   0.7214   0.7282   0.7353
  0.7614   0.7734   0.7846   0.7904   0.8067   0.8162   0.8267   0.8403
  0.8469   0.8734   0.8916   0.9037   0.9125   0.9330   0.9459   0.9857
  0.9971   1.0493   1.0693   1.0853   1.1033   1.1206   1.1287   1.1369
  1.1487   1.1764   1.1876   1.1999   1.2141   1.2234   1.2376   1.2428
  1.2512   1.2652   1.2698   1.2794   1.3046   1.3188   1.3231   1.3302
  1.3389   1.3622   1.3694   1.3832   1.3890   1.3983   1.4194   1.4299
  1.4495   1.4535   1.4725   1.4989   1.5113   1.5356   1.5394   1.5436
  1.5555   1.5754   1.5838   1.6182   1.6277   1.6372   1.6553   1.6640
  1.7104   1.7350   1.7496   1.7657   1.7894   1.8038   1.8375   1.8567
  1.8924   1.9179   1.9485   1.9625   1.9841   2.0108   2.0446   2.0636
  2.1286   2.1436   2.2332   2.2459   2.3051   2.3264   2.3803   2.4298
  2.4458   2.5974   2.6386   2.6537   2.6827   2.7213   2.7346   2.7584
  2.7887   2.7941   2.8144   2.8242   2.8395   2.8576   2.8837   2.8863
  2.9114   2.9271   2.9423   2.9462   2.9757   2.9809   2.9996   3.0152
  3.0567   3.0640   3.0858   3.1255   3.1364   3.1519   3.1880   3.2244
  3.2552   3.2786   3.2963   3.3220   3.3522   3.3615   3.3898   3.4018
  3.4108   3.4227   3.4277   3.4380   3.4670   3.4899   3.4993   3.5083
  3.5202   3.5442   3.5621   3.5895   3.6182   3.6363   3.6535   3.6733
  3.6832   3.7094   3.7406   3.7445   3.7669   3.7726   3.7925   3.7936
  3.8217   3.8465   3.8803   3.8900   3.9117   3.9187   3.9402   3.9593
  3.9920   4.0193   4.0461   4.0724   4.0816   4.1045   4.1313   4.1610
  4.2066   4.2217   4.2537   4.2719   4.2916   4.3240   4.3404   4.3649
  4.3866   4.4205   4.4298   4.4602   4.4854   4.5063   4.5119   4.5456
  4.5654   4.5692   4.6157   4.6697   4.6778   4.6843   4.7182   4.7335
  4.7755   4.7970   4.8187   4.8343   4.9177   4.9435   4.9996   5.0431
  5.0818   5.1334   5.1766   5.2204   5.2505   5.2771   5.2847   5.2927
  5.3022   5.3247   5.3367   5.3564   5.3891   5.4174   5.4384   5.4766
  5.4924   5.5305   5.5648   5.6136   5.6416   5.6666   5.6781   5.7029
  5.7194   5.8050   5.8377   5.8838   5.9375   5.9548   6.0471   6.1434
  6.1627   6.3237   6.5599   6.6307   6.9256   6.9768   7.0536   7.1176
  7.1407   7.3122   7.3175   7.3240   7.3891   7.4134   7.4790   7.4939
  7.6919   7.8135   7.8584   7.9112   8.1838  24.3604  24.5610  24.7444
 24.7917  25.0425  25.2649  50.5123  50.6113  50.6317
 
 Beta MOs
 -- Occupied --
-19.3961 -19.3709 -19.3462 -10.4061 -10.4056 -10.3982 -10.3643 -10.3557
-10.3520  -1.2390  -1.1644  -0.9919  -0.9794  -0.8804  -0.8408  -0.7455
 -0.7263  -0.6547  -0.6496  -0.5931  -0.5844  -0.5744  -0.5535  -0.5487
 -0.5187  -0.4970  -0.4872  -0.4610  -0.4342  -0.4238  -0.3936  -0.3611
 -0.3345
 -- Virtual --
 -0.0400   0.0231   0.0302   0.0381   0.0383   0.0530   0.0578   0.0616
  0.0800   0.0963   0.1037   0.1096   0.1190   0.1341   0.1366   0.1424
  0.1447   0.1501   0.1553   0.1594   0.1609   0.1653   0.1663   0.1688
  0.1808   0.1839   0.1913   0.1965   0.1989   0.2042   0.2171   0.2268
  0.2310   0.2425   0.2545   0.2735   0.2874   0.2930   0.2938   0.3083
  0.3088   0.3263   0.3350   0.3458   0.3531   0.3621   0.3680   0.3725
  0.3779   0.3849   0.3899   0.3978   0.4035   0.4065   0.4127   0.4202
  0.4413   0.4566   0.4701   0.5011   0.5138   0.5194   0.5263   0.5470
  0.5767   0.5845   0.5981   0.6041   0.6162   0.6313   0.6405   0.6490
  0.6604   0.6722   0.6855   0.6935   0.7062   0.7174   0.7224   0.7300
  0.7394   0.7644   0.7743   0.7874   0.7937   0.8095   0.8187   0.8318
  0.8441   0.8479   0.8746   0.8930   0.9039   0.9137   0.9352   0.9505
  0.9865   0.9997   1.0492   1.0712   1.0864   1.1072   1.1227   1.1308
  1.1395   1.1502   1.1793   1.1891   1.2023   1.2171   1.2245   1.2413
  1.2461   1.2535   1.2678   1.2723   1.2818   1.3061   1.3216   1.3306
  1.3343   1.3436   1.3669   1.3742   1.3856   1.3914   1.4003   1.4219
  1.4330   1.4516   1.4568   1.4770   1.5044   1.5151   1.5375   1.5408
  1.5452   1.5590   1.5778   1.5877   1.6208   1.6295   1.6412   1.6584
  1.6683   1.7127   1.7421   1.7576   1.7696   1.7932   1.8096   1.8409
  1.8599   1.8964   1.9242   1.9520   1.9678   1.9895   2.0153   2.0523
  2.0692   2.1359   2.1465   2.2376   2.2492   2.3072   2.3307   2.3826
  2.4348   2.4476   2.6010   2.6471   2.6592   2.6885   2.7252   2.7385
  2.7616   2.7936   2.8020   2.8196   2.8268   2.8444   2.8665   2.8892
  2.8960   2.9211   2.9376   2.9491   2.9650   2.9813   2.9898   3.0063
  3.0230   3.0640   3.0667   3.0943   3.1328   3.1420   3.1612   3.1908
  3.2269   3.2609   3.2864   3.3017   3.3302   3.3596   3.3679   3.3939
  3.4043   3.4228   3.4322   3.4386   3.4462   3.4695   3.4924   3.5039
  3.5143   3.5297   3.5531   3.5682   3.5974   3.6281   3.6405   3.6580
  3.6800   3.6948   3.7132   3.7446   3.7517   3.7712   3.7854   3.7949
  3.7998   3.8241   3.8484   3.8853   3.8946   3.9172   3.9239   3.9462
  3.9651   3.9961   4.0271   4.0535   4.0770   4.0867   4.1120   4.1347
  4.1636   4.2122   4.2252   4.2594   4.2802   4.2954   4.3292   4.3448
  4.3692   4.3899   4.4248   4.4384   4.4656   4.4929   4.5151   4.5228
  4.5528   4.5698   4.5731   4.6227   4.6759   4.6862   4.6895   4.7232
  4.7393   4.7827   4.8013   4.8245   4.8430   4.9294   4.9497   5.0108
  5.0545   5.0977   5.1506   5.1867   5.2423   5.2703   5.2915   5.2978
  5.3026   5.3173   5.3290   5.3411   5.3682   5.3995   5.4464   5.4570
  5.4845   5.5031   5.5389   5.5692   5.6304   5.6456   5.6735   5.6795
  5.7065   5.7269   5.8103   5.8413   5.8971   5.9412   5.9631   6.0498
  6.1524   6.1691   6.3367   6.5622   6.6343   6.9381   6.9907   7.1072
  7.1205   7.1777   7.3156   7.3246   7.3627   7.3938   7.4206   7.4872
  7.5142   7.6948   7.8206   7.8676   7.9219   8.1911  24.3613  24.5637
 24.7449  24.7919  25.0466  25.2654  50.5228  50.6118  50.6326
 --------------------------------------------------------------
 
          Ground-State Mulliken Net Atomic Charges

     Atom                 Charge (a.u.)    Spin (a.u.)
  --------------------------------------------------------
      1 H                     0.308714      -0.000189
      2 C                     0.022891      -0.004407
      3 C                    -0.609833       0.030447
      4 H                     0.267744      -0.002873
      5 C                     0.330552      -0.037833
      6 H                     0.331614       0.002147
      7 C                    -0.583063       0.543023
      8 H                     0.275875      -0.007271
      9 C                    -0.021207      -0.000812
     10 H                     0.257757       0.006940
     11 C                    -0.400845       0.012517
     12 H                     0.271834      -0.000870
     13 O                    -0.416050       0.020436
     14 H                     0.349624      -0.000203
     15 O                    -0.278005       0.416268
     16 O                    -0.107603       0.022679
  --------------------------------------------------------
  Sum of atomic charges =    -0.000000
  Sum of spin   charges =     1.000000

 -----------------------------------------------------------------
                    Cartesian Multipole Moments
 -----------------------------------------------------------------
    Charge (ESU x 10^10)
                -0.0000
    Dipole Moment (Debye)
         X      -1.1662      Y       4.8725      Z      -0.3313
       Tot       5.0210
    Quadrupole Moments (Debye-Ang)
        XX     -45.8018     XY      -9.1135     YY     -52.3621
        XZ       0.4990     YZ     -11.8739     ZZ     -43.5919
    Octopole Moments (Debye-Ang^2)
       XXX      68.7080    XXY     -41.7445    XYY      18.1627
       YYY    -143.4394    XXZ      46.7968    XYZ      10.9625
       YYZ      20.8715    XZZ      24.7845    YZZ     -14.2876
       ZZZ     118.6964
    Hexadecapole Moments (Debye-Ang^3)
      XXXX    -395.4967   XXXY      21.2036   XXYY    -211.0027
      XYYY      30.3125   YYYY    -668.1744   XXXZ     -51.9434
      XXYZ      48.0964   XYYZ      -3.6562   YYYZ      55.6018
      XXZZ    -165.5794   XYZZ      -6.4961   YYZZ    -132.5987
      XZZZ     -53.0831   YZZZ      74.6553   ZZZZ    -516.2942
 -----------------------------------------------------------------
 Total job time:  3667.67s(wall), 96267.65s(cpu) 
 Fri Jul 12 12:55:21 2024

        *************************************************************
        *                                                           *
        *  Thank you very much for using Q-Chem.  Have a nice day.  *
        *                                                           *
        *************************************************************


