
Running Job 1 of 1 Q_in.in
qchem Q_in.in_53515.0 /scratch/ari.fischer/qChem2187298.hpc-mn1/qchem53515/ 0
/usr/local/qchem-5.4.1/exe/qcprog.exe_s Q_in.in_53515.0 /scratch/ari.fischer/qChem2187298.hpc-mn1/qchem53515/
                  Welcome to Q-Chem
     A Quantum Leap Into The Future Of Chemistry


 Q-Chem 5.4, Q-Chem, Inc., Pleasanton, CA (2021)

 License issued to: Nanyang Technological University (site)

 E. Epifanovsky,  A. T. B. Gilbert,  Xintian Feng,  Joonho Lee,  Yuezhi Mao,  
 N. Mardirossian,  P. Pokhilko,  A. White,  M. Wormit,  M. P. Coons,  
 A. L. Dempwolff,  Zhengting Gan,  D. Hait,  P. R. Horn,  L. D. Jacobson,  
 I. Kaliman,  J. Kussmann,  A. W. Lange,  Ka Un Lao,  D. S. Levine,  Jie Liu,  
 S. C. McKenzie,  A. F. Morrison,  K. Nanda,  F. Plasser,  D. R. Rehn,  
 M. L. Vidal,  Zhi-Qiang You,  Ying Zhu,  B. Alam,  B. Albrecht,  
 A. Aldossary,  E. Alguire,  J. H. Andersen,  D. Barton,  K. Begam,  A. Behn,  
 Y. A. Bernard,  E. J. Berquist,  H. Burton,  A. Carreras,  K. Carter-Fenk,  
 R. Chakraborty,  A. D. Chien,  K. D. Closser,  V. Cofer-Shabica,  
 S. Dasgupta,  Jia Deng,  M. de Wergifosse,  M. Diedenhofen,  Hainam Do,  
 S. Ehlert,  Po-Tung Fang,  S. Fatehi,  Qingguo Feng,  T. Friedhoff,  
 J. Gayvert,  Qinghui Ge,  G. Gidofalvi,  M. Goldey,  J. Gomes,  
 C. Gonzalez-Espinoza,  S. Gulania,  A. Gunina,  M. W. D. Hanson-Heine,  
 P. H. P. Harbach,  A. W. Hauser,  M. F. Herbst,  M. Hernandez Vera,  
 M. Hodecker,  Z. C. Holden,  S. Houck,  Xunkun Huang,  Kerwin Hui,  
 B. C. Huynh,  M. Ivanov,  Hyunjun Ji,  Hanjie Jiang,  B. Kaduk,  S. Kaehler,  
 K. Khistyaev,  Jaehoon Kim,  P. Klunzinger,  Z. Koczor-Benda,  
 Joong Hoon Koh,  D. Kosenkov,  L. Koulias,  T. Kowalczyk,  C. M. Krauter,  
 K. Kue,  A. Kunitsa,  T. Kus,  A. Landau,  K. V. Lawler,  D. Lefrancois,  
 S. Lehtola,  Rain Li,  Yi-Pei Li,  Jiashu Liang,  M. Liebenthal,  
 Hung-Hsuan Lin,  You-Sheng Lin,  Fenglai Liu,  Kuan-Yu Liu,  
 M. Loipersberger,  A. Luenser,  A. Manjanath,  P. Manohar,  E. Mansoor,  
 S. F. Manzer,  Shan-Ping Mao,  A. V. Marenich,  T. Markovich,  S. Mason,  
 S. A. Maurer,  P. F. McLaughlin,  M. F. S. J. Menger,  J.-M. Mewes,  
 S. A. Mewes,  P. Morgante,  J. W. Mullinax,  K. J. Oosterbaan,  G. Paran,  
 Alexander C. Paul,  Suranjan K. Paul,  F. Pavosevic,  Zheng Pei,  S. Prager,  
 E. I. Proynov,  E. Ramos,  B. Rana,  A. E. Rask,  A. Rettig,  R. M. Richard,  
 F. Rob,  E. Rossomme,  T. Scheele,  M. Scheurer,  M. Schneider,  
 N. Sergueev,  S. M. Sharada,  W. Skomorowski,  D. W. Small,  C. J. Stein,  
 Yu-Chuan Su,  E. J. Sundstrom,  Zhen Tao,  J. Thirman,  T. Tsuchimochi,  
 N. M. Tubman,  S. P. Veccham,  O. Vydrov,  J. Wenzel,  J. Witte,  A. Yamada,  
 Kun Yao,  S. Yeganeh,  S. R. Yost,  A. Zech,  Igor Ying Zhang,  Xing Zhang,  
 Yu Zhang,  D. Zuev,  A. Aspuru-Guzik,  A. T. Bell,  N. A. Besley,  
 K. B. Bravaya,  B. R. Brooks,  D. Casanova,  Jeng-Da Chai,  S. Coriani,  
 C. J. Cramer,  A. E. DePrince, III,  R. A. DiStasio Jr.,  A. Dreuw,  
 B. D. Dunietz,  T. R. Furlani,  W. A. Goddard III,  S. Grimme,  
 S. Hammes-Schiffer,  T. Head-Gordon,  W. J. Hehre,  Chao-Ping Hsu,  
 T.-C. Jagau,  Yousung Jung,  A. Klamt,  Jing Kong,  D. S. Lambrecht,  
 WanZhen Liang,  N. J. Mayhall,  C. W. McCurdy,  J. B. Neaton,  
 C. Ochsenfeld,  J. A. Parkhill,  R. Peverati,  V. A. Rassolov,  Yihan Shao,  
 L. V. Slipchenko,  T. Stauch,  R. P. Steele,  J. E. Subotnik,  
 A. J. W. Thom,  A. Tkatchenko,  D. G. Truhlar,  T. Van Voorhis,  
 T. A. Wesolowski,  K. B. Whaley,  H. L. Woodcock III,  P. M. Zimmerman,  
 S. Faraji,  P. M. W. Gill,  M. Head-Gordon,  J. M. Herbert,  A. I. Krylov

 Additional authors for Version 5.4.1: 
 S. Kotaru,  Shaozhi Li,  Xiangyuan Li,  F. Matz,  A. Molle,  Haisheng Ren,  
 Yingli Su,  Hung-Yi Tsai,  C. Utku,  Fang Wang

 Contributors to earlier versions of Q-Chem not listed above: 
 R. D. Adamson,  B. Austin,  R. Baer,  J. Baker,  G. J. O. Beran,  
 K. Brandhorst,  S. T. Brown,  E. F. C. Byrd,  A. K. Chakraborty,  
 G. K. L. Chan,  Chun-Min Chang,  Yunqing Chen,  C.-L. Cheng,  
 Siu Hung Chien,  D. M. Chipman,  D. L. Crittenden,  H. Dachsel,  
 R. J. Doerksen,  A. D. Dutoi,  R. G. Edgar,  J. Fosso-Tande,  
 L. Fusti-Molnar,  D. Ghosh,  A. Ghysels,  A. Golubeva-Zadorozhnaya,  
 J. Gonthier,  M. S. Gordon,  S. R. Gwaltney,  G. Hawkins,  J. E. Herr,  
 A. Heyden,  S. Hirata,  E. G. Hohenstein,  G. Kedziora,  F. J. Keil,  
 C. Kelley,  Jihan Kim,  R. A. King,  R. Z. Khaliullin,  P. P. Korambath,  
 W. Kurlancheek,  A. Laurent,  A. M. Lee,  M. S. Lee,  S. V. Levchenko,  
 Ching Yeh Lin,  D. Liotard,  E. Livshits,  R. C. Lochan,  I. Lotan,  
 L. A. Martinez-Martinez,  P. E. Maslen,  N. Nair,  D. P. O'Neill,  
 D. Neuhauser,  E. Neuscamman,  C. M. Oana,  R. Olivares-Amaya,  R. Olson,  
 T. M. Perrine,  B. Peters,  P. A. Pieniazek,  A. Prociuk,  Y. M. Rhee,  
 J. Ritchie,  M. A. Rohrdanz,  E. Rosta,  N. J. Russ,  H. F. Schaefer III,  
 M. W. Schmidt,  N. E. Schultz,  S. Sharma,  N. Shenvi,  C. D. Sherrill,  
 A. C. Simmonett,  A. Sodt,  T. Stein,  D. Stuck,  K. S. Thanthiriwatte,  
 V. Vanovschi,  L. Vogt,  Tao Wang,  A. Warshel,  M. A. Watson,  
 C. F. Williams,  Q. Wu,  X. Xu,  Jun Yang,  W. Zhang,  Yan Zhao

 Please cite Q-Chem as follows:
 Y. Shao et al., Mol. Phys. 113, 184-215 (2015)
 DOI: 10.1080/00268976.2014.952696

 Q-Chem 5.4.1 for Intel X86 EM64T Linux

 Parts of Q-Chem use Armadillo 9.800.1 (Horizon Scraper).
 http://arma.sourceforge.net/

 Q-Chem begins on Tue Jun 25 21:17:19 2024  

 Host: 
0

     Scratch files written to /scratch/ari.fischer/qChem2187298.hpc-mn1/qchem53515//
 Aug1521 |scratch|qcdevops|jenkins|workspace|build_RNUM 8249   
 Processing $rem in /usr/local/qchem-5.4.1/config/preferences:
 Processing $rem in /home/ari.fischer/.qchemrc:
 Symmetry turned off for PCM/SM12/SMD calculation


!!********************************************.
!!******************Warning*******************.
!!Desired Analytical derivatives not available.
!!Finite difference job might take a long time.
!!********************************************.
!!********************************************.


 2-order derivative to be evaluated numerically with 1-order analytical derivatives

 Checking the input file for inconsistencies... 	...done.

--------------------------------------------------------------
User input:
--------------------------------------------------------------
$molecule
0 2
C         2.4059378213   -0.9697823144   -0.9038794469
O         1.1817798523   -0.6899798573   -0.2701675655
C         3.5101019648   -0.5363950631    0.0644541846
O         3.4819387830   -1.3814542241    1.1662456594
C         3.3968134086    0.9275118337    0.4788115675
O         4.2801005527    1.2527400433    1.4738979213
H         2.4959255138   -0.4175010840   -1.8365842669
H         0.4858874715   -0.7205886004   -0.9364777731
H         2.3915221663    1.1195409226    0.8909704077
H         3.4890946448    1.6195655302   -0.3669892896
O         2.5280477682   -2.3288362048   -1.2377351365
H         2.5572663728   -2.8406283606   -0.4182018106
O         4.8016417842   -0.7941657620   -0.5210030551
O         4.9498229137   -0.0040302915   -1.6997553775
H         3.9968727551   -0.9696283648    1.8752359083
H         5.5202789268    0.7172239974   -1.3953234273
$end

$rem
BASIS = 6-311++G(2df,2p)
GUI = 2
JOB_TYPE = Frequency
METHOD = wB97M-V
SOLVENT_METHOD = SMD
SCF_ALGORITHM = DIIS_GDM
MAX_SCF_CYCLES = 400
SCF_CONVERGENCE = 7
THRESH = 12
$end
--------------------------------------------------------------
 ----------------------------------------------------------------
             Standard Nuclear Orientation (Angstroms)
    I     Atom           X                Y                Z
 ----------------------------------------------------------------
    1      C       2.4059378213    -0.9697823144    -0.9038794469
    2      O       1.1817798523    -0.6899798573    -0.2701675655
    3      C       3.5101019648    -0.5363950631     0.0644541846
    4      O       3.4819387830    -1.3814542241     1.1662456594
    5      C       3.3968134086     0.9275118337     0.4788115675
    6      O       4.2801005527     1.2527400433     1.4738979213
    7      H       2.4959255138    -0.4175010840    -1.8365842669
    8      H       0.4858874715    -0.7205886004    -0.9364777731
    9      H       2.3915221663     1.1195409226     0.8909704077
   10      H       3.4890946448     1.6195655302    -0.3669892896
   11      O       2.5280477682    -2.3288362048    -1.2377351365
   12      H       2.5572663728    -2.8406283606    -0.4182018106
   13      O       4.8016417842    -0.7941657620    -0.5210030551
   14      O       4.9498229137    -0.0040302915    -1.6997553775
   15      H       3.9968727551    -0.9696283648     1.8752359083
   16      H       5.5202789268     0.7172239974    -1.3953234273
 ----------------------------------------------------------------
 Nuclear Repulsion Energy =         529.23689789 hartrees
 There are       37 alpha and       36 beta electrons
 Requested basis set is 6-311++G(2df,2p)
 There are 114 shells and 376 basis functions

 Total QAlloc Memory Limit 288000 MB
 Mega-Array Size       188 MB
 MEM_STATIC part       192 MB
 
 Citation of the SMD model:
 Marenich, A.V.; Cramer, C.J.; Truhlar, D.G.
 J. Phys. Chem. B 2009, 113, 6378-6396.
 iSolventCode=           1
 Solvent: water                                                           
 
 vradii
            1           2           3           4           5           6
    1   1.8500000   1.5200000   1.8500000   1.5200000   1.8500000   1.5200000
            7           8           9          10          11          12
    1   1.2000000   1.2000000   1.2000000   1.2000000   1.5200000   1.2000000
           13          14          15          16
    1   1.5200000   1.5200000   1.2000000   1.2000000
 Changing PCM_VDW_RADII to SMD_RADIUS
 Discretize the solute cavity surface with Lebedev spheres
	Using 110 Lebedev grid points for each H atom
	Using 194 Lebedev grid points for other atoms
	Atomic van der Waals radii will be scaled by 1.20
 Remove points where switching function is < 1.0e-08
 Keep 1281 surface tesserae and discard 1235 interior tesserae
 Molecular Surface Area = 144.125 Angst**2
 A cutoff of  1.0D-12 yielded   6009 shell pairs
 There are     65410 function pairs (     81739 Cartesian)
 Smallest overlap matrix eigenvalue = 1.29E-05
 Guess from superposition of atomic densities
 Warning:  Energy on first SCF cycle will be non-variational
 SAD guess density has 73.000000 electrons

 -----------------------------------------------------------------------
  General SCF calculation program by
  Eric Jon Sundstrom, Paul Horn, Yuezhi Mao, Dmitri Zuev, Alec White,
  David Stuck, Shaama M.S., Shane Yost, Joonho Lee, David Small,
  Daniel Levine, Susi Lehtola, Hugh Burton, Evgeny Epifanovsky,
  Bang C. Huynh
 -----------------------------------------------------------------------
 Exchange:     0.1500 Hartree-Fock + 1.0000 wB97M-V + LR-HF
 Correlation:  1.0000 wB97M-V
 Using SG-2 standard quadrature grid
 Nonlocal Correlation:  VV10 with C = 0.0100 and b = 6.00 and scale = 1.00000
 Grid used for NLC:  SG-1 standard quadrature
 using 16 threads for integral computing
 -------------------------------------------------------
 OpenMP Integral computing Module                
 Release: version 1.0, May 2013, Q-Chem Inc. Pittsburgh 
 -------------------------------------------------------
 
 Citation of the SMD model:
 Marenich, A.V.; Cramer, C.J.; Truhlar, D.G.
 J. Phys. Chem. B 2009, 113, 6378-6396.
 iSolventCode=           1
 Solvent: water                                                           
 
 vradii
            1           2           3           4           5           6
    1   1.8500000   1.5200000   1.8500000   1.5200000   1.8500000   1.5200000
            7           8           9          10          11          12
    1   1.2000000   1.2000000   1.2000000   1.2000000   1.5200000   1.2000000
           13          14          15          16
    1   1.5200000   1.5200000   1.2000000   1.2000000
 -------------------------------------------------------
 OpenMP BLAS3 based DFT computing Module                
 Release: version 1.0, May 2013, Q-Chem Inc. Pittsburgh 
 -------------------------------------------------------
 A unrestricted SCF calculation will be
 performed using DIIS, GDM
 SCF converges when RMS gradient is below 1.0e-07
 ---------------------------------------
  Cycle       Energy         DIIS error
 ---------------------------------------
    1    -571.3137136525      1.25e-02  
    2    -569.4537622981      2.10e-03  Done DIIS. Switching to GDM
 ---------------------------------------
  Cycle       Energy        RMS Gradient
 ---------------------------------------
    1    -569.4537622981      6.08e-01   Descent step
    2    -569.6913033945      5.10e-02   Descent step
    3    -569.7313214584      9.20e-02   Normal BFGS step
    4    -569.7522906525      1.75e-02   Normal BFGS step
    5    -569.7569613090      8.34e-03   Normal BFGS step
    6    -569.7578468513      7.12e-03   Normal BFGS step
    7    -569.7580979059      7.87e-03   Normal BFGS step
    8    -569.7582534965      8.69e-03   Normal BFGS step
    9    -569.7585799518      9.83e-03   Normal BFGS step
   10    -569.7594613411      1.23e-02   Dog-leg BFGS step
   11    -569.7614520492      1.91e-02   Dog-leg BFGS step
   12    -569.7641454747      1.53e-02   Normal BFGS step
   13    -569.7679970538      5.59e-03   Normal BFGS step
   14    -569.7687358210      3.35e-03   Normal BFGS step
   15    -569.7689524819      2.27e-03   Normal BFGS step
   16    -569.7690049950      1.26e-03   Normal BFGS step
   17    -569.7690161513      4.80e-04   Normal BFGS step
   18    -569.7690183219      1.54e-04   Normal BFGS step
   19    -569.7690185845      7.64e-05   Normal BFGS step
   20    -569.7690186342      2.88e-05   Normal BFGS step
   21    -569.7690186508      1.63e-05   Normal BFGS step
   22    -569.7690186545      9.56e-06   Normal BFGS step
   23    -569.7690186554      2.05e-06   Normal BFGS step
   24    -569.7690186555      1.21e-06   Normal BFGS step
   25    -569.7690186555      3.67e-07   Normal BFGS step
   26    -569.7690186555      1.68e-07   Normal BFGS step
   27    -569.7690186555      5.47e-08  Convergence criterion met
 ---------------------------------------
 SCF time:   CPU 2638.21s  wall 183.00s 
<S^2> =          0.753876835
(3)  G-ENP(liq) elect-nuc-pol free energy of system     -569.769018656 a.u.
(4)  G-CDS(liq) cavity-dispersion-solvent structure 
     free energy                                                3.2689 kcal/mol
(6)  G-S(liq) free energy of system                     -569.763809346 a.u.
 SCF   energy in the final basis set =     -569.7638093462
 Total energy in the final basis set =     -569.7638093462
 
 --------------------------------------------------------------
 
                    Orbital Energies (a.u.)
 --------------------------------------------------------------
 
 Alpha MOs
 -- Occupied --
-19.4069 -19.4003 -19.3997 -19.3633 -19.3504 -19.3486 -10.4648 -10.4513
-10.4031  -1.2820  -1.2153  -1.1927  -1.1697  -1.1398  -1.0410  -0.8821
 -0.7986  -0.7377  -0.6959  -0.6569  -0.6514  -0.6318  -0.6036  -0.5888
 -0.5772  -0.5580  -0.5479  -0.5344  -0.4964  -0.4689  -0.4569  -0.4437
 -0.4370  -0.4311  -0.4130  -0.4070  -0.3858
 -- Virtual --
  0.0266   0.0386   0.0415   0.0482   0.0660   0.0705   0.0812   0.0922
  0.0963   0.1214   0.1307   0.1357   0.1380   0.1403   0.1462   0.1525
  0.1647   0.1744   0.1760   0.1980   0.2078   0.2201   0.2299   0.2423
  0.2467   0.2547   0.2596   0.2702   0.2726   0.2808   0.2902   0.2980
  0.3153   0.3173   0.3234   0.3254   0.3347   0.3401   0.3453   0.3508
  0.3600   0.3661   0.3749   0.3791   0.3843   0.3868   0.4001   0.4077
  0.4103   0.4192   0.4316   0.4395   0.4483   0.4560   0.4635   0.4686
  0.4933   0.5323   0.5670   0.5748   0.5907   0.6145   0.6275   0.6331
  0.6344   0.6541   0.6655   0.6782   0.6846   0.7160   0.7284   0.7363
  0.7497   0.7604   0.7776   0.8001   0.8372   0.8572   0.8768   0.8943
  0.9222   0.9344   0.9414   0.9713   0.9963   1.0171   1.0468   1.0684
  1.0779   1.0859   1.1104   1.1177   1.1346   1.1399   1.1415   1.1686
  1.1814   1.1883   1.1943   1.1968   1.2108   1.2189   1.2350   1.2419
  1.2453   1.2638   1.2801   1.2942   1.3112   1.3246   1.3354   1.3471
  1.3588   1.3703   1.3991   1.4078   1.4399   1.4497   1.4675   1.4840
  1.4969   1.5073   1.5207   1.5308   1.5558   1.5735   1.5878   1.6106
  1.6307   1.6635   1.6689   1.6793   1.7027   1.7183   1.7525   1.7869
  1.8137   1.8357   1.8616   1.9000   1.9236   1.9362   1.9506   1.9790
  2.0061   2.0165   2.0561   2.0896   2.1206   2.1569   2.1793   2.2208
  2.2546   2.2909   2.3016   2.3442   2.3664   2.3986   2.4040   2.4520
  2.4542   2.4765   2.4862   2.5179   2.5393   2.5811   2.6217   2.6837
  2.7625   2.7913   2.8056   2.8375   2.8468   2.8844   2.9138   3.0044
  3.0553   3.0978   3.1354   3.1599   3.2008   3.2199   3.2468   3.2478
  3.3143   3.3453   3.3897   3.3945   3.4187   3.4424   3.4971   3.5301
  3.5535   3.5724   3.6092   3.6409   3.6700   3.6725   3.6934   3.7226
  3.7379   3.7570   3.8024   3.8066   3.8194   3.8378   3.8499   3.8886
  3.9041   3.9130   3.9377   3.9515   3.9665   3.9774   4.0205   4.0623
  4.0810   4.1360   4.1525   4.1779   4.2225   4.2456   4.2575   4.2998
  4.3070   4.3321   4.3401   4.3651   4.4044   4.4202   4.4483   4.4613
  4.5419   4.5562   4.5722   4.6324   4.7139   4.7497   4.8473   4.9291
  5.0104   5.0456   5.1118   5.1258   5.1515   5.2052   5.2155   5.2228
  5.2386   5.2619   5.2690   5.2748   5.2888   5.3080   5.3103   5.3398
  5.3453   5.3479   5.3658   5.3733   5.3988   5.4107   5.4312   5.4410
  5.4791   5.4877   5.5118   5.5462   5.5558   5.5760   5.5992   5.6059
  5.6300   5.6391   5.6689   5.6748   5.7106   5.7552   5.7787   5.8094
  5.8831   5.9295   5.9929   6.0130   6.0323   6.0702   6.0926   6.1456
  6.1691   6.2475   6.4825   6.5777   6.7190   6.7617   6.8112   6.8521
  6.9006   6.9248   7.0154   7.0354   7.0775   7.0923   7.1170   7.1488
  7.2386   7.2607   7.2638   7.2741   7.2914   7.3155   7.3187   7.3553
  7.4086   7.4122   7.4232   7.4481   7.4942   7.5106   7.5753   7.5962
  7.6672   7.6770   7.6854   7.7733   7.8219   7.8574   7.8759   7.9074
  8.0117   8.1891  24.6897  24.8171  24.8706  50.4808  50.5159  50.5830
 50.6192  50.6368  50.6838
 
 Beta MOs
 -- Occupied --
-19.4069 -19.3997 -19.3777 -19.3633 -19.3503 -19.3486 -10.4647 -10.4513
-10.4033  -1.2818  -1.2147  -1.1885  -1.1400  -1.1238  -1.0407  -0.8773
 -0.7887  -0.7348  -0.6944  -0.6553  -0.6473  -0.6271  -0.5868  -0.5798
 -0.5708  -0.5429  -0.5312  -0.5211  -0.4934  -0.4658  -0.4546  -0.4367
 -0.4231  -0.4131  -0.4066  -0.3781
 -- Virtual --
 -0.0651   0.0268   0.0387   0.0418   0.0484   0.0663   0.0710   0.0813
  0.0929   0.0969   0.1218   0.1311   0.1359   0.1391   0.1407   0.1472
  0.1528   0.1652   0.1759   0.1765   0.1986   0.2091   0.2211   0.2327
  0.2440   0.2476   0.2576   0.2604   0.2708   0.2733   0.2809   0.2936
  0.2996   0.3167   0.3195   0.3249   0.3266   0.3358   0.3406   0.3456
  0.3512   0.3618   0.3677   0.3772   0.3798   0.3848   0.3876   0.4005
  0.4096   0.4107   0.4194   0.4320   0.4399   0.4485   0.4569   0.4649
  0.4728   0.4937   0.5332   0.5703   0.5768   0.5930   0.6193   0.6279
  0.6337   0.6369   0.6548   0.6665   0.6800   0.6861   0.7175   0.7308
  0.7370   0.7509   0.7632   0.7783   0.8008   0.8375   0.8593   0.8771
  0.8949   0.9239   0.9354   0.9419   0.9725   0.9977   1.0205   1.0477
  1.0700   1.0789   1.0891   1.1132   1.1210   1.1379   1.1409   1.1467
  1.1702   1.1858   1.1931   1.1964   1.2020   1.2135   1.2264   1.2369
  1.2461   1.2489   1.2665   1.2837   1.2964   1.3124   1.3274   1.3374
  1.3518   1.3613   1.3753   1.4024   1.4106   1.4418   1.4557   1.4704
  1.4912   1.4992   1.5087   1.5215   1.5335   1.5597   1.5750   1.5917
  1.6131   1.6337   1.6690   1.6739   1.6809   1.7130   1.7221   1.7578
  1.7897   1.8153   1.8494   1.8759   1.9061   1.9349   1.9431   1.9526
  1.9801   2.0084   2.0194   2.0578   2.0949   2.1242   2.1659   2.1821
  2.2220   2.2555   2.2943   2.3115   2.3454   2.3676   2.4027   2.4089
  2.4537   2.4562   2.4776   2.4877   2.5267   2.5408   2.5830   2.6267
  2.6842   2.7678   2.7966   2.8080   2.8389   2.8473   2.8849   2.9150
  3.0054   3.0568   3.0994   3.1391   3.1625   3.2055   3.2217   3.2479
  3.2523   3.3153   3.3466   3.3904   3.3945   3.4202   3.4462   3.4988
  3.5346   3.5555   3.5730   3.6120   3.6414   3.6706   3.6750   3.6952
  3.7251   3.7398   3.7589   3.8028   3.8079   3.8207   3.8380   3.8505
  3.8900   3.9044   3.9155   3.9395   3.9534   3.9671   3.9821   4.0221
  4.0641   4.0836   4.1378   4.1568   4.1809   4.2245   4.2470   4.2598
  4.3017   4.3110   4.3334   4.3503   4.3777   4.4062   4.4277   4.4522
  4.4662   4.5474   4.5636   4.5809   4.6364   4.7147   4.7509   4.8486
  4.9398   5.0168   5.0462   5.1668   5.1827   5.1992   5.2162   5.2327
  5.2423   5.2669   5.2710   5.2792   5.2833   5.2905   5.3137   5.3187
  5.3430   5.3541   5.3714   5.3782   5.3844   5.4115   5.4253   5.4385
  5.4456   5.4894   5.5030   5.5153   5.5494   5.5585   5.5789   5.6028
  5.6152   5.6331   5.6482   5.6714   5.6761   5.7111   5.7567   5.7798
  5.8107   5.8931   5.9386   6.0034   6.0329   6.0399   6.0750   6.0955
  6.1463   6.1706   6.2485   6.4834   6.5781   6.7333   6.7711   6.8186
  6.8577   6.9980   7.0156   7.0213   7.0384   7.0778   7.0948   7.1201
  7.1502   7.2430   7.2640   7.2684   7.2899   7.2992   7.3167   7.3471
  7.3663   7.4104   7.4177   7.4439   7.4612   7.5015   7.5159   7.5764
  7.5971   7.6673   7.6828   7.7228   7.7776   7.8221   7.8589   7.8761
  7.9076   8.0119   8.1892  24.6896  24.8170  24.8706  50.4844  50.5257
 50.5850  50.6194  50.6369  50.6840
 --------------------------------------------------------------
 
          Ground-State Mulliken Net Atomic Charges

     Atom                 Charge (a.u.)    Spin (a.u.)
  --------------------------------------------------------
      1 C                    -0.111536       0.000692
      2 O                    -0.425613       0.001944
      3 C                     0.172111       0.001638
      4 O                    -0.391719       0.001072
      5 C                    -0.316377      -0.003058
      6 O                    -0.205383       0.867851
      7 H                     0.293400       0.000294
      8 H                     0.340588       0.000623
      9 H                     0.278313       0.084365
     10 H                     0.264476       0.043534
     11 O                    -0.449160       0.000128
     12 H                     0.348589      -0.000141
     13 O                    -0.198779       0.000025
     14 O                    -0.273152       0.002863
     15 H                     0.332356      -0.001548
     16 H                     0.341885      -0.000282
  --------------------------------------------------------
  Sum of atomic charges =     0.000000
  Sum of spin   charges =     1.000000

 -----------------------------------------------------------------
                    Cartesian Multipole Moments
 -----------------------------------------------------------------
    Charge (ESU x 10^10)
                 0.0000
    Dipole Moment (Debye)
         X      -1.7352      Y       3.9902      Z      -0.3227
       Tot       4.3631
    Quadrupole Moments (Debye-Ang)
        XX     -60.1922     XY      15.8829     YY     -56.5049
        XZ       2.3130     YZ      -8.5963     ZZ     -55.4136
    Octopole Moments (Debye-Ang^2)
       XXX    -560.2382    XXY      96.4571    XYY    -191.6776
       YYY      80.0300    XXZ      11.3208    XYZ     -40.5713
       YYZ      14.6149    XZZ    -192.8310    YZZ      33.1900
       ZZZ      39.3056
    Hexadecapole Moments (Debye-Ang^3)
      XXXX   -4115.2486   XXXY     540.7127   XXYY    -820.1489
      XYYY     195.7249   YYYY    -485.8308   XXXZ      41.0800
      XXYZ    -214.3327   XYYZ      28.4360   YYYZ    -124.7929
      XXZZ    -807.1649   XYZZ      79.1806   YYZZ    -183.2599
      XZZZ     135.5809   YZZZ    -119.1441   ZZZZ    -400.5588
 -----------------------------------------------------------------
 Calculating analytic gradient of the SCF energy
 Gradient of CDS energy
            1           2           3           4           5           6
    1  -0.0017842   0.0021210  -0.0000534   0.0000539   0.0043317  -0.0044529
    2  -0.0025133  -0.0005693  -0.0025736   0.0025943   0.0025467  -0.0017375
    3  -0.0000624  -0.0008294   0.0032411  -0.0034973   0.0053366  -0.0050447
            7           8           9          10          11          12
    1   0.0002302  -0.0005078  -0.0001497   0.0001491  -0.0001719  -0.0000318
    2   0.0000542   0.0000909  -0.0002141  -0.0001746   0.0031599  -0.0004865
    3  -0.0000938  -0.0000332   0.0000734  -0.0002189   0.0007866   0.0000844
           13          14          15          16
    1  -0.0000896  -0.0001903   0.0001327   0.0004129
    2  -0.0000440  -0.0001791  -0.0001851   0.0002309
    3  -0.0000755   0.0001434   0.0004075  -0.0002179
 Gradient of SCF Energy
            1           2           3           4           5           6
    1   0.0011310   0.0086202  -0.0018145  -0.0044201   0.0081171   0.0020985
    2  -0.0025557  -0.0026348   0.0045765  -0.0050445  -0.0144789   0.0027277
    3   0.0062582   0.0134283  -0.0007659  -0.0061208   0.0083288   0.0010548
            7           8           9          10          11          12
    1  -0.0029401  -0.0098259  -0.0076124   0.0012556   0.0042494  -0.0021501
    2   0.0062633   0.0020398   0.0032814   0.0086920  -0.0016902  -0.0013633
    3  -0.0046418  -0.0112748   0.0027808  -0.0113457  -0.0055285   0.0025868
           13          14          15          16
    1   0.0001667  -0.0071985   0.0032682   0.0070549
    2  -0.0047140  -0.0140995   0.0035653   0.0154350
    3   0.0011474  -0.0077693   0.0066489   0.0052128
 Max gradient component =       1.543E-02
 RMS gradient           =       6.670E-03
 Computing fast CPCM-SWIG gradient
 Updating gradient with PCM contributions...
 -- total gradient after adding PCM contribution --
---------------------------------------------------
  Atom         X              Y              Z     
---------------------------------------------------
   1       0.000027      -0.000015       0.000022
   2       0.000010       0.000035       0.000040
   3      -0.000094       0.000035       0.000103
   4      -0.000024       0.000011      -0.000085
   5       0.000191      -0.000021       0.000175
   6      -0.000095      -0.000021      -0.000145
   7       0.000012       0.000013      -0.000011
   8      -0.000029      -0.000002      -0.000020
   9      -0.000027       0.000049      -0.000039
  10      -0.000032       0.000024      -0.000041
  11      -0.000007      -0.000005      -0.000033
  12      -0.000030      -0.000017       0.000060
  13       0.000084      -0.000039      -0.000039
  14      -0.000021      -0.000066      -0.000032
  15       0.000020       0.000032       0.000023
  16       0.000017      -0.000013       0.000021
---------------------------------------------------
 Number of fixed atoms: 0
 Gradient time:  CPU 265.76 s  wall 22.23 s
 ######################################################
 ######################################################
 # Starting finite difference calculation for IDERIV  #
 Finite diff step size:  1.88973e-03 a.u.
 ----------------------------------------------------------------
             Standard Nuclear Orientation (Angstroms)
    I     Atom           X                Y                Z
 ----------------------------------------------------------------
    1      C       2.4069378213    -0.9697823144    -0.9038794469
    2      O       1.1817798523    -0.6899798573    -0.2701675655
    3      C       3.5101019648    -0.5363950631     0.0644541846
    4      O       3.4819387830    -1.3814542241     1.1662456594
    5      C       3.3968134086     0.9275118337     0.4788115675
    6      O       4.2801005527     1.2527400433     1.4738979213
    7      H       2.4959255138    -0.4175010840    -1.8365842669
    8      H       0.4858874715    -0.7205886004    -0.9364777731
    9      H       2.3915221663     1.1195409226     0.8909704077
   10      H       3.4890946448     1.6195655302    -0.3669892896
   11      O       2.5280477682    -2.3288362048    -1.2377351365
   12      H       2.5572663728    -2.8406283606    -0.4182018106
   13      O       4.8016417842    -0.7941657620    -0.5210030551
   14      O       4.9498229137    -0.0040302915    -1.6997553775
   15      H       3.9968727551    -0.9696283648     1.8752359083
   16      H       5.5202789268     0.7172239974    -1.3953234273
 ----------------------------------------------------------------
 Nuclear Repulsion Energy =         529.24382768 hartrees
 There are       37 alpha and       36 beta electrons
 Discretize the solute cavity surface with Lebedev spheres
	Using 110 Lebedev grid points for each H atom
	Using 194 Lebedev grid points for other atoms
	Atomic van der Waals radii will be scaled by 1.20
 Remove points where switching function is < 1.0e-08
 Keep 1281 surface tesserae and discard 1235 interior tesserae
 Molecular Surface Area = 144.125 Angst**2
 Requested basis set is 6-311++G(2df,2p)
 There are 114 shells and 376 basis functions
 A cutoff of  1.0D-12 yielded   6009 shell pairs
 There are     65410 function pairs (     81739 Cartesian)
 Smallest overlap matrix eigenvalue = 1.28E-05
 Guess MOs from SCF MO coefficient file

 -----------------------------------------------------------------------
  General SCF calculation program by
  Eric Jon Sundstrom, Paul Horn, Yuezhi Mao, Dmitri Zuev, Alec White,
  David Stuck, Shaama M.S., Shane Yost, Joonho Lee, David Small,
  Daniel Levine, Susi Lehtola, Hugh Burton, Evgeny Epifanovsky,
  Bang C. Huynh
 -----------------------------------------------------------------------
 Exchange:     0.1500 Hartree-Fock + 1.0000 wB97M-V + LR-HF
 Correlation:  1.0000 wB97M-V
 Using SG-2 standard quadrature grid
 Nonlocal Correlation:  VV10 with C = 0.0100 and b = 6.00 and scale = 1.00000
 Grid used for NLC:  SG-1 standard quadrature
 
 Citation of the SMD model:
 Marenich, A.V.; Cramer, C.J.; Truhlar, D.G.
 J. Phys. Chem. B 2009, 113, 6378-6396.
 iSolventCode=           1
 Solvent: water                                                           
 
 vradii
            1           2           3           4           5           6
    1   1.8500000   1.5200000   1.8500000   1.5200000   1.8500000   1.5200000
            7           8           9          10          11          12
    1   1.2000000   1.2000000   1.2000000   1.2000000   1.5200000   1.2000000
           13          14          15          16
    1   1.5200000   1.5200000   1.2000000   1.2000000
 -------------------------------------------------------
 OpenMP BLAS3 based DFT computing Module                
 Release: version 1.0, May 2013, Q-Chem Inc. Pittsburgh 
 -------------------------------------------------------
 A unrestricted SCF calculation will be
 performed using Roothaan-Hall, DIIS, GDM
 SCF converges when RMS gradient is below 1.0e-07
 ---------------------------------------
  Cycle       Energy         DIIS error
 ---------------------------------------
    1    -569.7232451470      2.50e-04  Roothaan Step
 ---------------------------------------
  Cycle       Energy         DIIS error
 ---------------------------------------
    1    -569.7614536991      2.69e-04  
    2    -569.7671309097      1.90e-04  Done DIIS. Switching to GDM
 ---------------------------------------
  Cycle       Energy        RMS Gradient
 ---------------------------------------
    1    -569.7671309097      5.14e-03   Normal BFGS step
    2    -569.7673302251      7.23e-03   Normal BFGS step
    3    -569.7689848017      6.30e-04   Normal BFGS step
    4    -569.7689987327      5.69e-04   Normal BFGS step
    5    -569.7690133990      2.77e-04   Normal BFGS step
    6    -569.7690137972      1.02e-04   Normal BFGS step
    7    -569.7690141372      8.52e-05   Normal BFGS step
    8    -569.7690141683      7.86e-05   Normal BFGS step
    9    -569.7690142010      7.17e-05   Normal BFGS step
   10    -569.7690142325      6.17e-05   Normal BFGS step
   11    -569.7690142805      9.70e-05   Normal BFGS step
   12    -569.7690143329      8.27e-05   Normal BFGS step
   13    -569.7690143586      4.43e-05   Normal BFGS step
   14    -569.7690143654      5.86e-06   Normal BFGS step
   15    -569.7690143663      2.87e-06   Normal BFGS step
   16    -569.7690143664      1.81e-06   Normal BFGS step
   17    -569.7690143664      1.35e-06   Normal BFGS step
   18    -569.7690143664      6.84e-07   Normal BFGS step
   19    -569.7690143664      2.05e-07   Normal BFGS step
   20    -569.7690143664      8.80e-08  Convergence criterion met
 ---------------------------------------
 SCF time:   CPU 2003.24s  wall 140.00s 
<S^2> =          0.753876816
(3)  G-ENP(liq) elect-nuc-pol free energy of system     -569.769014366 a.u.
(4)  G-CDS(liq) cavity-dispersion-solvent structure 
     free energy                                                3.2669 kcal/mol
(6)  G-S(liq) free energy of system                     -569.763808281 a.u.
 SCF   energy in the final basis set =     -569.7638082808
 Total energy in the final basis set =     -569.7638082808
 
 --------------------------------------------------------------
 
                    Orbital Energies (a.u.)
 --------------------------------------------------------------
 
 Alpha MOs
 -- Occupied --
-19.4069 -19.4003 -19.3997 -19.3633 -19.3503 -19.3487 -10.4648 -10.4513
-10.4031  -1.2821  -1.2153  -1.1926  -1.1697  -1.1396  -1.0410  -0.8822
 -0.7987  -0.7377  -0.6958  -0.6569  -0.6514  -0.6318  -0.6036  -0.5887
 -0.5772  -0.5580  -0.5478  -0.5343  -0.4964  -0.4690  -0.4569  -0.4437
 -0.4370  -0.4312  -0.4130  -0.4070  -0.3859
 -- Virtual --
  0.0266   0.0386   0.0415   0.0482   0.0660   0.0705   0.0812   0.0922
  0.0963   0.1214   0.1307   0.1357   0.1380   0.1403   0.1462   0.1525
  0.1647   0.1744   0.1760   0.1980   0.2077   0.2201   0.2299   0.2422
  0.2467   0.2547   0.2596   0.2702   0.2726   0.2808   0.2902   0.2980
  0.3153   0.3172   0.3235   0.3255   0.3347   0.3401   0.3453   0.3509
  0.3600   0.3661   0.3749   0.3792   0.3843   0.3868   0.3999   0.4077
  0.4103   0.4192   0.4316   0.4395   0.4483   0.4560   0.4635   0.4686
  0.4933   0.5323   0.5670   0.5750   0.5908   0.6145   0.6275   0.6331
  0.6344   0.6541   0.6654   0.6781   0.6846   0.7160   0.7284   0.7363
  0.7497   0.7605   0.7777   0.8001   0.8373   0.8572   0.8768   0.8942
  0.9222   0.9344   0.9414   0.9712   0.9963   1.0171   1.0468   1.0683
  1.0779   1.0859   1.1104   1.1177   1.1346   1.1399   1.1415   1.1686
  1.1814   1.1884   1.1943   1.1967   1.2107   1.2190   1.2350   1.2419
  1.2453   1.2638   1.2801   1.2942   1.3112   1.3246   1.3355   1.3471
  1.3587   1.3703   1.3991   1.4079   1.4399   1.4497   1.4676   1.4840
  1.4969   1.5074   1.5208   1.5309   1.5558   1.5735   1.5879   1.6107
  1.6307   1.6634   1.6690   1.6793   1.7026   1.7183   1.7526   1.7871
  1.8137   1.8356   1.8617   1.9001   1.9235   1.9362   1.9506   1.9789
  2.0061   2.0165   2.0560   2.0895   2.1206   2.1569   2.1793   2.2207
  2.2546   2.2909   2.3015   2.3441   2.3663   2.3985   2.4037   2.4521
  2.4543   2.4765   2.4862   2.5178   2.5392   2.5814   2.6217   2.6837
  2.7625   2.7914   2.8054   2.8376   2.8467   2.8843   2.9138   3.0046
  3.0553   3.0979   3.1355   3.1599   3.2009   3.2200   3.2469   3.2478
  3.3141   3.3453   3.3896   3.3946   3.4187   3.4423   3.4969   3.5301
  3.5534   3.5723   3.6091   3.6408   3.6701   3.6727   3.6935   3.7224
  3.7378   3.7570   3.8024   3.8067   3.8195   3.8378   3.8500   3.8887
  3.9041   3.9130   3.9378   3.9513   3.9665   3.9774   4.0207   4.0624
  4.0811   4.1361   4.1525   4.1780   4.2226   4.2456   4.2578   4.3000
  4.3072   4.3322   4.3403   4.3651   4.4045   4.4203   4.4481   4.4615
  4.5421   4.5562   4.5726   4.6327   4.7140   4.7497   4.8474   4.9293
  5.0105   5.0456   5.1118   5.1259   5.1515   5.2051   5.2155   5.2229
  5.2385   5.2619   5.2690   5.2748   5.2888   5.3080   5.3103   5.3397
  5.3452   5.3479   5.3660   5.3734   5.3988   5.4107   5.4313   5.4412
  5.4791   5.4877   5.5118   5.5461   5.5558   5.5760   5.5992   5.6059
  5.6300   5.6390   5.6690   5.6747   5.7104   5.7552   5.7788   5.8092
  5.8830   5.9294   5.9929   6.0127   6.0320   6.0702   6.0927   6.1454
  6.1675   6.2475   6.4825   6.5772   6.7187   6.7612   6.8112   6.8522
  6.9006   6.9248   7.0154   7.0354   7.0774   7.0923   7.1170   7.1488
  7.2385   7.2606   7.2637   7.2741   7.2914   7.3154   7.3186   7.3552
  7.4086   7.4121   7.4232   7.4481   7.4941   7.5106   7.5754   7.5962
  7.6671   7.6770   7.6854   7.7732   7.8220   7.8574   7.8759   7.9073
  8.0116   8.1891  24.6894  24.8167  24.8712  50.4808  50.5159  50.5830
 50.6190  50.6369  50.6837
 
 Beta MOs
 -- Occupied --
-19.4069 -19.3997 -19.3777 -19.3633 -19.3502 -19.3487 -10.4648 -10.4513
-10.4034  -1.2818  -1.2146  -1.1884  -1.1399  -1.1238  -1.0407  -0.8774
 -0.7887  -0.7348  -0.6944  -0.6552  -0.6474  -0.6272  -0.5867  -0.5798
 -0.5708  -0.5429  -0.5312  -0.5212  -0.4934  -0.4658  -0.4546  -0.4367
 -0.4230  -0.4131  -0.4067  -0.3782
 -- Virtual --
 -0.0651   0.0268   0.0387   0.0418   0.0484   0.0663   0.0710   0.0812
  0.0929   0.0969   0.1218   0.1311   0.1359   0.1391   0.1407   0.1472
  0.1528   0.1652   0.1759   0.1765   0.1986   0.2090   0.2211   0.2327
  0.2439   0.2476   0.2576   0.2604   0.2708   0.2733   0.2809   0.2936
  0.2996   0.3167   0.3194   0.3249   0.3267   0.3358   0.3406   0.3456
  0.3512   0.3618   0.3677   0.3772   0.3798   0.3848   0.3877   0.4004
  0.4096   0.4107   0.4194   0.4320   0.4399   0.4486   0.4569   0.4648
  0.4728   0.4937   0.5332   0.5703   0.5769   0.5930   0.6193   0.6279
  0.6337   0.6368   0.6548   0.6665   0.6799   0.6861   0.7175   0.7308
  0.7370   0.7509   0.7633   0.7784   0.8008   0.8375   0.8593   0.8771
  0.8949   0.9239   0.9354   0.9419   0.9725   0.9977   1.0206   1.0477
  1.0700   1.0789   1.0891   1.1132   1.1210   1.1379   1.1409   1.1467
  1.1702   1.1858   1.1931   1.1964   1.2020   1.2135   1.2264   1.2369
  1.2461   1.2489   1.2664   1.2837   1.2964   1.3124   1.3274   1.3374
  1.3518   1.3613   1.3753   1.4024   1.4107   1.4417   1.4557   1.4705
  1.4912   1.4992   1.5087   1.5216   1.5335   1.5597   1.5750   1.5917
  1.6132   1.6337   1.6689   1.6740   1.6809   1.7131   1.7222   1.7579
  1.7899   1.8154   1.8493   1.8759   1.9061   1.9349   1.9431   1.9526
  1.9800   2.0085   2.0193   2.0577   2.0949   2.1242   2.1659   2.1821
  2.2219   2.2554   2.2943   2.3115   2.3452   2.3675   2.4026   2.4087
  2.4537   2.4563   2.4776   2.4877   2.5266   2.5408   2.5832   2.6267
  2.6842   2.7679   2.7966   2.8079   2.8390   2.8472   2.8848   2.9150
  3.0056   3.0568   3.0995   3.1392   3.1625   3.2055   3.2218   3.2479
  3.2523   3.3151   3.3465   3.3903   3.3946   3.4202   3.4461   3.4987
  3.5346   3.5553   3.5730   3.6119   3.6414   3.6707   3.6752   3.6952
  3.7249   3.7397   3.7588   3.8028   3.8080   3.8209   3.8381   3.8506
  3.8900   3.9044   3.9155   3.9395   3.9532   3.9671   3.9822   4.0223
  4.0642   4.0837   4.1380   4.1568   4.1810   4.2245   4.2470   4.2602
  4.3019   4.3113   4.3335   4.3505   4.3777   4.4063   4.4277   4.4520
  4.4664   4.5476   4.5636   4.5813   4.6367   4.7148   4.7510   4.8487
  4.9401   5.0169   5.0462   5.1668   5.1827   5.1992   5.2163   5.2327
  5.2422   5.2669   5.2709   5.2792   5.2833   5.2905   5.3136   5.3187
  5.3430   5.3541   5.3715   5.3783   5.3845   5.4115   5.4253   5.4385
  5.4458   5.4894   5.5030   5.5153   5.5494   5.5585   5.5790   5.6028
  5.6152   5.6331   5.6481   5.6714   5.6759   5.7109   5.7567   5.7798
  5.8105   5.8929   5.9385   6.0034   6.0325   6.0397   6.0750   6.0955
  6.1461   6.1691   6.2485   6.4834   6.5776   6.7328   6.7708   6.8185
  6.8577   6.9980   7.0156   7.0213   7.0385   7.0778   7.0948   7.1201
  7.1502   7.2430   7.2640   7.2684   7.2899   7.2992   7.3167   7.3471
  7.3663   7.4103   7.4176   7.4438   7.4612   7.5015   7.5159   7.5764
  7.5971   7.6673   7.6828   7.7228   7.7775   7.8222   7.8589   7.8762
  7.9075   8.0119   8.1892  24.6894  24.8166  24.8711  50.4844  50.5257
 50.5849  50.6192  50.6370  50.6839
 --------------------------------------------------------------
 
          Ground-State Mulliken Net Atomic Charges

     Atom                 Charge (a.u.)    Spin (a.u.)
  --------------------------------------------------------
      1 C                    -0.111649       0.000693
      2 O                    -0.426129       0.001945
      3 C                     0.172129       0.001638
      4 O                    -0.391711       0.001071
      5 C                    -0.316233      -0.003061
      6 O                    -0.205366       0.867855
      7 H                     0.293593       0.000295
      8 H                     0.340556       0.000623
      9 H                     0.278317       0.084356
     10 H                     0.264509       0.043542
     11 O                    -0.449062       0.000127
     12 H                     0.348622      -0.000141
     13 O                    -0.198761       0.000024
     14 O                    -0.273079       0.002862
     15 H                     0.332369      -0.001547
     16 H                     0.341895      -0.000282
  --------------------------------------------------------
  Sum of atomic charges =     0.000000
  Sum of spin   charges =     1.000000

 -----------------------------------------------------------------
                    Cartesian Multipole Moments
 -----------------------------------------------------------------
    Charge (ESU x 10^10)
                 0.0000
    Dipole Moment (Debye)
         X      -1.7288      Y       3.9892      Z      -0.3239
       Tot       4.3598
    Quadrupole Moments (Debye-Ang)
        XX     -60.1646     XY      15.8769     YY     -56.4986
        XZ       2.3086     YZ      -8.5935     ZZ     -55.4082
    Octopole Moments (Debye-Ang^2)
       XXX    -560.1458    XXY      96.4376    XYY    -191.6589
       YYY      80.0139    XXZ      11.3089    XYZ     -40.5629
       YYZ      14.6083    XZZ    -192.8153    YZZ      33.1843
       ZZZ      39.2981
    Hexadecapole Moments (Debye-Ang^3)
      XXXX   -4114.9676   XXXY     540.6709   XXYY    -820.0931
      XYYY     195.7003   YYYY    -485.7624   XXXZ      41.0615
      XXYZ    -214.3075   XYYZ      28.4265   YYYZ    -124.7693
      XXZZ    -807.1159   XYZZ      79.1691   YYZZ    -183.2415
      XZZZ     135.5774   YZZZ    -119.1332   ZZZZ    -400.5231
 -----------------------------------------------------------------
 Calculating analytic gradient of the SCF energy
 Gradient of CDS energy
            1           2           3           4           5           6
    1  -0.0016272   0.0019677  -0.0000536   0.0000537   0.0043316  -0.0044529
    2  -0.0025712  -0.0005328  -0.0025736   0.0025943   0.0025467  -0.0017375
    3  -0.0001467  -0.0007502   0.0032410  -0.0034973   0.0053366  -0.0050447
            7           8           9          10          11          12
    1   0.0002281  -0.0005083  -0.0001500   0.0001491  -0.0001721  -0.0000319
    2   0.0000555   0.0000911  -0.0002142  -0.0001746   0.0031797  -0.0004863
    3  -0.0000938  -0.0000331   0.0000734  -0.0002189   0.0007915   0.0000846
           13          14          15          16
    1  -0.0000896  -0.0001902   0.0001327   0.0004129
    2  -0.0000440  -0.0001789  -0.0001851   0.0002309
    3  -0.0000755   0.0001435   0.0004075  -0.0002179
 Gradient of SCF Energy
            1           2           3           4           5           6
    1   0.0022204   0.0080928  -0.0020558  -0.0044242   0.0081267   0.0021034
    2  -0.0025332  -0.0025888   0.0045288  -0.0050421  -0.0144970   0.0027395
    3   0.0062188   0.0135465  -0.0008938  -0.0061242   0.0083225   0.0010675
            7           8           9          10          11          12
    1  -0.0030515  -0.0098752  -0.0076054   0.0012569   0.0041293  -0.0021474
    2   0.0062405   0.0020543   0.0032822   0.0086950  -0.0016918  -0.0013652
    3  -0.0046336  -0.0112234   0.0027830  -0.0113482  -0.0055310   0.0025852
           13          14          15          16
    1   0.0001038  -0.0072043   0.0032739   0.0070566
    2  -0.0047206  -0.0141040   0.0035640   0.0154386
    3   0.0011334  -0.0077717   0.0066544   0.0052146
 Max gradient component =       1.544E-02
 RMS gradient           =       6.667E-03
 Computing fast CPCM-SWIG gradient
 Updating gradient with PCM contributions...
 -- total gradient after adding PCM contribution --
---------------------------------------------------
  Atom         X              Y              Z     
---------------------------------------------------
   1       0.001101       0.000003      -0.000023
   2      -0.000493       0.000083       0.000168
   3      -0.000326       0.000001      -0.000023
   4      -0.000021       0.000013      -0.000085
   5       0.000202      -0.000038       0.000167
   6      -0.000091      -0.000010      -0.000134
   7      -0.000093      -0.000009       0.000003
   8      -0.000097       0.000013       0.000022
   9      -0.000028       0.000049      -0.000036
  10      -0.000032       0.000025      -0.000041
  11      -0.000118      -0.000015      -0.000039
  12      -0.000033      -0.000015       0.000060
  13       0.000018      -0.000048      -0.000050
  14      -0.000024      -0.000067      -0.000034
  15       0.000021       0.000030       0.000025
  16       0.000016      -0.000013       0.000021
---------------------------------------------------
 Number of fixed atoms: 0
 Gradient time:  CPU 255.09 s  wall 21.16 s
 ----------------------------------------------------------------
             Standard Nuclear Orientation (Angstroms)
    I     Atom           X                Y                Z
 ----------------------------------------------------------------
    1      C       2.4049378213    -0.9697823144    -0.9038794469
    2      O       1.1817798523    -0.6899798573    -0.2701675655
    3      C       3.5101019648    -0.5363950631     0.0644541846
    4      O       3.4819387830    -1.3814542241     1.1662456594
    5      C       3.3968134086     0.9275118337     0.4788115675
    6      O       4.2801005527     1.2527400433     1.4738979213
    7      H       2.4959255138    -0.4175010840    -1.8365842669
    8      H       0.4858874715    -0.7205886004    -0.9364777731
    9      H       2.3915221663     1.1195409226     0.8909704077
   10      H       3.4890946448     1.6195655302    -0.3669892896
   11      O       2.5280477682    -2.3288362048    -1.2377351365
   12      H       2.5572663728    -2.8406283606    -0.4182018106
   13      O       4.8016417842    -0.7941657620    -0.5210030551
   14      O       4.9498229137    -0.0040302915    -1.6997553775
   15      H       3.9968727551    -0.9696283648     1.8752359083
   16      H       5.5202789268     0.7172239974    -1.3953234273
 ----------------------------------------------------------------
 Nuclear Repulsion Energy =         529.22997504 hartrees
 There are       37 alpha and       36 beta electrons
 Discretize the solute cavity surface with Lebedev spheres
	Using 110 Lebedev grid points for each H atom
	Using 194 Lebedev grid points for other atoms
	Atomic van der Waals radii will be scaled by 1.20
 Remove points where switching function is < 1.0e-08
 Keep 1281 surface tesserae and discard 1235 interior tesserae
 Molecular Surface Area = 144.124 Angst**2
 Requested basis set is 6-311++G(2df,2p)
 There are 114 shells and 376 basis functions
 A cutoff of  1.0D-12 yielded   6009 shell pairs
 There are     65410 function pairs (     81739 Cartesian)
 Smallest overlap matrix eigenvalue = 1.29E-05
 Guess MOs from SCF MO coefficient file

 -----------------------------------------------------------------------
  General SCF calculation program by
  Eric Jon Sundstrom, Paul Horn, Yuezhi Mao, Dmitri Zuev, Alec White,
  David Stuck, Shaama M.S., Shane Yost, Joonho Lee, David Small,
  Daniel Levine, Susi Lehtola, Hugh Burton, Evgeny Epifanovsky,
  Bang C. Huynh
 -----------------------------------------------------------------------
 Exchange:     0.1500 Hartree-Fock + 1.0000 wB97M-V + LR-HF
 Correlation:  1.0000 wB97M-V
 Using SG-2 standard quadrature grid
 Nonlocal Correlation:  VV10 with C = 0.0100 and b = 6.00 and scale = 1.00000
 Grid used for NLC:  SG-1 standard quadrature
 
 Citation of the SMD model:
 Marenich, A.V.; Cramer, C.J.; Truhlar, D.G.
 J. Phys. Chem. B 2009, 113, 6378-6396.
 iSolventCode=           1
 Solvent: water                                                           
 
 vradii
            1           2           3           4           5           6
    1   1.8500000   1.5200000   1.8500000   1.5200000   1.8500000   1.5200000
            7           8           9          10          11          12
    1   1.2000000   1.2000000   1.2000000   1.2000000   1.5200000   1.2000000
           13          14          15          16
    1   1.5200000   1.5200000   1.2000000   1.2000000
 -------------------------------------------------------
 OpenMP BLAS3 based DFT computing Module                
 Release: version 1.0, May 2013, Q-Chem Inc. Pittsburgh 
 -------------------------------------------------------
 A unrestricted SCF calculation will be
 performed using Roothaan-Hall, DIIS, GDM
 SCF converges when RMS gradient is below 1.0e-07
 ---------------------------------------
  Cycle       Energy         DIIS error
 ---------------------------------------
    1    -569.7232517744      2.49e-04  Roothaan Step
 ---------------------------------------
  Cycle       Energy         DIIS error
 ---------------------------------------
    1    -569.7614670000      2.69e-04  
    2    -569.7671481143      1.90e-04  Done DIIS. Switching to GDM
 ---------------------------------------
  Cycle       Energy        RMS Gradient
 ---------------------------------------
    1    -569.7671481143      5.15e-03   Normal BFGS step
    2    -569.7673484268      7.21e-03   Normal BFGS step
    3    -569.7689916657      6.32e-04   Normal BFGS step
    4    -569.7690056184      5.68e-04   Normal BFGS step
    5    -569.7690202766      2.77e-04   Normal BFGS step
    6    -569.7690206718      9.49e-05   Normal BFGS step
    7    -569.7690210108      7.85e-05   Normal BFGS step
    8    -569.7690210396      7.24e-05   Normal BFGS step
    9    -569.7690210674      6.68e-05   Normal BFGS step
   10    -569.7690210931      5.85e-05   Normal BFGS step
   11    -569.7690211329      8.74e-05   Normal BFGS step
   12    -569.7690211789      7.77e-05   Normal BFGS step
   13    -569.7690212029      4.40e-05   Normal BFGS step
   14    -569.7690212097      6.65e-06   Normal BFGS step
   15    -569.7690212105      3.13e-06   Normal BFGS step
   16    -569.7690212106      1.88e-06   Normal BFGS step
   17    -569.7690212107      1.41e-06   Normal BFGS step
   18    -569.7690212107      6.97e-07   Normal BFGS step
   19    -569.7690212107      1.98e-07   Normal BFGS step
   20    -569.7690212107      9.04e-08  Convergence criterion met
 ---------------------------------------
 SCF time:   CPU 2015.12s  wall 140.00s 
<S^2> =          0.753876847
(3)  G-ENP(liq) elect-nuc-pol free energy of system     -569.769021211 a.u.
(4)  G-CDS(liq) cavity-dispersion-solvent structure 
     free energy                                                3.2711 kcal/mol
(6)  G-S(liq) free energy of system                     -569.763808384 a.u.
 SCF   energy in the final basis set =     -569.7638083840
 Total energy in the final basis set =     -569.7638083840
 
 --------------------------------------------------------------
 
                    Orbital Energies (a.u.)
 --------------------------------------------------------------
 
 Alpha MOs
 -- Occupied --
-19.4069 -19.4003 -19.3997 -19.3633 -19.3505 -19.3486 -10.4647 -10.4513
-10.4031  -1.2820  -1.2154  -1.1927  -1.1697  -1.1399  -1.0410  -0.8820
 -0.7986  -0.7376  -0.6959  -0.6570  -0.6513  -0.6318  -0.6036  -0.5888
 -0.5772  -0.5579  -0.5479  -0.5344  -0.4963  -0.4689  -0.4569  -0.4437
 -0.4370  -0.4311  -0.4130  -0.4070  -0.3857
 -- Virtual --
  0.0266   0.0386   0.0415   0.0482   0.0660   0.0705   0.0812   0.0922
  0.0963   0.1214   0.1307   0.1357   0.1380   0.1403   0.1461   0.1525
  0.1647   0.1744   0.1760   0.1980   0.2079   0.2201   0.2299   0.2423
  0.2467   0.2547   0.2596   0.2702   0.2726   0.2808   0.2902   0.2980
  0.3153   0.3173   0.3234   0.3253   0.3347   0.3401   0.3453   0.3508
  0.3600   0.3661   0.3750   0.3791   0.3843   0.3868   0.4002   0.4077
  0.4103   0.4191   0.4315   0.4395   0.4482   0.4560   0.4635   0.4687
  0.4933   0.5323   0.5670   0.5747   0.5907   0.6145   0.6275   0.6331
  0.6344   0.6541   0.6655   0.6782   0.6846   0.7161   0.7283   0.7363
  0.7497   0.7604   0.7775   0.8001   0.8372   0.8572   0.8768   0.8943
  0.9222   0.9344   0.9414   0.9713   0.9963   1.0171   1.0468   1.0684
  1.0779   1.0859   1.1103   1.1177   1.1346   1.1399   1.1414   1.1686
  1.1813   1.1883   1.1944   1.1969   1.2108   1.2189   1.2350   1.2419
  1.2453   1.2639   1.2801   1.2942   1.3112   1.3245   1.3354   1.3470
  1.3588   1.3703   1.3991   1.4077   1.4400   1.4497   1.4674   1.4839
  1.4969   1.5073   1.5206   1.5308   1.5558   1.5735   1.5878   1.6106
  1.6306   1.6635   1.6687   1.6792   1.7027   1.7182   1.7524   1.7867
  1.8137   1.8358   1.8615   1.8999   1.9236   1.9362   1.9506   1.9790
  2.0061   2.0165   2.0562   2.0896   2.1206   2.1569   2.1794   2.2210
  2.2547   2.2909   2.3016   2.3444   2.3665   2.3987   2.4043   2.4520
  2.4541   2.4764   2.4862   2.5181   2.5394   2.5809   2.6217   2.6837
  2.7624   2.7913   2.8057   2.8374   2.8468   2.8845   2.9138   3.0041
  3.0552   3.0977   3.1353   3.1598   3.2008   3.2198   3.2467   3.2478
  3.3145   3.3454   3.3897   3.3944   3.4187   3.4425   3.4972   3.5300
  3.5537   3.5724   3.6093   3.6409   3.6699   3.6723   3.6934   3.7227
  3.7381   3.7571   3.8024   3.8065   3.8192   3.8378   3.8498   3.8886
  3.9042   3.9130   3.9377   3.9517   3.9665   3.9773   4.0203   4.0622
  4.0809   4.1358   4.1524   4.1777   4.2225   4.2456   4.2572   4.2996
  4.3068   4.3320   4.3399   4.3650   4.4043   4.4201   4.4484   4.4611
  4.5418   4.5562   4.5718   4.6322   4.7138   4.7497   4.8472   4.9288
  5.0104   5.0456   5.1118   5.1257   5.1515   5.2052   5.2156   5.2228
  5.2386   5.2620   5.2691   5.2748   5.2887   5.3081   5.3103   5.3398
  5.3453   5.3479   5.3657   5.3732   5.3988   5.4107   5.4311   5.4409
  5.4791   5.4877   5.5118   5.5463   5.5558   5.5759   5.5991   5.6059
  5.6300   5.6391   5.6689   5.6749   5.7108   5.7552   5.7787   5.8096
  5.8832   5.9295   5.9929   6.0132   6.0327   6.0701   6.0926   6.1458
  6.1707   6.2475   6.4825   6.5782   6.7193   6.7622   6.8113   6.8521
  6.9006   6.9248   7.0154   7.0353   7.0775   7.0923   7.1170   7.1488
  7.2386   7.2607   7.2638   7.2741   7.2914   7.3156   7.3187   7.3553
  7.4087   7.4122   7.4232   7.4481   7.4943   7.5105   7.5753   7.5962
  7.6672   7.6771   7.6854   7.7734   7.8219   7.8575   7.8758   7.9076
  8.0117   8.1891  24.6899  24.8174  24.8700  50.4808  50.5159  50.5830
 50.6195  50.6368  50.6839
 
 Beta MOs
 -- Occupied --
-19.4069 -19.3997 -19.3777 -19.3633 -19.3504 -19.3486 -10.4647 -10.4513
-10.4033  -1.2817  -1.2148  -1.1885  -1.1401  -1.1238  -1.0406  -0.8772
 -0.7886  -0.7347  -0.6944  -0.6553  -0.6473  -0.6271  -0.5868  -0.5798
 -0.5709  -0.5429  -0.5312  -0.5211  -0.4934  -0.4657  -0.4546  -0.4367
 -0.4231  -0.4132  -0.4066  -0.3781
 -- Virtual --
 -0.0651   0.0268   0.0387   0.0418   0.0484   0.0663   0.0710   0.0813
  0.0929   0.0969   0.1218   0.1311   0.1360   0.1391   0.1407   0.1472
  0.1528   0.1652   0.1759   0.1765   0.1986   0.2092   0.2211   0.2327
  0.2440   0.2476   0.2576   0.2604   0.2708   0.2732   0.2809   0.2936
  0.2996   0.3167   0.3195   0.3249   0.3265   0.3357   0.3406   0.3456
  0.3511   0.3618   0.3677   0.3772   0.3798   0.3847   0.3876   0.4006
  0.4096   0.4107   0.4194   0.4320   0.4399   0.4485   0.4569   0.4649
  0.4728   0.4937   0.5332   0.5703   0.5767   0.5930   0.6193   0.6279
  0.6337   0.6369   0.6548   0.6666   0.6800   0.6861   0.7175   0.7307
  0.7370   0.7509   0.7632   0.7782   0.8008   0.8375   0.8593   0.8771
  0.8950   0.9239   0.9354   0.9419   0.9725   0.9977   1.0205   1.0477
  1.0701   1.0788   1.0891   1.1131   1.1211   1.1379   1.1409   1.1466
  1.1702   1.1858   1.1931   1.1965   1.2020   1.2135   1.2264   1.2369
  1.2461   1.2489   1.2665   1.2837   1.2963   1.3124   1.3274   1.3374
  1.3518   1.3613   1.3753   1.4024   1.4105   1.4418   1.4557   1.4704
  1.4912   1.4992   1.5087   1.5214   1.5334   1.5597   1.5750   1.5917
  1.6130   1.6336   1.6690   1.6738   1.6809   1.7130   1.7220   1.7577
  1.7895   1.8153   1.8495   1.8758   1.9060   1.9349   1.9432   1.9526
  1.9801   2.0084   2.0194   2.0579   2.0950   2.1242   2.1660   2.1821
  2.2221   2.2555   2.2943   2.3116   2.3455   2.3677   2.4029   2.4091
  2.4536   2.4561   2.4775   2.4877   2.5269   2.5409   2.5827   2.6267
  2.6842   2.7678   2.7965   2.8081   2.8388   2.8473   2.8850   2.9150
  3.0052   3.0567   3.0992   3.1390   3.1625   3.2055   3.2217   3.2478
  3.2522   3.3156   3.3466   3.3905   3.3943   3.4202   3.4464   3.4990
  3.5346   3.5557   3.5731   3.6121   3.6415   3.6704   3.6747   3.6952
  3.7252   3.7400   3.7589   3.8028   3.8078   3.8205   3.8380   3.8504
  3.8900   3.9045   3.9156   3.9395   3.9536   3.9670   3.9820   4.0219
  4.0639   4.0835   4.1376   4.1567   4.1808   4.2245   4.2470   4.2595
  4.3015   4.3108   4.3333   4.3502   4.3776   4.4060   4.4276   4.4524
  4.4660   4.5471   4.5636   4.5805   4.6362   4.7146   4.7509   4.8485
  4.9396   5.0167   5.0462   5.1668   5.1827   5.1992   5.2162   5.2326
  5.2423   5.2669   5.2710   5.2792   5.2833   5.2905   5.3137   5.3187
  5.3431   5.3542   5.3713   5.3781   5.3843   5.4115   5.4253   5.4384
  5.4454   5.4894   5.5031   5.5153   5.5495   5.5586   5.5789   5.6027
  5.6152   5.6332   5.6482   5.6713   5.6762   5.7113   5.7567   5.7798
  5.8109   5.8932   5.9387   6.0034   6.0332   6.0401   6.0750   6.0955
  6.1466   6.1722   6.2485   6.4834   6.5786   6.7339   6.7713   6.8187
  6.8577   6.9980   7.0156   7.0213   7.0383   7.0779   7.0948   7.1201
  7.1502   7.2431   7.2641   7.2684   7.2900   7.2992   7.3168   7.3471
  7.3664   7.4105   7.4177   7.4439   7.4612   7.5016   7.5159   7.5764
  7.5971   7.6674   7.6829   7.7228   7.7776   7.8221   7.8589   7.8761
  7.9078   8.0119   8.1892  24.6899  24.8173  24.8700  50.4844  50.5257
 50.5850  50.6196  50.6369  50.6841
 --------------------------------------------------------------
 
          Ground-State Mulliken Net Atomic Charges

     Atom                 Charge (a.u.)    Spin (a.u.)
  --------------------------------------------------------
      1 C                    -0.111424       0.000691
      2 O                    -0.425097       0.001943
      3 C                     0.172094       0.001638
      4 O                    -0.391728       0.001072
      5 C                    -0.316521      -0.003055
      6 O                    -0.205400       0.867848
      7 H                     0.293209       0.000293
      8 H                     0.340621       0.000623
      9 H                     0.278309       0.084374
     10 H                     0.264442       0.043527
     11 O                    -0.449258       0.000129
     12 H                     0.348555      -0.000141
     13 O                    -0.198797       0.000025
     14 O                    -0.273225       0.002864
     15 H                     0.332344      -0.001549
     16 H                     0.341875      -0.000283
  --------------------------------------------------------
  Sum of atomic charges =     0.000000
  Sum of spin   charges =     1.000000

 -----------------------------------------------------------------
                    Cartesian Multipole Moments
 -----------------------------------------------------------------
    Charge (ESU x 10^10)
                 0.0000
    Dipole Moment (Debye)
         X      -1.7416      Y       3.9912      Z      -0.3215
       Tot       4.3665
    Quadrupole Moments (Debye-Ang)
        XX     -60.2198     XY      15.8890     YY     -56.5112
        XZ       2.3174     YZ      -8.5991     ZZ     -55.4191
    Octopole Moments (Debye-Ang^2)
       XXX    -560.3306    XXY      96.4766    XYY    -191.6962
       YYY      80.0462    XXZ      11.3329    XYZ     -40.5797
       YYZ      14.6216    XZZ    -192.8466    YZZ      33.1957
       ZZZ      39.3131
    Hexadecapole Moments (Debye-Ang^3)
      XXXX   -4115.5294   XXXY     540.7545   XXYY    -820.2046
      XYYY     195.7494   YYYY    -485.8994   XXXZ      41.0986
      XXYZ    -214.3578   XYYZ      28.4454   YYYZ    -124.8164
      XXZZ    -807.2139   XYZZ      79.1921   YYZZ    -183.2783
      XZZZ     135.5844   YZZZ    -119.1550   ZZZZ    -400.5945
 -----------------------------------------------------------------
 Calculating analytic gradient of the SCF energy
 Gradient of CDS energy
            1           2           3           4           5           6
    1  -0.0019378   0.0022707  -0.0000533   0.0000542   0.0043318  -0.0044529
    2  -0.0024558  -0.0006050  -0.0025735   0.0025943   0.0025467  -0.0017375
    3   0.0000201  -0.0009067   0.0032412  -0.0034974   0.0053367  -0.0050447
            7           8           9          10          11          12
    1   0.0002325  -0.0005073  -0.0001493   0.0001491  -0.0001716  -0.0000317
    2   0.0000528   0.0000908  -0.0002140  -0.0001746   0.0031398  -0.0004866
    3  -0.0000937  -0.0000333   0.0000734  -0.0002189   0.0007815   0.0000843
           13          14          15          16
    1  -0.0000896  -0.0001904   0.0001327   0.0004129
    2  -0.0000441  -0.0001792  -0.0001851   0.0002309
    3  -0.0000756   0.0001434   0.0004075  -0.0002179
 Gradient of SCF Energy
            1           2           3           4           5           6
    1   0.0000433   0.0091460  -0.0015739  -0.0044160   0.0081075   0.0020936
    2  -0.0025778  -0.0026805   0.0046238  -0.0050469  -0.0144607   0.0027158
    3   0.0062983   0.0133108  -0.0006388  -0.0061173   0.0083350   0.0010421
            7           8           9          10          11          12
    1  -0.0028283  -0.0097763  -0.0076193   0.0012544   0.0043696  -0.0021529
    2   0.0062862   0.0020252   0.0032806   0.0086890  -0.0016890  -0.0013614
    3  -0.0046503  -0.0113262   0.0027786  -0.0113433  -0.0055262   0.0025884
           13          14          15          16
    1   0.0002293  -0.0071927   0.0032624   0.0070533
    2  -0.0047073  -0.0140949   0.0035666   0.0154313
    3   0.0011614  -0.0077669   0.0066433   0.0052111
 Max gradient component =       1.543E-02
 RMS gradient           =       6.677E-03
 Computing fast CPCM-SWIG gradient
 Updating gradient with PCM contributions...
 -- total gradient after adding PCM contribution --
---------------------------------------------------
  Atom         X              Y              Z     
---------------------------------------------------
   1      -0.001045      -0.000032       0.000067
   2       0.000510      -0.000012      -0.000087
   3       0.000137       0.000069       0.000228
   4      -0.000028       0.000009      -0.000085
   5       0.000180      -0.000003       0.000183
   6      -0.000100      -0.000031      -0.000156
   7       0.000117       0.000035      -0.000025
   8       0.000039      -0.000017      -0.000063
   9      -0.000027       0.000049      -0.000041
  10      -0.000031       0.000023      -0.000041
  11       0.000104       0.000005      -0.000027
  12      -0.000026      -0.000020       0.000061
  13       0.000150      -0.000031      -0.000027
  14      -0.000018      -0.000065      -0.000030
  15       0.000019       0.000034       0.000022
  16       0.000017      -0.000013       0.000021
---------------------------------------------------
 Number of fixed atoms: 0
 Gradient time:  CPU 260.31 s  wall 21.65 s
 ----------------------------------------------------------------
             Standard Nuclear Orientation (Angstroms)
    I     Atom           X                Y                Z
 ----------------------------------------------------------------
    1      C       2.4059378213    -0.9687823144    -0.9038794469
    2      O       1.1817798523    -0.6899798573    -0.2701675655
    3      C       3.5101019648    -0.5363950631     0.0644541846
    4      O       3.4819387830    -1.3814542241     1.1662456594
    5      C       3.3968134086     0.9275118337     0.4788115675
    6      O       4.2801005527     1.2527400433     1.4738979213
    7      H       2.4959255138    -0.4175010840    -1.8365842669
    8      H       0.4858874715    -0.7205886004    -0.9364777731
    9      H       2.3915221663     1.1195409226     0.8909704077
   10      H       3.4890946448     1.6195655302    -0.3669892896
   11      O       2.5280477682    -2.3288362048    -1.2377351365
   12      H       2.5572663728    -2.8406283606    -0.4182018106
   13      O       4.8016417842    -0.7941657620    -0.5210030551
   14      O       4.9498229137    -0.0040302915    -1.6997553775
   15      H       3.9968727551    -0.9696283648     1.8752359083
   16      H       5.5202789268     0.7172239974    -1.3953234273
 ----------------------------------------------------------------
 Nuclear Repulsion Energy =         529.23459300 hartrees
 There are       37 alpha and       36 beta electrons
 Discretize the solute cavity surface with Lebedev spheres
	Using 110 Lebedev grid points for each H atom
	Using 194 Lebedev grid points for other atoms
	Atomic van der Waals radii will be scaled by 1.20
 Remove points where switching function is < 1.0e-08
 Keep 1281 surface tesserae and discard 1235 interior tesserae
 Molecular Surface Area = 144.125 Angst**2
 Requested basis set is 6-311++G(2df,2p)
 There are 114 shells and 376 basis functions
 A cutoff of  1.0D-12 yielded   6009 shell pairs
 There are     65410 function pairs (     81739 Cartesian)
 Smallest overlap matrix eigenvalue = 1.28E-05
 Guess MOs from SCF MO coefficient file

 -----------------------------------------------------------------------
  General SCF calculation program by
  Eric Jon Sundstrom, Paul Horn, Yuezhi Mao, Dmitri Zuev, Alec White,
  David Stuck, Shaama M.S., Shane Yost, Joonho Lee, David Small,
  Daniel Levine, Susi Lehtola, Hugh Burton, Evgeny Epifanovsky,
  Bang C. Huynh
 -----------------------------------------------------------------------
 Exchange:     0.1500 Hartree-Fock + 1.0000 wB97M-V + LR-HF
 Correlation:  1.0000 wB97M-V
 Using SG-2 standard quadrature grid
 Nonlocal Correlation:  VV10 with C = 0.0100 and b = 6.00 and scale = 1.00000
 Grid used for NLC:  SG-1 standard quadrature
 
 Citation of the SMD model:
 Marenich, A.V.; Cramer, C.J.; Truhlar, D.G.
 J. Phys. Chem. B 2009, 113, 6378-6396.
 iSolventCode=           1
 Solvent: water                                                           
 
 vradii
            1           2           3           4           5           6
    1   1.8500000   1.5200000   1.8500000   1.5200000   1.8500000   1.5200000
            7           8           9          10          11          12
    1   1.2000000   1.2000000   1.2000000   1.2000000   1.5200000   1.2000000
           13          14          15          16
    1   1.5200000   1.5200000   1.2000000   1.2000000
 -------------------------------------------------------
 OpenMP BLAS3 based DFT computing Module                
 Release: version 1.0, May 2013, Q-Chem Inc. Pittsburgh 
 -------------------------------------------------------
 A unrestricted SCF calculation will be
 performed using Roothaan-Hall, DIIS, GDM
 SCF converges when RMS gradient is below 1.0e-07
 ---------------------------------------
  Cycle       Energy         DIIS error
 ---------------------------------------
    1    -569.7232259078      2.50e-04  Roothaan Step
 ---------------------------------------
  Cycle       Energy         DIIS error
 ---------------------------------------
    1    -569.7614371715      2.69e-04  
    2    -569.7671206121      1.91e-04  Done DIIS. Switching to GDM
 ---------------------------------------
  Cycle       Energy        RMS Gradient
 ---------------------------------------
    1    -569.7671206121      5.15e-03   Normal BFGS step
    2    -569.7673181463      7.24e-03   Normal BFGS step
    3    -569.7689834296      6.31e-04   Normal BFGS step
    4    -569.7689974082      5.68e-04   Normal BFGS step
    5    -569.7690120683      2.77e-04   Normal BFGS step
    6    -569.7690124660      1.00e-04   Normal BFGS step
    7    -569.7690128064      8.37e-05   Normal BFGS step
    8    -569.7690128369      7.72e-05   Normal BFGS step
    9    -569.7690128685      7.07e-05   Normal BFGS step
   10    -569.7690128986      6.11e-05   Normal BFGS step
   11    -569.7690129447      9.49e-05   Normal BFGS step
   12    -569.7690129957      8.18e-05   Normal BFGS step
   13    -569.7690130211      4.45e-05   Normal BFGS step
   14    -569.7690130280      6.03e-06   Normal BFGS step
   15    -569.7690130289      2.91e-06   Normal BFGS step
   16    -569.7690130290      1.82e-06   Normal BFGS step
   17    -569.7690130290      1.36e-06   Normal BFGS step
   18    -569.7690130290      6.90e-07   Normal BFGS step
   19    -569.7690130290      2.05e-07   Normal BFGS step
   20    -569.7690130290      8.86e-08  Convergence criterion met
 ---------------------------------------
 SCF time:   CPU 2009.92s  wall 140.00s 
<S^2> =          0.753876730
(3)  G-ENP(liq) elect-nuc-pol free energy of system     -569.769013029 a.u.
(4)  G-CDS(liq) cavity-dispersion-solvent structure 
     free energy                                                3.2660 kcal/mol
(6)  G-S(liq) free energy of system                     -569.763808247 a.u.
 SCF   energy in the final basis set =     -569.7638082472
 Total energy in the final basis set =     -569.7638082472
 
 --------------------------------------------------------------
 
                    Orbital Energies (a.u.)
 --------------------------------------------------------------
 
 Alpha MOs
 -- Occupied --
-19.4069 -19.4003 -19.3997 -19.3633 -19.3505 -19.3485 -10.4648 -10.4513
-10.4031  -1.2821  -1.2153  -1.1926  -1.1697  -1.1396  -1.0410  -0.8822
 -0.7987  -0.7377  -0.6959  -0.6569  -0.6514  -0.6318  -0.6036  -0.5888
 -0.5772  -0.5580  -0.5479  -0.5343  -0.4963  -0.4690  -0.4570  -0.4438
 -0.4370  -0.4312  -0.4130  -0.4070  -0.3858
 -- Virtual --
  0.0266   0.0386   0.0415   0.0482   0.0660   0.0705   0.0812   0.0922
  0.0963   0.1214   0.1307   0.1357   0.1380   0.1403   0.1461   0.1525
  0.1648   0.1744   0.1760   0.1980   0.2078   0.2202   0.2299   0.2422
  0.2467   0.2547   0.2596   0.2703   0.2726   0.2808   0.2902   0.2980
  0.3153   0.3173   0.3234   0.3254   0.3348   0.3401   0.3453   0.3508
  0.3600   0.3661   0.3749   0.3792   0.3843   0.3868   0.4001   0.4077
  0.4103   0.4191   0.4315   0.4395   0.4482   0.4560   0.4635   0.4687
  0.4933   0.5323   0.5670   0.5748   0.5907   0.6145   0.6275   0.6331
  0.6344   0.6541   0.6655   0.6782   0.6846   0.7161   0.7284   0.7363
  0.7497   0.7604   0.7777   0.8001   0.8372   0.8571   0.8768   0.8943
  0.9222   0.9344   0.9414   0.9713   0.9962   1.0171   1.0467   1.0684
  1.0779   1.0859   1.1104   1.1176   1.1346   1.1400   1.1416   1.1685
  1.1814   1.1883   1.1944   1.1968   1.2109   1.2189   1.2350   1.2418
  1.2453   1.2638   1.2801   1.2943   1.3112   1.3246   1.3355   1.3471
  1.3587   1.3703   1.3991   1.4077   1.4399   1.4497   1.4676   1.4839
  1.4969   1.5074   1.5207   1.5308   1.5558   1.5735   1.5879   1.6107
  1.6308   1.6635   1.6689   1.6792   1.7027   1.7183   1.7525   1.7869
  1.8137   1.8357   1.8616   1.9000   1.9236   1.9362   1.9506   1.9790
  2.0061   2.0166   2.0561   2.0896   2.1206   2.1571   2.1793   2.2206
  2.2546   2.2907   2.3017   2.3443   2.3663   2.3985   2.4039   2.4519
  2.4541   2.4763   2.4861   2.5179   2.5392   2.5811   2.6216   2.6837
  2.7625   2.7913   2.8055   2.8373   2.8466   2.8844   2.9138   3.0046
  3.0552   3.0979   3.1354   3.1598   3.2007   3.2202   3.2467   3.2477
  3.3142   3.3450   3.3897   3.3943   3.4187   3.4421   3.4971   3.5300
  3.5535   3.5725   3.6092   3.6411   3.6699   3.6724   3.6934   3.7225
  3.7380   3.7570   3.8024   3.8066   3.8192   3.8378   3.8499   3.8887
  3.9042   3.9130   3.9379   3.9514   3.9666   3.9775   4.0207   4.0625
  4.0809   4.1360   4.1524   4.1779   4.2228   4.2457   4.2576   4.3000
  4.3070   4.3321   4.3400   4.3650   4.4044   4.4204   4.4488   4.4614
  4.5421   4.5564   4.5726   4.6328   4.7139   4.7497   4.8473   4.9292
  5.0105   5.0456   5.1118   5.1258   5.1515   5.2051   5.2155   5.2229
  5.2385   5.2619   5.2689   5.2748   5.2888   5.3081   5.3103   5.3398
  5.3452   5.3478   5.3657   5.3733   5.3988   5.4108   5.4312   5.4413
  5.4791   5.4876   5.5118   5.5461   5.5560   5.5761   5.5992   5.6059
  5.6300   5.6391   5.6689   5.6747   5.7108   5.7552   5.7787   5.8091
  5.8831   5.9294   5.9926   6.0128   6.0325   6.0700   6.0920   6.1453
  6.1675   6.2475   6.4827   6.5776   6.7187   6.7606   6.8112   6.8521
  6.9006   6.9248   7.0154   7.0354   7.0774   7.0922   7.1170   7.1488
  7.2385   7.2606   7.2637   7.2741   7.2914   7.3155   7.3187   7.3552
  7.4084   7.4122   7.4232   7.4481   7.4942   7.5106   7.5751   7.5962
  7.6669   7.6770   7.6854   7.7732   7.8220   7.8575   7.8759   7.9073
  8.0116   8.1891  24.6894  24.8170  24.8707  50.4808  50.5159  50.5829
 50.6193  50.6367  50.6837
 
 Beta MOs
 -- Occupied --
-19.4069 -19.3997 -19.3777 -19.3633 -19.3503 -19.3485 -10.4648 -10.4513
-10.4033  -1.2818  -1.2146  -1.1884  -1.1399  -1.1238  -1.0407  -0.8774
 -0.7887  -0.7348  -0.6944  -0.6553  -0.6473  -0.6271  -0.5868  -0.5798
 -0.5709  -0.5429  -0.5311  -0.5212  -0.4934  -0.4658  -0.4546  -0.4367
 -0.4231  -0.4131  -0.4067  -0.3781
 -- Virtual --
 -0.0651   0.0268   0.0387   0.0418   0.0484   0.0663   0.0710   0.0812
  0.0929   0.0969   0.1218   0.1311   0.1360   0.1391   0.1407   0.1472
  0.1528   0.1652   0.1759   0.1765   0.1986   0.2090   0.2211   0.2327
  0.2439   0.2475   0.2575   0.2604   0.2709   0.2733   0.2809   0.2935
  0.2996   0.3167   0.3195   0.3248   0.3266   0.3358   0.3406   0.3456
  0.3512   0.3618   0.3677   0.3772   0.3798   0.3848   0.3877   0.4005
  0.4096   0.4107   0.4193   0.4320   0.4399   0.4485   0.4569   0.4648
  0.4728   0.4937   0.5332   0.5703   0.5768   0.5930   0.6194   0.6279
  0.6337   0.6369   0.6548   0.6665   0.6800   0.6861   0.7176   0.7308
  0.7370   0.7509   0.7632   0.7784   0.8008   0.8375   0.8593   0.8771
  0.8950   0.9239   0.9353   0.9419   0.9725   0.9976   1.0206   1.0476
  1.0701   1.0789   1.0891   1.1132   1.1210   1.1378   1.1410   1.1467
  1.1701   1.1858   1.1931   1.1964   1.2020   1.2136   1.2264   1.2369
  1.2461   1.2488   1.2664   1.2837   1.2964   1.3124   1.3274   1.3374
  1.3518   1.3612   1.3753   1.4023   1.4105   1.4418   1.4556   1.4705
  1.4912   1.4992   1.5087   1.5215   1.5335   1.5597   1.5750   1.5918
  1.6132   1.6338   1.6690   1.6739   1.6809   1.7131   1.7221   1.7578
  1.7897   1.8154   1.8493   1.8759   1.9060   1.9349   1.9432   1.9526
  1.9800   2.0084   2.0194   2.0578   2.0949   2.1242   2.1661   2.1820
  2.2218   2.2555   2.2941   2.3116   2.3454   2.3676   2.4028   2.4087
  2.4535   2.4561   2.4774   2.4876   2.5266   2.5407   2.5830   2.6266
  2.6841   2.7678   2.7966   2.8080   2.8386   2.8471   2.8849   2.9149
  3.0056   3.0567   3.0994   3.1392   3.1624   3.2054   3.2220   3.2478
  3.2521   3.3152   3.3463   3.3904   3.3943   3.4202   3.4460   3.4989
  3.5346   3.5554   3.5732   3.6120   3.6416   3.6704   3.6750   3.6951
  3.7250   3.7399   3.7588   3.8028   3.8079   3.8206   3.8381   3.8505
  3.8900   3.9045   3.9155   3.9397   3.9534   3.9671   3.9822   4.0223
  4.0642   4.0836   4.1378   4.1567   4.1810   4.2247   4.2471   4.2600
  4.3019   4.3110   4.3334   4.3503   4.3777   4.4062   4.4279   4.4527
  4.4664   4.5476   4.5638   4.5812   4.6367   4.7147   4.7509   4.8486
  4.9399   5.0168   5.0462   5.1668   5.1827   5.1992   5.2162   5.2327
  5.2422   5.2668   5.2709   5.2792   5.2833   5.2905   5.3137   5.3187
  5.3430   5.3540   5.3713   5.3784   5.3843   5.4116   5.4253   5.4385
  5.4458   5.4893   5.5031   5.5153   5.5493   5.5588   5.5790   5.6028
  5.6152   5.6331   5.6482   5.6713   5.6760   5.7113   5.7567   5.7798
  5.8104   5.8930   5.9385   6.0030   6.0331   6.0397   6.0750   6.0948
  6.1459   6.1692   6.2485   6.4836   6.5780   6.7327   6.7704   6.8186
  6.8576   6.9980   7.0156   7.0213   7.0384   7.0778   7.0948   7.1201
  7.1502   7.2429   7.2640   7.2684   7.2899   7.2991   7.3167   7.3471
  7.3663   7.4102   7.4177   7.4438   7.4612   7.5015   7.5159   7.5762
  7.5971   7.6671   7.6828   7.7228   7.7775   7.8222   7.8589   7.8761
  7.9075   8.0119   8.1892  24.6893  24.8170  24.8707  50.4844  50.5257
 50.5848  50.6195  50.6368  50.6840
 --------------------------------------------------------------
 
          Ground-State Mulliken Net Atomic Charges

     Atom                 Charge (a.u.)    Spin (a.u.)
  --------------------------------------------------------
      1 C                    -0.111532       0.000691
      2 O                    -0.425357       0.001944
      3 C                     0.171731       0.001640
      4 O                    -0.391691       0.001072
      5 C                    -0.316247      -0.003056
      6 O                    -0.205393       0.867861
      7 H                     0.293731       0.000294
      8 H                     0.340613       0.000623
      9 H                     0.278339       0.084359
     10 H                     0.264520       0.043525
     11 O                    -0.449703       0.000129
     12 H                     0.348540      -0.000141
     13 O                    -0.198724       0.000025
     14 O                    -0.273077       0.002864
     15 H                     0.332356      -0.001549
     16 H                     0.341894      -0.000282
  --------------------------------------------------------
  Sum of atomic charges =     0.000000
  Sum of spin   charges =     1.000000

 -----------------------------------------------------------------
                    Cartesian Multipole Moments
 -----------------------------------------------------------------
    Charge (ESU x 10^10)
                 0.0000
    Dipole Moment (Debye)
         X      -1.7364      Y       3.9970      Z      -0.3213
       Tot       4.3698
    Quadrupole Moments (Debye-Ang)
        XX     -60.1933     XY      15.9008     YY     -56.5247
        XZ       2.3172     YZ      -8.6063     ZZ     -55.4129
    Octopole Moments (Debye-Ang^2)
       XXX    -560.2249    XXY      96.4979    XYY    -191.7282
       YYY      80.0727    XXZ      11.3329    XYZ     -40.5978
       YYZ      14.6418    XZZ    -192.8289    YZZ      33.1988
       ZZZ      39.3069
    Hexadecapole Moments (Debye-Ang^3)
      XXXX   -4115.1069   XXXY     540.7982   XXYY    -820.2761
      XYYY     195.8354   YYYY    -485.9410   XXXZ      41.1129
      XXYZ    -214.4071   XYYZ      28.5051   YYYZ    -124.8549
      XXZZ    -807.1525   XYZZ      79.2033   YYZZ    -183.2909
      XZZZ     135.5862   YZZZ    -119.1625   ZZZZ    -400.5462
 -----------------------------------------------------------------
[...]
 H          0.124 -0.156 -0.198   -0.009  0.301  0.108   -0.372  0.111  0.035
 O          0.212  0.140  0.094    0.023 -0.081 -0.024   -0.100  0.136  0.113
 H         -0.700  0.117  0.112   -0.101  0.021  0.045    0.017  0.308  0.217
 O         -0.046  0.015  0.035   -0.176 -0.096  0.148    0.214 -0.077  0.068
 O         -0.002 -0.019  0.032   -0.140 -0.122  0.258   -0.119 -0.007  0.095
 H          0.171 -0.104 -0.071   -0.030  0.271 -0.179    0.071  0.022 -0.087
 H         -0.152  0.086  0.063   -0.229 -0.064  0.277   -0.062 -0.000 -0.029
 TransDip  -0.278  0.007 -0.030   -0.141  0.158 -0.012    0.127  0.019 -0.061

 Mode:                16                     17                     18
 Frequency:       603.88                 703.67                 745.75
 Force Cnst:      1.0914                 0.8513                 0.9970
 Red. Mass:       5.0794                 2.9181                 3.0426
 IR Active:          YES                    YES                    YES
 IR Intens:       91.488                 48.556                  8.456
 Raman Active:       YES                    YES                    YES
               X      Y      Z        X      Y      Z        X      Y      Z
 C         -0.223 -0.127  0.010    0.076 -0.062  0.216   -0.017  0.031 -0.101
 O         -0.212  0.221  0.062   -0.036  0.024 -0.007    0.064 -0.031 -0.010
 C          0.034 -0.069 -0.092    0.043  0.074  0.070   -0.079 -0.051  0.013
 O         -0.014  0.048 -0.021   -0.020 -0.061 -0.068    0.011 -0.056  0.082
 C          0.125 -0.070 -0.027    0.040  0.239 -0.136    0.226 -0.044 -0.155
 O          0.004  0.069  0.063   -0.043 -0.074 -0.005   -0.042  0.023  0.051
 H         -0.349 -0.203 -0.044    0.172 -0.028  0.247    0.012  0.034 -0.099
 H         -0.309 -0.051  0.168    0.161 -0.083 -0.211   -0.054  0.040  0.112
 H          0.152 -0.353  0.207    0.139 -0.139  0.364    0.365 -0.439  0.474
 H         -0.179  0.018  0.031   -0.398  0.340 -0.071   -0.400 -0.076 -0.204
 O          0.205 -0.114 -0.092   -0.014 -0.025 -0.039   -0.010  0.014  0.020
 H         -0.179 -0.299 -0.194    0.005 -0.290 -0.208    0.028  0.152  0.106
 O          0.143  0.016  0.050    0.000 -0.017 -0.011   -0.161  0.119  0.040
 O         -0.027  0.010  0.021   -0.004 -0.006  0.003    0.034 -0.003 -0.022
 H          0.045  0.095 -0.090   -0.092 -0.264  0.099    0.114  0.029 -0.035
 H          0.042 -0.002 -0.083   -0.015  0.002  0.005    0.029 -0.004 -0.005
 TransDip  -0.158 -0.255 -0.063    0.102 -0.102  0.170   -0.022 -0.071 -0.057

 Mode:                19                     20                     21
 Frequency:       823.02                 987.55                1003.94
 Force Cnst:      1.8346                 1.8010                 3.7043
 Red. Mass:       4.5971                 3.1343                 6.2380
 IR Active:          YES                    YES                    YES
 IR Intens:       81.152                 68.028                 68.211
 Raman Active:       YES                    YES                    YES
               X      Y      Z        X      Y      Z        X      Y      Z
 C         -0.104  0.038 -0.241   -0.013  0.021 -0.046   -0.010  0.011 -0.020
 O         -0.002 -0.005  0.007   -0.041  0.009  0.003    0.013 -0.007 -0.005
 C         -0.047 -0.018  0.054    0.260  0.113 -0.063   -0.127  0.060  0.130
 O          0.022 -0.162  0.202   -0.010 -0.058  0.116    0.025  0.070 -0.086
 C         -0.080  0.287 -0.039    0.074  0.011  0.084    0.332 -0.025  0.317
 O         -0.004 -0.048 -0.003   -0.050 -0.036 -0.097   -0.245 -0.064 -0.251
 H         -0.198  0.002 -0.273   -0.219 -0.084 -0.130    0.066  0.000 -0.017
 H         -0.283  0.095  0.298   -0.065  0.009  0.026   -0.078  0.028  0.089
 H          0.004  0.298  0.198   -0.186 -0.269 -0.404    0.309  0.554  0.240
 H         -0.144  0.332 -0.005    0.077  0.370  0.340   -0.144  0.075  0.276
 O          0.023 -0.018  0.007    0.003 -0.047 -0.023   -0.003 -0.037 -0.010
 H         -0.018  0.296  0.208   -0.026  0.033  0.029    0.011 -0.017  0.002
 O          0.169 -0.108 -0.013   -0.114  0.099 -0.062    0.050 -0.091  0.075
 O         -0.001  0.050 -0.061    0.004 -0.056  0.066    0.004  0.054 -0.078
 H          0.087 -0.093  0.124   -0.096 -0.325  0.324   -0.005 -0.038 -0.003
 H          0.018  0.031 -0.052   -0.008 -0.038  0.048    0.001  0.032 -0.019
 TransDip  -0.196  0.211  0.022    0.187  0.121 -0.142   -0.165  0.077  0.192

 Mode:                22                     23                     24
 Frequency:      1035.10                1051.32                1166.76
 Force Cnst:      4.4387                 1.5833                 1.1497
 Red. Mass:       7.0315                 2.4314                 1.4334
 IR Active:          YES                    YES                    YES
 IR Intens:       11.134                158.260                223.922
 Raman Active:       YES                    YES                    YES
               X      Y      Z        X      Y      Z        X      Y      Z
 C          0.011 -0.004  0.028   -0.012  0.028 -0.077    0.043  0.036 -0.018
 O         -0.011  0.005  0.003   -0.021  0.002 -0.000   -0.046  0.014  0.037
 C          0.121  0.037 -0.115    0.038  0.179  0.223    0.133 -0.009 -0.056
 O          0.020 -0.032  0.014    0.031  0.076 -0.062   -0.010  0.002  0.014
 C         -0.026 -0.007 -0.033   -0.039 -0.069 -0.059   -0.040 -0.009  0.010
 O          0.043  0.011  0.015    0.027 -0.018  0.032   -0.021 -0.007  0.009
 H         -0.109 -0.055 -0.013    0.006 -0.017 -0.101   -0.202  0.044 -0.035
 H          0.100 -0.036 -0.112   -0.241  0.079  0.229    0.211 -0.064 -0.235
 H         -0.225 -0.432 -0.380   -0.038 -0.221 -0.029    0.249  0.571  0.445
 H          0.117  0.270  0.207   -0.052 -0.428 -0.330   -0.054 -0.345 -0.269
 O         -0.001  0.008  0.001   -0.001 -0.074 -0.032    0.004 -0.046 -0.022
 H         -0.006 -0.066 -0.047   -0.009  0.091  0.076   -0.024  0.142  0.102
 O         -0.156 -0.201  0.396    0.002 -0.041  0.005   -0.041 -0.002  0.017
 O          0.035  0.206 -0.330    0.001  0.014 -0.020    0.001  0.005 -0.013
 H         -0.017  0.002  0.020   -0.099 -0.508  0.351    0.015  0.006 -0.006
 H         -0.017  0.053  0.170   -0.020  0.022  0.001   -0.014 -0.016  0.071
 TransDip   0.072 -0.013 -0.078   -0.106 -0.070  0.382    0.424  0.152 -0.162

 Mode:                25                     26                     27
 Frequency:      1173.29                1222.09                1259.46
 Force Cnst:      1.3966                 1.2545                 1.8235
 Red. Mass:       1.7219                 1.4256                 1.9511
 IR Active:          YES                    YES                    YES
 IR Intens:       81.788                 64.408                175.338
 Raman Active:       YES                    YES                    YES
               X      Y      Z        X      Y      Z        X      Y      Z
 C          0.099  0.051 -0.032   -0.005  0.061  0.003    0.171  0.039 -0.073
 O         -0.094  0.017  0.056    0.015  0.018  0.042   -0.113  0.003  0.065
 C         -0.006 -0.103  0.022   -0.103  0.080  0.024   -0.019  0.121 -0.012
 O         -0.003  0.023 -0.034    0.004 -0.030  0.018   -0.023 -0.073  0.030
 C          0.003  0.031 -0.003    0.026 -0.008  0.003    0.020 -0.001  0.024
 O          0.007  0.005 -0.004    0.007  0.001 -0.001   -0.000 -0.005 -0.001
 H          0.510  0.440  0.238   -0.436  0.113 -0.004    0.320 -0.297 -0.261
 H         -0.104  0.010  0.060    0.541 -0.148 -0.511   -0.119  0.038  0.064
 H         -0.067 -0.122 -0.099   -0.101 -0.268 -0.185   -0.053 -0.123 -0.095
 H          0.055  0.198  0.138   -0.026 -0.019 -0.007   -0.075 -0.219 -0.165
 O          0.009 -0.109 -0.046    0.004 -0.074 -0.031   -0.012  0.001  0.022
 H         -0.017  0.462  0.328   -0.026  0.166  0.128    0.030 -0.381 -0.230
 O         -0.019  0.016  0.005    0.034 -0.012 -0.014    0.010 -0.013 -0.008
 O          0.003 -0.001 -0.004   -0.002 -0.001  0.010   -0.004 -0.001  0.006
 H         -0.002  0.064 -0.056    0.038  0.117 -0.085    0.109  0.450 -0.348
 H          0.008 -0.011  0.010    0.003  0.024 -0.060   -0.007  0.022 -0.040
 TransDip   0.164  0.214  0.105   -0.030  0.248 -0.061    0.253  0.095 -0.327

 Mode:                28                     29                     30
 Frequency:      1283.81                1314.45                1325.10
 Force Cnst:      2.4686                 1.5281                 1.6458
 Red. Mass:       2.5422                 1.5011                 1.5908
 IR Active:          YES                    YES                    YES
 IR Intens:      335.377                134.485                 20.055
 Raman Active:       YES                    YES                    YES
               X      Y      Z        X      Y      Z        X      Y      Z
 C         -0.123  0.206  0.128    0.008  0.021 -0.032    0.001  0.010  0.025
 O          0.088 -0.028 -0.098   -0.005  0.001  0.005   -0.001 -0.002  0.002
 C          0.067  0.044 -0.020    0.045 -0.110  0.097   -0.067  0.138 -0.100
 O         -0.030 -0.051  0.007   -0.008  0.022 -0.039    0.013 -0.029  0.047
 C         -0.006  0.027  0.027   -0.024  0.100  0.036   -0.036 -0.081 -0.049
 O         -0.003 -0.009 -0.005   -0.025 -0.007 -0.044   -0.022  0.019 -0.019
 H         -0.022  0.368  0.230   -0.237 -0.120 -0.137    0.250  0.094  0.094
 H         -0.330  0.072  0.350    0.051 -0.014 -0.053   -0.028  0.008  0.030
 H         -0.038 -0.054 -0.013   -0.006 -0.480  0.334    0.224 -0.093  0.532
 H         -0.010 -0.227 -0.184    0.673 -0.138 -0.054    0.629  0.139  0.233
 O          0.008 -0.141 -0.009    0.001  0.010  0.013   -0.001 -0.021 -0.008
 H          0.024 -0.226 -0.064    0.005 -0.119 -0.072    0.001  0.015  0.016
 O          0.003 -0.003  0.005   -0.023  0.015 -0.002    0.027 -0.024  0.000
 O         -0.001  0.001  0.001    0.005 -0.001 -0.005   -0.004  0.003  0.012
 H          0.089  0.427 -0.338    0.028  0.109 -0.106   -0.030 -0.143  0.136
 H         -0.007  0.014 -0.016   -0.006 -0.009  0.034   -0.006  0.058 -0.112
 TransDip  -0.250  0.523  0.088    0.208 -0.224  0.211    0.084  0.117 -0.003

 Mode:                31                     32                     33
 Frequency:      1341.49                1401.07                1410.23
 Force Cnst:      1.8844                 1.8121                 1.3252
 Red. Mass:       1.7773                 1.5668                 1.1309
 IR Active:          YES                    YES                    YES
 IR Intens:       14.456                 33.403                 83.402
 Raman Active:       YES                    YES                    YES
               X      Y      Z        X      Y      Z        X      Y      Z
 C          0.011  0.186 -0.056    0.051 -0.043  0.032   -0.004  0.000  0.001
 O         -0.014 -0.008  0.027   -0.003  0.004 -0.028    0.001 -0.000  0.002
 C         -0.019 -0.087  0.050    0.049  0.045  0.139   -0.025  0.024 -0.016
 O          0.016  0.035 -0.015   -0.024 -0.032 -0.026    0.002 -0.005  0.007
 C         -0.022 -0.062 -0.071   -0.023 -0.092 -0.081    0.005  0.000  0.003
 O          0.010  0.013  0.014    0.003  0.013  0.003   -0.002  0.000 -0.001
 H         -0.026  0.004 -0.178   -0.403 -0.134 -0.050    0.052  0.024  0.019
 H          0.119 -0.033 -0.116   -0.163  0.046  0.145    0.010 -0.003 -0.008
 H          0.073  0.255  0.012    0.110  0.214  0.088    0.001 -0.049  0.013
 H         -0.070  0.409  0.309    0.041  0.407  0.346    0.035 -0.037 -0.023
 O          0.004 -0.063  0.042   -0.006  0.009 -0.026   -0.000 -0.002  0.001
 H          0.043 -0.601 -0.312   -0.019  0.246  0.130    0.000 -0.010 -0.005
 O         -0.003  0.009 -0.001   -0.004  0.004 -0.008    0.043  0.041 -0.010
 O          0.002 -0.001 -0.005    0.001 -0.002 -0.009   -0.028 -0.020 -0.047
 H         -0.038 -0.211  0.159    0.077  0.403 -0.327   -0.002 -0.023  0.018
 H          0.008 -0.028  0.045   -0.006 -0.044  0.100   -0.062 -0.410  0.899
 TransDip  -0.056 -0.105  0.027   -0.005  0.168  0.078   -0.082 -0.158  0.232

 Mode:                34                     35                     36
 Frequency:      1437.70                1489.00                2959.04
 Force Cnst:      1.5965                 2.6259                 5.5068
 Red. Mass:       1.3110                 2.0102                 1.0675
 IR Active:          YES                    YES                    YES
 IR Intens:       80.050                 48.414                 50.066
 Raman Active:       YES                    YES                    YES
               X      Y      Z        X      Y      Z        X      Y      Z
 C          0.110 -0.074 -0.062    0.168  0.102  0.132   -0.000  0.000 -0.000
 O         -0.021  0.014 -0.020   -0.024 -0.005 -0.041   -0.000 -0.000 -0.000
 C         -0.024  0.013 -0.021   -0.106 -0.062 -0.100   -0.001 -0.002  0.001
 O          0.004  0.001  0.007    0.021  0.023  0.016    0.000  0.000 -0.000
 C          0.006  0.003  0.007    0.010  0.020  0.017   -0.064  0.026  0.024
 O         -0.000  0.000  0.001    0.003  0.003  0.006   -0.005 -0.002 -0.003
 H         -0.506  0.679  0.328   -0.512 -0.438 -0.229    0.000  0.001 -0.001
 H         -0.157  0.028  0.129   -0.333  0.082  0.292    0.000 -0.000  0.000
 H         -0.002 -0.024 -0.002   -0.025 -0.060 -0.027    0.899 -0.165 -0.361
 H         -0.002 -0.038 -0.028   -0.019 -0.068 -0.061   -0.042 -0.098  0.128
 O         -0.009  0.011  0.048   -0.007 -0.032 -0.043    0.000  0.000  0.000
 H         -0.008 -0.280 -0.141   -0.022  0.220  0.124   -0.000 -0.000 -0.000
 O         -0.000 -0.002 -0.001    0.014 -0.001  0.004    0.000 -0.000 -0.000
 O         -0.000  0.000  0.001   -0.002  0.001  0.001    0.000 -0.000 -0.000
 H         -0.010 -0.059  0.048   -0.047 -0.271  0.220   -0.002  0.002 -0.002
 H         -0.000  0.004 -0.007    0.003 -0.002 -0.002    0.000 -0.000 -0.001
 TransDip   0.110 -0.245 -0.100   -0.051  0.111  0.187    0.190  0.073  0.099

 Mode:                37                     38                     39
 Frequency:      3028.25                3131.87                3754.82
 Force Cnst:      5.8295                 6.2883                 8.8544
 Red. Mass:       1.0789                 1.0881                 1.0659
 IR Active:          YES                    YES                    YES
 IR Intens:        1.615                 20.196                145.621
 Raman Active:       YES                    YES                    YES
               X      Y      Z        X      Y      Z        X      Y      Z
 C         -0.000 -0.000  0.001    0.005  0.043 -0.074    0.000 -0.000  0.000
 O          0.000  0.000  0.000    0.000 -0.000  0.001   -0.000 -0.000 -0.000
 C          0.002 -0.000 -0.002    0.001  0.000 -0.000   -0.000 -0.000 -0.002
 O         -0.000 -0.000  0.000    0.000 -0.000  0.001   -0.032 -0.025 -0.046
 C          0.018  0.049 -0.061   -0.000  0.000 -0.001   -0.000 -0.000  0.000
 O         -0.001 -0.000 -0.003   -0.000 -0.000 -0.000    0.000  0.000  0.000
 H          0.001  0.004 -0.007   -0.070 -0.503  0.857    0.001 -0.000  0.001
 H          0.000  0.000  0.000   -0.000 -0.004 -0.006    0.001 -0.000  0.001
 H         -0.142  0.048  0.028   -0.001  0.001 -0.000    0.001  0.001 -0.001
 H         -0.086 -0.619  0.761   -0.001 -0.006  0.006   -0.000 -0.001 -0.001
 O          0.000  0.000  0.000   -0.000 -0.001  0.002    0.000  0.000  0.000
 H         -0.000 -0.000 -0.000   -0.000  0.002 -0.018   -0.000  0.000 -0.001
 O         -0.000  0.000  0.000   -0.000  0.000 -0.000   -0.000 -0.000  0.000
 O          0.000 -0.000 -0.000    0.001  0.000  0.000    0.007  0.009  0.004
 H          0.002 -0.003  0.002   -0.000 -0.001  0.000    0.515  0.396  0.731
 H         -0.001  0.001  0.002    0.001 -0.001  0.000   -0.117 -0.147 -0.064
 TransDip  -0.028 -0.002  0.029    0.053  0.085 -0.104    0.125  0.076  0.358

 Mode:                40                     41                     42
 Frequency:      3760.16                3783.99                3823.10
 Force Cnst:      8.9019                 8.9919                 9.1869
 Red. Mass:       1.0686                 1.0659                 1.0668
 IR Active:          YES                    YES                    YES
 IR Intens:      173.385                128.571                149.798
 Raman Active:       YES                    YES                    YES
               X      Y      Z        X      Y      Z        X      Y      Z
 C         -0.000 -0.000 -0.000   -0.000  0.001 -0.002   -0.000  0.000 -0.001
 O         -0.000 -0.000 -0.000   -0.001 -0.000 -0.001   -0.047 -0.001 -0.042
 C         -0.001  0.000 -0.000    0.000 -0.000 -0.000    0.000 -0.000  0.000
 O         -0.006 -0.005 -0.010   -0.000 -0.000 -0.000    0.000  0.000  0.000
 C         -0.000 -0.000  0.000   -0.000  0.000 -0.000    0.000 -0.000  0.000
 O          0.000  0.000  0.000   -0.000 -0.000 -0.000    0.000  0.000  0.000
 H          0.000 -0.000  0.000   -0.000 -0.009  0.013    0.004 -0.003  0.003
 H          0.002  0.000  0.002    0.019  0.001  0.017    0.728  0.026  0.681
 H          0.001 -0.000 -0.001    0.000  0.000 -0.000   -0.000 -0.000  0.000
 H          0.000  0.000 -0.001    0.000 -0.000  0.000   -0.000  0.000 -0.000
 O          0.000 -0.000  0.000   -0.002  0.034 -0.052    0.000 -0.001  0.001
 H         -0.000  0.004 -0.006    0.031 -0.544  0.835   -0.001  0.014 -0.021
 O          0.001  0.001 -0.001   -0.000  0.000 -0.000    0.000  0.000  0.000
 O         -0.037 -0.046 -0.019   -0.000 -0.000 -0.000    0.000  0.000  0.000
 H          0.105  0.080  0.149    0.001  0.001  0.001   -0.001 -0.001 -0.001
 H          0.578  0.722  0.317    0.004  0.005  0.002   -0.001 -0.002 -0.001
 TransDip   0.278  0.307  0.080    0.039 -0.247  0.263    0.338 -0.015  0.198

 STANDARD THERMODYNAMIC QUANTITIES AT   298.15 K  AND     1.00 ATM

   This Molecule has  0 Imaginary Frequencies
   Zero point vibrational energy:       73.530 kcal/mol

   Atom    1 Element C  Has Mass   12.00000
   Atom    2 Element O  Has Mass   15.99491
   Atom    3 Element C  Has Mass   12.00000
   Atom    4 Element O  Has Mass   15.99491
   Atom    5 Element C  Has Mass   12.00000
   Atom    6 Element O  Has Mass   15.99491
   Atom    7 Element H  Has Mass    1.00783
   Atom    8 Element H  Has Mass    1.00783
   Atom    9 Element H  Has Mass    1.00783
   Atom   10 Element H  Has Mass    1.00783
   Atom   11 Element O  Has Mass   15.99491
   Atom   12 Element H  Has Mass    1.00783
   Atom   13 Element O  Has Mass   15.99491
   Atom   14 Element O  Has Mass   15.99491
   Atom   15 Element H  Has Mass    1.00783
   Atom   16 Element H  Has Mass    1.00783
   Molecular Mass:   139.024270 amu
   Principal axes and moments of inertia in amu*Bohr^2:
                             1           2           3
    Eigenvalues --      866.71873  1250.42321  1567.10551
          X               0.66905    -0.64087    -0.37638
          Y               0.64025     0.23981     0.72977
          Z               0.37743     0.72923    -0.57076
   Rotational Symmetry Number is   1
   The Molecule is an Asymmetric Top
   Translational Enthalpy:        0.889 kcal/mol
   Rotational Enthalpy:           0.889 kcal/mol
   Vibrational Enthalpy:         78.252 kcal/mol
   gas constant (RT):             0.592 kcal/mol
   Translational Entropy:        40.700  cal/mol.K
   Rotational Entropy:           28.920  cal/mol.K
   Vibrational Entropy:          28.710  cal/mol.K

   Total Enthalpy:               80.622 kcal/mol
   Total Entropy:                98.330  cal/mol.K
 Total job time:  15802.05s(wall), 221667.94s(cpu) 
 Wed Jun 26 01:40:41 2024

        *************************************************************
        *                                                           *
        *  Thank you very much for using Q-Chem.  Have a nice day.  *
        *                                                           *
        *************************************************************


