
Running Job 1 of 1 Q_in.in
qchem Q_in.in_39685.0 /scratch/ari.fischer/qChem2186151.hpc-mn1/qchem39685/ 0
/usr/local/qchem-5.4.1/exe/qcprog.exe_s Q_in.in_39685.0 /scratch/ari.fischer/qChem2186151.hpc-mn1/qchem39685/
                  Welcome to Q-Chem
     A Quantum Leap Into The Future Of Chemistry


 Q-Chem 5.4, Q-Chem, Inc., Pleasanton, CA (2021)

 License issued to: Nanyang Technological University (site)

 E. Epifanovsky,  A. T. B. Gilbert,  Xintian Feng,  Joonho Lee,  Yuezhi Mao,  
 N. Mardirossian,  P. Pokhilko,  A. White,  M. Wormit,  M. P. Coons,  
 A. L. Dempwolff,  Zhengting Gan,  D. Hait,  P. R. Horn,  L. D. Jacobson,  
 I. Kaliman,  J. Kussmann,  A. W. Lange,  Ka Un Lao,  D. S. Levine,  Jie Liu,  
 S. C. McKenzie,  A. F. Morrison,  K. Nanda,  F. Plasser,  D. R. Rehn,  
 M. L. Vidal,  Zhi-Qiang You,  Ying Zhu,  B. Alam,  B. Albrecht,  
 A. Aldossary,  E. Alguire,  J. H. Andersen,  D. Barton,  K. Begam,  A. Behn,  
 Y. A. Bernard,  E. J. Berquist,  H. Burton,  A. Carreras,  K. Carter-Fenk,  
 R. Chakraborty,  A. D. Chien,  K. D. Closser,  V. Cofer-Shabica,  
 S. Dasgupta,  Jia Deng,  M. de Wergifosse,  M. Diedenhofen,  Hainam Do,  
 S. Ehlert,  Po-Tung Fang,  S. Fatehi,  Qingguo Feng,  T. Friedhoff,  
 J. Gayvert,  Qinghui Ge,  G. Gidofalvi,  M. Goldey,  J. Gomes,  
 C. Gonzalez-Espinoza,  S. Gulania,  A. Gunina,  M. W. D. Hanson-Heine,  
 P. H. P. Harbach,  A. W. Hauser,  M. F. Herbst,  M. Hernandez Vera,  
 M. Hodecker,  Z. C. Holden,  S. Houck,  Xunkun Huang,  Kerwin Hui,  
 B. C. Huynh,  M. Ivanov,  Hyunjun Ji,  Hanjie Jiang,  B. Kaduk,  S. Kaehler,  
 K. Khistyaev,  Jaehoon Kim,  P. Klunzinger,  Z. Koczor-Benda,  
 Joong Hoon Koh,  D. Kosenkov,  L. Koulias,  T. Kowalczyk,  C. M. Krauter,  
 K. Kue,  A. Kunitsa,  T. Kus,  A. Landau,  K. V. Lawler,  D. Lefrancois,  
 S. Lehtola,  Rain Li,  Yi-Pei Li,  Jiashu Liang,  M. Liebenthal,  
 Hung-Hsuan Lin,  You-Sheng Lin,  Fenglai Liu,  Kuan-Yu Liu,  
 M. Loipersberger,  A. Luenser,  A. Manjanath,  P. Manohar,  E. Mansoor,  
 S. F. Manzer,  Shan-Ping Mao,  A. V. Marenich,  T. Markovich,  S. Mason,  
 S. A. Maurer,  P. F. McLaughlin,  M. F. S. J. Menger,  J.-M. Mewes,  
 S. A. Mewes,  P. Morgante,  J. W. Mullinax,  K. J. Oosterbaan,  G. Paran,  
 Alexander C. Paul,  Suranjan K. Paul,  F. Pavosevic,  Zheng Pei,  S. Prager,  
 E. I. Proynov,  E. Ramos,  B. Rana,  A. E. Rask,  A. Rettig,  R. M. Richard,  
 F. Rob,  E. Rossomme,  T. Scheele,  M. Scheurer,  M. Schneider,  
 N. Sergueev,  S. M. Sharada,  W. Skomorowski,  D. W. Small,  C. J. Stein,  
 Yu-Chuan Su,  E. J. Sundstrom,  Zhen Tao,  J. Thirman,  T. Tsuchimochi,  
 N. M. Tubman,  S. P. Veccham,  O. Vydrov,  J. Wenzel,  J. Witte,  A. Yamada,  
 Kun Yao,  S. Yeganeh,  S. R. Yost,  A. Zech,  Igor Ying Zhang,  Xing Zhang,  
 Yu Zhang,  D. Zuev,  A. Aspuru-Guzik,  A. T. Bell,  N. A. Besley,  
 K. B. Bravaya,  B. R. Brooks,  D. Casanova,  Jeng-Da Chai,  S. Coriani,  
 C. J. Cramer,  A. E. DePrince, III,  R. A. DiStasio Jr.,  A. Dreuw,  
 B. D. Dunietz,  T. R. Furlani,  W. A. Goddard III,  S. Grimme,  
 S. Hammes-Schiffer,  T. Head-Gordon,  W. J. Hehre,  Chao-Ping Hsu,  
 T.-C. Jagau,  Yousung Jung,  A. Klamt,  Jing Kong,  D. S. Lambrecht,  
 WanZhen Liang,  N. J. Mayhall,  C. W. McCurdy,  J. B. Neaton,  
 C. Ochsenfeld,  J. A. Parkhill,  R. Peverati,  V. A. Rassolov,  Yihan Shao,  
 L. V. Slipchenko,  T. Stauch,  R. P. Steele,  J. E. Subotnik,  
 A. J. W. Thom,  A. Tkatchenko,  D. G. Truhlar,  T. Van Voorhis,  
 T. A. Wesolowski,  K. B. Whaley,  H. L. Woodcock III,  P. M. Zimmerman,  
 S. Faraji,  P. M. W. Gill,  M. Head-Gordon,  J. M. Herbert,  A. I. Krylov

 Additional authors for Version 5.4.1: 
 S. Kotaru,  Shaozhi Li,  Xiangyuan Li,  F. Matz,  A. Molle,  Haisheng Ren,  
 Yingli Su,  Hung-Yi Tsai,  C. Utku,  Fang Wang

 Contributors to earlier versions of Q-Chem not listed above: 
 R. D. Adamson,  B. Austin,  R. Baer,  J. Baker,  G. J. O. Beran,  
 K. Brandhorst,  S. T. Brown,  E. F. C. Byrd,  A. K. Chakraborty,  
 G. K. L. Chan,  Chun-Min Chang,  Yunqing Chen,  C.-L. Cheng,  
 Siu Hung Chien,  D. M. Chipman,  D. L. Crittenden,  H. Dachsel,  
 R. J. Doerksen,  A. D. Dutoi,  R. G. Edgar,  J. Fosso-Tande,  
 L. Fusti-Molnar,  D. Ghosh,  A. Ghysels,  A. Golubeva-Zadorozhnaya,  
 J. Gonthier,  M. S. Gordon,  S. R. Gwaltney,  G. Hawkins,  J. E. Herr,  
 A. Heyden,  S. Hirata,  E. G. Hohenstein,  G. Kedziora,  F. J. Keil,  
 C. Kelley,  Jihan Kim,  R. A. King,  R. Z. Khaliullin,  P. P. Korambath,  
 W. Kurlancheek,  A. Laurent,  A. M. Lee,  M. S. Lee,  S. V. Levchenko,  
 Ching Yeh Lin,  D. Liotard,  E. Livshits,  R. C. Lochan,  I. Lotan,  
 L. A. Martinez-Martinez,  P. E. Maslen,  N. Nair,  D. P. O'Neill,  
 D. Neuhauser,  E. Neuscamman,  C. M. Oana,  R. Olivares-Amaya,  R. Olson,  
 T. M. Perrine,  B. Peters,  P. A. Pieniazek,  A. Prociuk,  Y. M. Rhee,  
 J. Ritchie,  M. A. Rohrdanz,  E. Rosta,  N. J. Russ,  H. F. Schaefer III,  
 M. W. Schmidt,  N. E. Schultz,  S. Sharma,  N. Shenvi,  C. D. Sherrill,  
 A. C. Simmonett,  A. Sodt,  T. Stein,  D. Stuck,  K. S. Thanthiriwatte,  
 V. Vanovschi,  L. Vogt,  Tao Wang,  A. Warshel,  M. A. Watson,  
 C. F. Williams,  Q. Wu,  X. Xu,  Jun Yang,  W. Zhang,  Yan Zhao

 Please cite Q-Chem as follows:
 Y. Shao et al., Mol. Phys. 113, 184-215 (2015)
 DOI: 10.1080/00268976.2014.952696

 Q-Chem 5.4.1 for Intel X86 EM64T Linux

 Parts of Q-Chem use Armadillo 9.800.1 (Horizon Scraper).
 http://arma.sourceforge.net/

 Q-Chem begins on Mon Jun 24 20:37:10 2024  

 Host: 
0

     Scratch files written to /scratch/ari.fischer/qChem2186151.hpc-mn1/qchem39685//
 Aug1521 |scratch|qcdevops|jenkins|workspace|build_RNUM 8249   
 Processing $rem in /usr/local/qchem-5.4.1/config/preferences:
 Processing $rem in /home/ari.fischer/.qchemrc:
 Symmetry turned off for PCM/SM12/SMD calculation

 Checking the input file for inconsistencies... 	...done.

--------------------------------------------------------------
User input:
--------------------------------------------------------------
$molecule
0 2
C         2.3973328119   -0.9711332958   -0.9172826461
O         1.1811252585   -0.6682180952   -0.2749285431
C         3.5066173355   -0.5328771753    0.0429901397
O         3.4731234150   -1.3787718581    1.1488050142
C         3.4081011667    0.9279799240    0.4816211410
O         4.2696275725    1.1917526545    1.5257367733
H         2.4900494172   -0.4409251185   -1.8683484833
H         0.4757248595   -0.7854863877   -0.9325283259
H         2.3933844787    1.1228778993    0.8782459373
H         3.5501858061    1.6410784158   -0.3429338270
O         2.5162305131   -2.3392336909   -1.2190164575
H         2.5587153238   -2.8070557042   -0.3653338657
O         4.7962208379   -0.7968907836   -0.5449614658
O         4.9380776115    0.0258646562   -1.7138315906
H         3.9877502153   -0.9326016734    1.8490962539
H         5.5307660768    0.7272324331   -1.3838315544
$end

$rem
BASIS = 6-311++G(2df,2p)
GUI = 2
JOB_TYPE = Optimization
METHOD = wB97M-V
SCF_ALGORITHM = DIIS_GDM
MAX_SCF_CYCLES = 400
GEOM_OPT_MAX_CYCLES = 150
SCF_CONVERGENCE = 7
THRESH = 12
Solvent_method = SMD
$end
--------------------------------------------------------------
 ----------------------------------------------------------------
             Standard Nuclear Orientation (Angstroms)
    I     Atom           X                Y                Z
 ----------------------------------------------------------------
    1      C       2.3973328119    -0.9711332958    -0.9172826461
    2      O       1.1811252585    -0.6682180952    -0.2749285431
    3      C       3.5066173355    -0.5328771753     0.0429901397
    4      O       3.4731234150    -1.3787718581     1.1488050142
    5      C       3.4081011667     0.9279799240     0.4816211410
    6      O       4.2696275725     1.1917526545     1.5257367733
    7      H       2.4900494172    -0.4409251185    -1.8683484833
    8      H       0.4757248595    -0.7854863877    -0.9325283259
    9      H       2.3933844787     1.1228778993     0.8782459373
   10      H       3.5501858061     1.6410784158    -0.3429338270
   11      O       2.5162305131    -2.3392336909    -1.2190164575
   12      H       2.5587153238    -2.8070557042    -0.3653338657
   13      O       4.7962208379    -0.7968907836    -0.5449614658
   14      O       4.9380776115     0.0258646562    -1.7138315906
   15      H       3.9877502153    -0.9326016734     1.8490962539
   16      H       5.5307660768     0.7272324331    -1.3838315544
 ----------------------------------------------------------------
 Nuclear Repulsion Energy =         529.06594343 hartrees
 There are       37 alpha and       36 beta electrons
 Requested basis set is 6-311++G(2df,2p)
 There are 114 shells and 376 basis functions

 Total QAlloc Memory Limit 288000 MB
 Mega-Array Size       188 MB
 MEM_STATIC part       192 MB
 
 Citation of the SMD model:
 Marenich, A.V.; Cramer, C.J.; Truhlar, D.G.
 J. Phys. Chem. B 2009, 113, 6378-6396.
 iSolventCode=           1
 Solvent: water                                                           
 
 vradii
            1           2           3           4           5           6
    1   1.8500000   1.5200000   1.8500000   1.5200000   1.8500000   1.5200000
            7           8           9          10          11          12
    1   1.2000000   1.2000000   1.2000000   1.2000000   1.5200000   1.2000000
           13          14          15          16
    1   1.5200000   1.5200000   1.2000000   1.2000000
 Changing PCM_VDW_RADII to SMD_RADIUS
 Discretize the solute cavity surface with Lebedev spheres
	Using 110 Lebedev grid points for each H atom
	Using 194 Lebedev grid points for other atoms
	Atomic van der Waals radii will be scaled by 1.20
 Remove points where switching function is < 1.0e-08
 Keep 1278 surface tesserae and discard 1238 interior tesserae
 Molecular Surface Area = 143.696 Angst**2
 A cutoff of  1.0D-12 yielded   6011 shell pairs
 There are     65404 function pairs (     81733 Cartesian)
 Smallest overlap matrix eigenvalue = 1.26E-05

 Scale SEOQF with 1.000000e-02/1.000000e-01/1.000000e-01

 Standard Electronic Orientation quadrupole field applied
 Nucleus-field energy     =     0.0000000018 hartrees
 Guess from superposition of atomic densities
 Warning:  Energy on first SCF cycle will be non-variational
 SAD guess density has 73.000000 electrons

 -----------------------------------------------------------------------
  General SCF calculation program by
  Eric Jon Sundstrom, Paul Horn, Yuezhi Mao, Dmitri Zuev, Alec White,
  David Stuck, Shaama M.S., Shane Yost, Joonho Lee, David Small,
  Daniel Levine, Susi Lehtola, Hugh Burton, Evgeny Epifanovsky,
  Bang C. Huynh
 -----------------------------------------------------------------------
 Exchange:     0.1500 Hartree-Fock + 1.0000 wB97M-V + LR-HF
 Correlation:  1.0000 wB97M-V
 Using SG-2 standard quadrature grid
 Nonlocal Correlation:  VV10 with C = 0.0100 and b = 6.00 and scale = 1.00000
 Grid used for NLC:  SG-1 standard quadrature
 
 Citation of the SMD model:
 Marenich, A.V.; Cramer, C.J.; Truhlar, D.G.
 J. Phys. Chem. B 2009, 113, 6378-6396.
 iSolventCode=           1
 Solvent: water                                                           
 
 vradii
            1           2           3           4           5           6
    1   1.8500000   1.5200000   1.8500000   1.5200000   1.8500000   1.5200000
            7           8           9          10          11          12
    1   1.2000000   1.2000000   1.2000000   1.2000000   1.5200000   1.2000000
           13          14          15          16
    1   1.5200000   1.5200000   1.2000000   1.2000000
 using 16 threads for integral computing
 -------------------------------------------------------
 OpenMP Integral computing Module                
 Release: version 1.0, May 2013, Q-Chem Inc. Pittsburgh 
 -------------------------------------------------------
 -------------------------------------------------------
 OpenMP BLAS3 based DFT computing Module                
 Release: version 1.0, May 2013, Q-Chem Inc. Pittsburgh 
 -------------------------------------------------------
 A unrestricted SCF calculation will be
 performed using DIIS, GDM
 SCF converges when RMS gradient is below 1.0e-07
 ---------------------------------------
  Cycle       Energy         DIIS error
 ---------------------------------------
    1    -571.2582046907      1.24e-02  
    2    -569.4522825447      2.10e-03  Done DIIS. Switching to GDM
 ---------------------------------------
  Cycle       Energy        RMS Gradient
 ---------------------------------------
    1    -569.4522825447      6.00e-01   Descent step
    2    -569.6895638370      5.52e-02   Descent step
    3    -569.7291937461      9.24e-02   Normal BFGS step
    4    -569.7505458500      1.99e-02   Normal BFGS step
    5    -569.7556803887      1.02e-02   Normal BFGS step
    6    -569.7567084715      8.09e-03   Normal BFGS step
    7    -569.7570346607      9.08e-03   Normal BFGS step
    8    -569.7572579196      1.04e-02   Normal BFGS step
    9    -569.7577662931      1.20e-02   Normal BFGS step
   10    -569.7591032820      1.44e-02   Dog-leg BFGS step
   11    -569.7612274443      1.89e-02   Normal BFGS step
   12    -569.7643139934      1.52e-02   Normal BFGS step
   13    -569.7672841574      5.28e-03   Normal BFGS step
   14    -569.7679004808      3.06e-03   Normal BFGS step
   15    -569.7680223305      2.20e-03   Normal BFGS step
   16    -569.7680570260      1.20e-03   Normal BFGS step
   17    -569.7680641913      3.86e-04   Normal BFGS step
   18    -569.7680656430      9.44e-05   Normal BFGS step
   19    -569.7680659902      7.12e-05   Normal BFGS step
   20    -569.7680660471      4.44e-05   Normal BFGS step
   21    -569.7680660603      1.70e-05   Normal BFGS step
   22    -569.7680660632      6.62e-06   Normal BFGS step
   23    -569.7680660638      1.73e-06   Normal BFGS step
   24    -569.7680660639      1.04e-06   Normal BFGS step
   25    -569.7680660640      3.45e-07   Normal BFGS step
   26    -569.7680660639      1.16e-07   Normal BFGS step
   27    -569.7680660639      4.76e-08  Convergence criterion met
 ---------------------------------------
 SCF time:   CPU 2632.18s  wall 180.00s 
<S^2> =          0.753884493
(3)  G-ENP(liq) elect-nuc-pol free energy of system     -569.768066064 a.u.
(4)  G-CDS(liq) cavity-dispersion-solvent structure 
     free energy                                                3.1407 kcal/mol
(6)  G-S(liq) free energy of system                     -569.763061096 a.u.
 SCF   energy in the final basis set =     -569.7630610958
 Total energy in the final basis set =     -569.7630610958
 
 --------------------------------------------------------------
 
                    Orbital Energies (a.u.)
 --------------------------------------------------------------
 
 Alpha MOs
 -- Occupied --
-19.4077 -19.4025 -19.4008 -19.3637 -19.3515 -19.3500 -10.4653 -10.4518
-10.4050  -1.2789  -1.2148  -1.1918  -1.1670  -1.1388  -1.0408  -0.8800
 -0.7981  -0.7338  -0.6939  -0.6546  -0.6491  -0.6305  -0.6029  -0.5862
 -0.5753  -0.5573  -0.5486  -0.5363  -0.4957  -0.4713  -0.4567  -0.4442
 -0.4386  -0.4313  -0.4152  -0.4068  -0.3873
 -- Virtual --
  0.0268   0.0383   0.0415   0.0485   0.0662   0.0701   0.0810   0.0915
  0.0954   0.1193   0.1303   0.1356   0.1378   0.1396   0.1463   0.1519
  0.1642   0.1751   0.1768   0.1973   0.2075   0.2183   0.2270   0.2417
  0.2466   0.2539   0.2585   0.2698   0.2723   0.2793   0.2895   0.2975
  0.3130   0.3168   0.3211   0.3243   0.3328   0.3391   0.3440   0.3505
  0.3594   0.3656   0.3745   0.3788   0.3828   0.3862   0.3994   0.4084
  0.4126   0.4193   0.4296   0.4404   0.4478   0.4571   0.4620   0.4699
  0.4929   0.5316   0.5652   0.5737   0.5871   0.6118   0.6209   0.6294
  0.6337   0.6501   0.6625   0.6744   0.6879   0.7144   0.7246   0.7350
  0.7441   0.7640   0.7775   0.8006   0.8358   0.8479   0.8771   0.8918
  0.9216   0.9351   0.9439   0.9689   1.0008   1.0193   1.0492   1.0679
  1.0773   1.0856   1.1116   1.1190   1.1353   1.1381   1.1403   1.1662
  1.1760   1.1850   1.1965   1.1986   1.2087   1.2215   1.2282   1.2415
  1.2489   1.2641   1.2813   1.2930   1.3109   1.3257   1.3373   1.3526
  1.3636   1.3724   1.3971   1.4085   1.4380   1.4518   1.4643   1.4855
  1.4954   1.5005   1.5201   1.5275   1.5505   1.5675   1.5863   1.6051
  1.6268   1.6583   1.6648   1.6771   1.7030   1.7230   1.7476   1.7806
  1.8121   1.8416   1.8552   1.8969   1.9257   1.9318   1.9567   1.9759
  1.9984   2.0116   2.0568   2.0883   2.1156   2.1524   2.1742   2.2180
  2.2498   2.2892   2.3039   2.3445   2.3671   2.3998   2.4051   2.4504
  2.4531   2.4763   2.4875   2.5155   2.5509   2.5743   2.6275   2.6838
  2.7648   2.7784   2.8133   2.8291   2.8447   2.8768   2.9165   2.9953
  3.0509   3.0934   3.1302   3.1587   3.2047   3.2081   3.2407   3.2461
  3.3109   3.3429   3.3865   3.3962   3.4196   3.4413   3.4955   3.5207
  3.5486   3.5682   3.6034   3.6359   3.6691   3.6790   3.6940   3.7239
  3.7342   3.7612   3.7978   3.8007   3.8197   3.8418   3.8509   3.8878
  3.9005   3.9080   3.9291   3.9445   3.9653   3.9705   4.0179   4.0447
  4.0762   4.1329   4.1456   4.1684   4.2123   4.2359   4.2499   4.2858
  4.3073   4.3274   4.3318   4.3562   4.3917   4.4058   4.4426   4.4603
  4.5361   4.5592   4.5716   4.6287   4.7078   4.7449   4.8470   4.9309
  5.0144   5.0461   5.1190   5.1223   5.1483   5.2034   5.2141   5.2200
  5.2342   5.2627   5.2705   5.2721   5.2841   5.3028   5.3115   5.3376
  5.3448   5.3487   5.3673   5.3739   5.3945   5.4124   5.4295   5.4395
  5.4737   5.4836   5.5056   5.5447   5.5560   5.5711   5.5881   5.5919
  5.6136   5.6230   5.6521   5.6616   5.7004   5.7533   5.7729   5.8033
  5.8687   5.9213   5.9691   5.9886   6.0034   6.0375   6.0666   6.1231
  6.1634   6.2172   6.4779   6.5678   6.6892   6.7495   6.8009   6.8234
  6.8962   6.9281   7.0107   7.0322   7.0796   7.0865   7.1135   7.1470
  7.2194   7.2388   7.2397   7.2575   7.2783   7.2957   7.3077   7.3479
  7.4018   7.4066   7.4223   7.4471   7.4891   7.5142   7.5738   7.5785
  7.6518   7.6683   7.6877   7.7631   7.8169   7.8559   7.8585   7.9040
  8.0025   8.1944  24.6761  24.7949  24.8576  50.4785  50.5110  50.5782
 50.6142  50.6345  50.6828
 
 Beta MOs
 -- Occupied --
-19.4076 -19.4008 -19.3798 -19.3637 -19.3514 -19.3500 -10.4652 -10.4518
-10.4052  -1.2786  -1.2142  -1.1870  -1.1391  -1.1212  -1.0406  -0.8751
 -0.7881  -0.7310  -0.6922  -0.6524  -0.6458  -0.6257  -0.5840  -0.5794
 -0.5702  -0.5436  -0.5324  -0.5201  -0.4930  -0.4682  -0.4541  -0.4358
 -0.4237  -0.4152  -0.4065  -0.3801
 -- Virtual --
 -0.0662   0.0269   0.0383   0.0418   0.0486   0.0665   0.0705   0.0811
  0.0922   0.0960   0.1196   0.1308   0.1358   0.1393   0.1399   0.1473
  0.1522   0.1647   0.1765   0.1775   0.1980   0.2088   0.2192   0.2299
  0.2438   0.2470   0.2568   0.2593   0.2705   0.2729   0.2794   0.2928
  0.2990   0.3143   0.3195   0.3227   0.3254   0.3337   0.3397   0.3442
  0.3509   0.3607   0.3675   0.3760   0.3798   0.3836   0.3872   0.3998
  0.4102   0.4131   0.4195   0.4300   0.4406   0.4480   0.4580   0.4635
  0.4737   0.4933   0.5323   0.5686   0.5748   0.5895   0.6169   0.6215
  0.6299   0.6362   0.6509   0.6635   0.6763   0.6892   0.7159   0.7270
  0.7353   0.7453   0.7668   0.7782   0.8014   0.8361   0.8501   0.8774
  0.8926   0.9232   0.9358   0.9444   0.9700   1.0025   1.0222   1.0499
  1.0694   1.0787   1.0886   1.1138   1.1226   1.1372   1.1410   1.1444
  1.1683   1.1798   1.1899   1.1996   1.2035   1.2141   1.2275   1.2303
  1.2454   1.2525   1.2662   1.2849   1.2943   1.3118   1.3303   1.3381
  1.3566   1.3671   1.3768   1.4001   1.4132   1.4405   1.4590   1.4667
  1.4905   1.4976   1.5014   1.5212   1.5298   1.5539   1.5686   1.5899
  1.6083   1.6303   1.6644   1.6684   1.6800   1.7131   1.7255   1.7524
  1.7842   1.8141   1.8545   1.8693   1.9031   1.9286   1.9472   1.9591
  1.9773   2.0011   2.0145   2.0582   2.0940   2.1201   2.1613   2.1762
  2.2192   2.2506   2.2989   2.3076   2.3460   2.3686   2.4024   2.4123
  2.4519   2.4547   2.4774   2.4896   2.5238   2.5514   2.5765   2.6317
  2.6843   2.7702   2.7820   2.8171   2.8304   2.8452   2.8772   2.9180
  2.9963   3.0524   3.0954   3.1336   3.1612   3.2092   3.2096   3.2422
  3.2502   3.3119   3.3441   3.3879   3.3955   3.4211   3.4449   3.4971
  3.5259   3.5507   3.5683   3.6061   3.6371   3.6696   3.6806   3.6956
  3.7263   3.7363   3.7622   3.7983   3.8018   3.8211   3.8422   3.8511
  3.8894   3.9008   3.9102   3.9308   3.9461   3.9670   3.9745   4.0193
  4.0464   4.0790   4.1343   4.1494   4.1715   4.2141   4.2376   4.2526
  4.2874   4.3104   4.3309   4.3383   4.3708   4.3934   4.4132   4.4462
  4.4643   4.5405   4.5672   4.5799   4.6322   4.7086   4.7460   4.8481
  4.9421   5.0200   5.0468   5.1647   5.1868   5.1986   5.2127   5.2323
  5.2397   5.2670   5.2722   5.2758   5.2848   5.2858   5.3087   5.3211
  5.3460   5.3522   5.3728   5.3752   5.3871   5.4101   5.4243   5.4341
  5.4457   5.4840   5.4971   5.5092   5.5488   5.5571   5.5733   5.5894
  5.6026   5.6210   5.6281   5.6540   5.6628   5.7009   5.7552   5.7741
  5.8046   5.8795   5.9301   5.9806   6.0039   6.0142   6.0410   6.0705
  6.1243   6.1642   6.2182   6.4788   6.5684   6.7084   6.7540   6.8066
  6.8264   6.9953   7.0124   7.0198   7.0393   7.0800   7.0894   7.1170
  7.1484   7.2222   7.2393   7.2442   7.2770   7.2803   7.2994   7.3408
  7.3619   7.4056   7.4099   7.4432   7.4578   7.4957   7.5216   7.5748
  7.5797   7.6520   7.6852   7.7126   7.7689   7.8171   7.8570   7.8592
  7.9043   8.0029   8.1946  24.6760  24.7948  24.8576  50.4829  50.5203
 50.5799  50.6144  50.6347  50.6831
 --------------------------------------------------------------
 
          Ground-State Mulliken Net Atomic Charges

     Atom                 Charge (a.u.)    Spin (a.u.)
  --------------------------------------------------------
      1 C                    -0.121865       0.001215
      2 O                    -0.427411       0.001617
      3 C                     0.190915       0.001924
      4 O                    -0.390464       0.001243
      5 C                    -0.316414      -0.004051
      6 O                    -0.196533       0.873419
      7 H                     0.286543       0.000221
      8 H                     0.344304       0.000804
      9 H                     0.280065       0.084168
     10 H                     0.251512       0.038643
     11 O                    -0.446063       0.000144
     12 H                     0.349007      -0.000140
     13 O                    -0.207284       0.000183
     14 O                    -0.270263       0.003006
     15 H                     0.330895      -0.002095
     16 H                     0.343057      -0.000300
  --------------------------------------------------------
  Sum of atomic charges =     0.000000
  Sum of spin   charges =     1.000000

 -----------------------------------------------------------------
                    Cartesian Multipole Moments
 -----------------------------------------------------------------
    Charge (ESU x 10^10)
                 0.0000
    Dipole Moment (Debye)
         X      -1.6112      Y       4.0335      Z      -0.3283
       Tot       4.3558
    Quadrupole Moments (Debye-Ang)
        XX     -58.9876     XY      16.6750     YY     -56.6064
        XZ       2.1793     YZ      -8.2166     ZZ     -55.8472
    Octopole Moments (Debye-Ang^2)
       XXX    -551.2171    XXY     100.0887    XYY    -191.5653
       YYY      83.1943    XXZ      10.7768    XYZ     -39.2537
       YYZ      15.3065    XZZ    -194.7047    YZZ      32.8927
       ZZZ      38.1683
    Hexadecapole Moments (Debye-Ang^3)
      XXXX   -4052.2010   XXXY     556.8133   XXYY    -815.3073
      XYYY     205.0605   YYYY    -489.0214   XXXZ      39.4361
      XXYZ    -207.9245   XYYZ      30.5445   YYYZ    -125.8729
      XXZZ    -816.1929   XYZZ      78.8066   YYZZ    -183.2328
      XZZZ     131.2959   YZZZ    -116.2216   ZZZZ    -408.6073
 -----------------------------------------------------------------
 Calculating analytic gradient of the SCF energy
 Gradient of CDS energy
            1           2           3           4           5           6
    1  -0.0015031   0.0017883  -0.0000622   0.0000624   0.0043332  -0.0044436
    2  -0.0022740  -0.0005261  -0.0024391   0.0024618   0.0023126  -0.0014883
    3  -0.0001146  -0.0006522   0.0030640  -0.0033323   0.0056754  -0.0053973
            7           8           9          10          11          12
    1   0.0002528  -0.0005121  -0.0001532   0.0001400  -0.0001446  -0.0000312
    2   0.0000297   0.0000677  -0.0002182  -0.0001819   0.0029009  -0.0004809
    3  -0.0001087  -0.0000253   0.0000823  -0.0002197   0.0006503   0.0001030
           13          14          15          16
    1  -0.0000902  -0.0001877   0.0001332   0.0004180
    2  -0.0000450  -0.0001693  -0.0001780   0.0002282
    3  -0.0000701   0.0001392   0.0004119  -0.0002060
 Gradient of SCF Energy
            1           2           3           4           5           6
    1  -0.0011208   0.0124122  -0.0020447  -0.0096051   0.0063559   0.0050587
    2  -0.0051185   0.0015812   0.0065004  -0.0108205  -0.0151433   0.0021219
    3   0.0082808   0.0213875  -0.0019091  -0.0086644   0.0062214   0.0051693
            7           8           9          10          11          12
    1  -0.0016775  -0.0135859  -0.0098211   0.0027277   0.0054947  -0.0019445
    2   0.0065139  -0.0008458   0.0030819   0.0104861  -0.0010566  -0.0016416
    3  -0.0076868  -0.0163789   0.0037986  -0.0136314  -0.0143623   0.0094881
           13          14          15          16
    1   0.0020909  -0.0127842   0.0069398   0.0115040
    2  -0.0081182  -0.0156598   0.0086692   0.0194495
    3   0.0046384  -0.0152773   0.0093391   0.0095871
 Max gradient component =       2.139E-02
 RMS gradient           =       9.434E-03
 Computing fast CPCM-SWIG gradient
 Updating gradient with PCM contributions...
 -- total gradient after adding PCM contribution --
---------------------------------------------------
  Atom         X              Y              Z     
---------------------------------------------------
   1      -0.002067      -0.003056       0.002478
   2       0.004146       0.002670       0.008450
   3       0.000019       0.001692      -0.001412
   4      -0.005707      -0.006040      -0.003293
   5      -0.001155      -0.000330      -0.001625
   6       0.002942      -0.000556       0.003846
   7       0.001062       0.000884      -0.003151
   8      -0.003838      -0.001454      -0.005609
   9      -0.002295      -0.000184       0.001044
  10       0.000562       0.001460      -0.002559
  11       0.001174       0.001159      -0.009168
  12       0.000165      -0.000565       0.007240
  13       0.002034      -0.003246       0.003766
  14      -0.005176      -0.001878      -0.007114
  15       0.004117       0.005260       0.003385
  16       0.004017       0.004184       0.003722
---------------------------------------------------
 Number of fixed atoms: 0
 Gradient time:  CPU 252.65 s  wall 20.76 s
 Geometry Optimization Parameters
   NAtoms,    NIC,     NZ,  NCons,   NDum,   NFix, NCnnct, MaxDiis
       16     101       0       0       0       0       0       0


** GEOMETRY OPTIMIZATION IN DELOCALIZED INTERNAL COORDINATES **
   Searching for a Minimum

   Optimization Cycle:   1

                       Coordinates (Angstroms)
     ATOM                X               Y               Z
      1  C         2.3973328119   -0.9711332958   -0.9172826461
      2  O         1.1811252585   -0.6682180952   -0.2749285431
      3  C         3.5066173355   -0.5328771753    0.0429901397
      4  O         3.4731234150   -1.3787718581    1.1488050142
      5  C         3.4081011667    0.9279799240    0.4816211410
      6  O         4.2696275725    1.1917526545    1.5257367733
      7  H         2.4900494172   -0.4409251185   -1.8683484833
      8  H         0.4757248595   -0.7854863877   -0.9325283259
      9  H         2.3933844787    1.1228778993    0.8782459373
     10  H         3.5501858061    1.6410784158   -0.3429338270
     11  O         2.5162305131   -2.3392336909   -1.2190164575
     12  H         2.5587153238   -2.8070557042   -0.3653338657
     13  O         4.7962208379   -0.7968907836   -0.5449614658
     14  O         4.9380776115    0.0258646562   -1.7138315906
     15  H         3.9877502153   -0.9326016734    1.8490962539
     16  H         5.5307660768    0.7272324331   -1.3838315544
   Point Group: c1    Number of degrees of freedom:    42


   Energy is   -569.763061096


 Attempting to generate delocalized internal coordinates
 Initial Hessian constructed with Jon Baker's OPTIMIZE code

 42 Hessian modes will be used to form the next step
  Hessian Eigenvalues:
     0.004289    0.005046    0.005413    0.010131    0.014537    0.014850
     0.016617    0.047759    0.053363    0.058578    0.060805    0.063279
     0.063529    0.091688    0.097238    0.160000    0.160000    0.160000
     0.160000    0.160000    0.160000    0.174032    0.182514    0.190512
     0.207192    0.221886    0.250000    0.293090    0.295656    0.329441
     0.337532    0.344894    0.393547    0.400803    0.442593    0.446380
     0.468599    0.492629    0.519933    0.522183    0.524899    0.530751

 Minimum search - taking simple RFO step
 Searching for Lamda that Minimizes Along All modes
 Value Taken    Lamda =  -0.00126412
 Step Taken.  Stepsize is  0.112399

                             Maximum     Tolerance    Cnvgd?
         Gradient           0.007825      0.000300      NO
         Displacement       0.046453      0.001200      NO
         Energy change     *********      0.000001      NO


 New Cartesian Coordinates Obtained by Inverse Iteration

 Displacement from previous Coordinates is:  0.208296
 ----------------------------------------------------------------
             Standard Nuclear Orientation (Angstroms)
    I     Atom           X                Y                Z
 ----------------------------------------------------------------
    1      C       2.4050116660    -0.9648025715    -0.9093218672
    2      O       1.1795941789    -0.6734581682    -0.2826654443
    3      C       3.5094709648    -0.5280676791     0.0586114303
    4      O       3.4832628072    -1.3794751062     1.1595466717
    5      C       3.3984045650     0.9334597706     0.4884132863
    6      O       4.2644889569     1.2294471193     1.5133821953
    7      H       2.4972766569    -0.4238351779    -1.8485749285
    8      H       0.4778772376    -0.7743312708    -0.9370184513
    9      H       2.3892683356     1.1233415626     0.8907238074
   10      H       3.5201211559     1.6390399192    -0.3397805337
   11      O       2.5196309709    -2.3298606570    -1.2263417490
   12      H       2.5540125562    -2.8330009841    -0.4003845876
   13      O       4.7997362448    -0.7827524845    -0.5294345018
   14      O       4.9382003633     0.0058107549    -1.7157170771
   15      H       3.9866296924    -0.9595236877     1.8742244154
   16      H       5.5500463478     0.7016008605    -1.4321641660
 ----------------------------------------------------------------
 Nuclear Repulsion Energy =         528.72641841 hartrees
 There are       37 alpha and       36 beta electrons
 Discretize the solute cavity surface with Lebedev spheres
	Using 110 Lebedev grid points for each H atom
	Using 194 Lebedev grid points for other atoms
	Atomic van der Waals radii will be scaled by 1.20
 Remove points where switching function is < 1.0e-08
 Keep 1283 surface tesserae and discard 1233 interior tesserae
 Molecular Surface Area = 144.149 Angst**2
 Applying Cartesian multipole field
    Component          Value
    ---------          -----
     (2,0,0)        1.00000E-12
     (0,2,0)        2.00000E-11
     (0,0,2)       -3.00000E-11
 Nucleus-field energy     =     0.0000000018 hartrees
 Requested basis set is 6-311++G(2df,2p)
 There are 114 shells and 376 basis functions
 A cutoff of  1.0D-12 yielded   6006 shell pairs
 There are     65406 function pairs (     81740 Cartesian)
 Smallest overlap matrix eigenvalue = 1.26E-05
 Guess MOs from SCF MO coefficient file

 -----------------------------------------------------------------------
  General SCF calculation program by
  Eric Jon Sundstrom, Paul Horn, Yuezhi Mao, Dmitri Zuev, Alec White,
  David Stuck, Shaama M.S., Shane Yost, Joonho Lee, David Small,
  Daniel Levine, Susi Lehtola, Hugh Burton, Evgeny Epifanovsky,
  Bang C. Huynh
 -----------------------------------------------------------------------
 Exchange:     0.1500 Hartree-Fock + 1.0000 wB97M-V + LR-HF
 Correlation:  1.0000 wB97M-V
 Using SG-2 standard quadrature grid
 Nonlocal Correlation:  VV10 with C = 0.0100 and b = 6.00 and scale = 1.00000
 Grid used for NLC:  SG-1 standard quadrature
 
 Citation of the SMD model:
 Marenich, A.V.; Cramer, C.J.; Truhlar, D.G.
 J. Phys. Chem. B 2009, 113, 6378-6396.
 iSolventCode=           1
 Solvent: water                                                           
 
 vradii
            1           2           3           4           5           6
    1   1.8500000   1.5200000   1.8500000   1.5200000   1.8500000   1.5200000
            7           8           9          10          11          12
    1   1.2000000   1.2000000   1.2000000   1.2000000   1.5200000   1.2000000
           13          14          15          16
    1   1.5200000   1.5200000   1.2000000   1.2000000
 -------------------------------------------------------
 OpenMP BLAS3 based DFT computing Module                
 Release: version 1.0, May 2013, Q-Chem Inc. Pittsburgh 
 -------------------------------------------------------
 A unrestricted SCF calculation will be
 performed using Roothaan-Hall, DIIS, GDM
 SCF converges when RMS gradient is below 1.0e-07
 ---------------------------------------
  Cycle       Energy         DIIS error
 ---------------------------------------
    1    -569.7226224374      2.80e-04  Roothaan Step
 ---------------------------------------
  Cycle       Energy         DIIS error
 ---------------------------------------
    1    -569.7613607785      2.64e-04  
    2    -569.7670288303      1.84e-04  Done DIIS. Switching to GDM
 ---------------------------------------
  Cycle       Energy        RMS Gradient
 ---------------------------------------
    1    -569.7670288303      5.16e-03   Normal BFGS step
    2    -569.7672601604      7.37e-03   Normal BFGS step
    3    -569.7687962058      7.44e-04   Normal BFGS step
    4    -569.7688122098      6.02e-04   Normal BFGS step
    5    -569.7688284252      4.13e-04   Normal BFGS step
    6    -569.7688294951      4.50e-04   Normal BFGS step
    7    -569.7688304353      4.28e-04   Normal BFGS step
    8    -569.7688317782      3.78e-04   Normal BFGS step
    9    -569.7688330791      3.40e-04   Normal BFGS step
   10    -569.7688345250      4.53e-04   Normal BFGS step
   11    -569.7688356397      3.71e-04   Normal BFGS step
   12    -569.7688361858      1.66e-04   Normal BFGS step
   13    -569.7688363105      4.47e-05   Normal BFGS step
   14    -569.7688363455      4.32e-05   Normal BFGS step
   15    -569.7688363524      2.24e-05   Normal BFGS step
   16    -569.7688363536      3.52e-06   Normal BFGS step
   17    -569.7688363539      1.05e-06   Normal BFGS step
   18    -569.7688363540      1.03e-06   Normal BFGS step
   19    -569.7688363540      1.67e-07   Normal BFGS step
   20    -569.7688363540      7.45e-08  Convergence criterion met
 ---------------------------------------
 SCF time:   CPU 2044.52s  wall 139.00s 
<S^2> =          0.753853039
(3)  G-ENP(liq) elect-nuc-pol free energy of system     -569.768836354 a.u.
(4)  G-CDS(liq) cavity-dispersion-solvent structure 
     free energy                                                3.2279 kcal/mol
(6)  G-S(liq) free energy of system                     -569.763692426 a.u.
 SCF   energy in the final basis set =     -569.7636924262
 Total energy in the final basis set =     -569.7636924262
 
 --------------------------------------------------------------
 
                    Orbital Energies (a.u.)
 --------------------------------------------------------------
 
 Alpha MOs
 -- Occupied --
-19.4073 -19.4010 -19.3998 -19.3633 -19.3502 -19.3488 -10.4657 -10.4517
-10.4035  -1.2804  -1.2148  -1.1922  -1.1683  -1.1390  -1.0419  -0.8814
 -0.7991  -0.7369  -0.6946  -0.6565  -0.6516  -0.6310  -0.6038  -0.5874
 -0.5770  -0.5574  -0.5480  -0.5347  -0.4953  -0.4705  -0.4569  -0.4435
 -0.4369  -0.4308  -0.4153  -0.4065  -0.3857
 -- Virtual --
  0.0267   0.0383   0.0415   0.0483   0.0660   0.0701   0.0810   0.0918
  0.0959   0.1203   0.1303   0.1357   0.1380   0.1403   0.1464   0.1525
  0.1644   0.1745   0.1767   0.1978   0.2077   0.2198   0.2294   0.2421
  0.2466   0.2545   0.2593   0.2701   0.2719   0.2801   0.2898   0.2974
  0.3142   0.3167   0.3219   0.3256   0.3337   0.3397   0.3444   0.3509
  0.3598   0.3659   0.3754   0.3794   0.3831   0.3867   0.4011   0.4091
  0.4117   0.4182   0.4315   0.4409   0.4479   0.4566   0.4642   0.4686
  0.4926   0.5318   0.5667   0.5760   0.5887   0.6147   0.6253   0.6322
  0.6344   0.6496   0.6643   0.6767   0.6860   0.7172   0.7288   0.7359
  0.7498   0.7613   0.7793   0.7992   0.8366   0.8525   0.8782   0.8912
  0.9206   0.9363   0.9369   0.9665   0.9981   1.0159   1.0492   1.0680
  1.0790   1.0885   1.1093   1.1151   1.1359   1.1389   1.1410   1.1672
  1.1787   1.1867   1.1955   1.1974   1.2086   1.2204   1.2311   1.2424
  1.2468   1.2642   1.2802   1.2923   1.3124   1.3229   1.3395   1.3502
  1.3595   1.3683   1.3976   1.4072   1.4384   1.4501   1.4694   1.4827
  1.4974   1.5036   1.5212   1.5299   1.5536   1.5726   1.5877   1.6079
  1.6309   1.6602   1.6686   1.6769   1.7018   1.7195   1.7498   1.7805
  1.8151   1.8386   1.8566   1.8920   1.9254   1.9327   1.9499   1.9765
  2.0061   2.0106   2.0572   2.0869   2.1142   2.1567   2.1780   2.2176
  2.2505   2.2961   2.2986   2.3430   2.3651   2.4006   2.4012   2.4496
  2.4521   2.4744   2.4866   2.5155   2.5446   2.5785   2.6214   2.6838
  2.7626   2.7797   2.8064   2.8358   2.8453   2.8818   2.9098   2.9996
  3.0534   3.0952   3.1338   3.1586   3.2030   3.2128   3.2446   3.2471
  3.3134   3.3450   3.3880   3.3929   3.4175   3.4407   3.4949   3.5254
  3.5520   3.5678   3.6066   3.6377   3.6690   3.6757   3.6943   3.7252
  3.7367   3.7585   3.7995   3.8033   3.8181   3.8397   3.8511   3.8856
  3.9008   3.9125   3.9316   3.9479   3.9639   3.9761   4.0194   4.0532
  4.0760   4.1327   4.1498   4.1739   4.2223   4.2451   4.2538   4.2997
  4.3134   4.3335   4.3372   4.3619   4.4029   4.4150   4.4477   4.4611
  4.5411   4.5606   4.5740   4.6333   4.7101   4.7474   4.8474   4.9322
  5.0145   5.0470   5.1149   5.1247   5.1484   5.2033   5.2139   5.2218
  5.2342   5.2607   5.2705   5.2733   5.2844   5.3057   5.3126   5.3402
  5.3440   5.3467   5.3659   5.3742   5.3964   5.4075   5.4273   5.4378
  5.4779   5.4831   5.5056   5.5456   5.5603   5.5800   5.5995   5.6027
  5.6261   5.6334   5.6638   5.6721   5.7091   5.7489   5.7705   5.8098
  5.8786   5.9266   5.9868   6.0018   6.0233   6.0581   6.0857   6.1412
  6.1594   6.2353   6.4790   6.5723   6.7077   6.7557   6.8054   6.8391
  6.8980   6.9247   7.0119   7.0334   7.0796   7.0893   7.1147   7.1478
  7.2393   7.2563   7.2606   7.2698   7.2901   7.3114   7.3169   7.3514
  7.4054   7.4069   7.4199   7.4498   7.4940   7.5109   7.5765   7.5916
  7.6677   7.6730   7.6880   7.7710   7.8162   7.8582   7.8684   7.9056
  8.0048   8.1906  24.6844  24.8107  24.8626  50.4787  50.5142  50.5801
 50.6175  50.6364  50.6811
 
 Beta MOs
 -- Occupied --
-19.4073 -19.3998 -19.3783 -19.3633 -19.3501 -19.3488 -10.4657 -10.4517
-10.4038  -1.2801  -1.2141  -1.1877  -1.1393  -1.1224  -1.0416  -0.8766
 -0.7891  -0.7341  -0.6931  -0.6546  -0.6479  -0.6264  -0.5857  -0.5793
 -0.5711  -0.5428  -0.5314  -0.5209  -0.4925  -0.4674  -0.4544  -0.4357
 -0.4223  -0.4150  -0.4063  -0.3784
 -- Virtual --
 -0.0651   0.0269   0.0384   0.0418   0.0484   0.0663   0.0705   0.0810
  0.0926   0.0965   0.1207   0.1307   0.1360   0.1392   0.1407   0.1474
  0.1528   0.1649   0.1760   0.1773   0.1985   0.2088   0.2207   0.2322
  0.2441   0.2471   0.2573   0.2601   0.2708   0.2725   0.2802   0.2934
  0.2988   0.3155   0.3193   0.3234   0.3267   0.3346   0.3403   0.3447
  0.3513   0.3614   0.3676   0.3773   0.3801   0.3837   0.3876   0.4016
  0.4106   0.4126   0.4184   0.4320   0.4412   0.4480   0.4575   0.4657
  0.4725   0.4930   0.5327   0.5697   0.5782   0.5908   0.6199   0.6255
  0.6327   0.6370   0.6504   0.6655   0.6786   0.6875   0.7186   0.7311
  0.7365   0.7507   0.7639   0.7800   0.8001   0.8368   0.8547   0.8785
  0.8920   0.9221   0.9372   0.9376   0.9676   0.9997   1.0189   1.0500
  1.0694   1.0802   1.0916   1.1114   1.1189   1.1390   1.1401   1.1461
  1.1690   1.1835   1.1910   1.1971   1.2039   1.2123   1.2271   1.2331
  1.2468   1.2499   1.2667   1.2833   1.2941   1.3135   1.3268   1.3406
  1.3552   1.3619   1.3736   1.4009   1.4104   1.4405   1.4564   1.4721
  1.4895   1.4995   1.5047   1.5218   1.5323   1.5575   1.5736   1.5918
  1.6112   1.6342   1.6652   1.6735   1.6793   1.7119   1.7226   1.7548
  1.7837   1.8176   1.8517   1.8691   1.9001   1.9322   1.9431   1.9531
  1.9777   2.0080   2.0137   2.0587   2.0923   2.1185   2.1657   2.1804
  2.2187   2.2513   2.2991   2.3085   2.3443   2.3664   2.4021   2.4093
  2.4515   2.4535   2.4756   2.4884   2.5245   2.5455   2.5804   2.6258
  2.6842   2.7677   2.7845   2.8098   2.8368   2.8457   2.8822   2.9110
  3.0007   3.0549   3.0970   3.1373   3.1611   3.2078   3.2145   3.2457
  3.2513   3.3145   3.3462   3.3891   3.3926   3.4190   3.4443   3.4965
  3.5303   3.5544   3.5680   3.6093   3.6385   3.6700   3.6774   3.6959
  3.7279   3.7387   3.7597   3.7999   3.8046   3.8193   3.8400   3.8516
  3.8870   3.9010   3.9149   3.9331   3.9493   3.9644   3.9814   4.0209
  4.0552   4.0788   4.1343   4.1540   4.1766   4.2242   4.2471   4.2560
  4.3015   4.3169   4.3361   4.3450   4.3757   4.4044   4.4223   4.4512
  4.4655   4.5461   4.5686   4.5823   4.6371   4.7110   4.7486   4.8486
  4.9439   5.0195   5.0478   5.1666   5.1842   5.1976   5.2120   5.2333
  5.2386   5.2670   5.2716   5.2775   5.2839   5.2859   5.3112   5.3205
  5.3437   5.3515   5.3725   5.3785   5.3839   5.4077   5.4253   5.4314
  5.4448   5.4853   5.5013   5.5089   5.5499   5.5617   5.5824   5.6012
  5.6138   5.6294   5.6422   5.6659   5.6731   5.7095   5.7508   5.7715
  5.8111   5.8894   5.9347   5.9975   6.0237   6.0293   6.0620   6.0884
  6.1423   6.1606   6.2362   6.4799   6.5727   6.7249   6.7624   6.8120
  6.8431   6.9961   7.0123   7.0199   7.0390   7.0799   7.0919   7.1178
  7.1492   7.2441   7.2606   7.2649   7.2872   7.2957   7.3129   7.3453
  7.3631   7.4087   7.4113   7.4393   7.4627   7.5019   7.5165   7.5776
  7.5924   7.6678   7.6863   7.7182   7.7754   7.8164   7.8596   7.8686
  7.9059   8.0051   8.1907  24.6844  24.8106  24.8626  50.4830  50.5235
 50.5819  50.6177  50.6365  50.6813
 --------------------------------------------------------------
 
          Ground-State Mulliken Net Atomic Charges

     Atom                 Charge (a.u.)    Spin (a.u.)
  --------------------------------------------------------
      1 C                    -0.119629       0.001156
      2 O                    -0.427246       0.001682
      3 C                     0.180337       0.000927
      4 O                    -0.390844       0.001141
      5 C                    -0.311045      -0.002778
      6 O                    -0.202674       0.871307
      7 H                     0.292595       0.000264
      8 H                     0.341693       0.000753
      9 H                     0.278225       0.083791
     10 H                     0.257592       0.040695
     11 O                    -0.450104       0.000132
     12 H                     0.349428      -0.000142
     13 O                    -0.200033       0.000229
     14 O                    -0.272073       0.002848
     15 H                     0.331809      -0.001744
     16 H                     0.341968      -0.000260
  --------------------------------------------------------
  Sum of atomic charges =     0.000000
  Sum of spin   charges =     1.000000

 -----------------------------------------------------------------
                    Cartesian Multipole Moments
 -----------------------------------------------------------------
    Charge (ESU x 10^10)
                 0.0000
    Dipole Moment (Debye)
         X      -1.5937      Y       3.8805      Z      -0.3632
       Tot       4.2107
    Quadrupole Moments (Debye-Ang)
        XX     -58.7406     XY      16.0269     YY     -56.3517
        XZ       1.7753     YZ      -8.4446     ZZ     -55.4498
    Octopole Moments (Debye-Ang^2)
       XXX    -548.6017    XXY      97.3310    XYY    -191.3845
       YYY      80.0208    XXZ       7.4138    XYZ     -40.3451
       YYZ      14.6897    XZZ    -192.4950    YZZ      32.6975
       ZZZ      38.3854
    Hexadecapole Moments (Debye-Ang^3)
      XXXX   -4029.1135   XXXY     545.1716   XXYY    -817.2822
      XYYY     196.3636   YYYY    -483.4232   XXXZ      15.3679
      XXYZ    -213.6843   XYYZ      28.8990   YYYZ    -125.1318
      XXZZ    -803.7238   XYZZ      78.4134   YYZZ    -183.5569
      XZZZ     130.7372   YZZZ    -119.4488   ZZZZ    -406.8996
 -----------------------------------------------------------------
 Calculating analytic gradient of the SCF energy
 Gradient of CDS energy
            1           2           3           4           5           6
    1  -0.0017785   0.0020796  -0.0000438   0.0000465   0.0043369  -0.0044591
    2  -0.0022054  -0.0005667  -0.0024835   0.0025087   0.0024442  -0.0016286
    3   0.0000128  -0.0007980   0.0030906  -0.0033604   0.0055828  -0.0053007
            7           8           9          10          11          12
    1   0.0002252  -0.0005116  -0.0001478   0.0001493  -0.0001281  -0.0000330
    2   0.0000525   0.0000708  -0.0002154  -0.0001699   0.0028627  -0.0004863
    3  -0.0000981  -0.0000308   0.0000768  -0.0002133   0.0006776   0.0000910
           13          14          15          16
    1  -0.0000937  -0.0001916   0.0001309   0.0004187
    2  -0.0000495  -0.0001715  -0.0001863   0.0002242
    3  -0.0000715   0.0001516   0.0004117  -0.0002221
 Gradient of SCF Energy
            1           2           3           4           5           6
    1   0.0020685   0.0084125  -0.0019899  -0.0048392   0.0062780   0.0029538
    2  -0.0012813  -0.0011749   0.0051219  -0.0066807  -0.0128935   0.0027589
    3   0.0056124   0.0127295  -0.0018426  -0.0050713   0.0055704   0.0025315
            7           8           9          10          11          12
    1  -0.0032334  -0.0103913  -0.0070735   0.0019517   0.0039520  -0.0021241
    2   0.0060367   0.0005248   0.0028579   0.0085658  -0.0024517  -0.0021975
    3  -0.0043760  -0.0110113   0.0030862  -0.0101155  -0.0061807   0.0033454
           13          14          15          16
    1  -0.0003762  -0.0077748   0.0036633   0.0085228
    2  -0.0060319  -0.0125157   0.0039788   0.0153824
    3   0.0030263  -0.0090661   0.0074752   0.0042865
 Max gradient component =       1.538E-02
 RMS gradient           =       6.518E-03
 Computing fast CPCM-SWIG gradient
 Updating gradient with PCM contributions...
 -- total gradient after adding PCM contribution --
---------------------------------------------------
  Atom         X              Y              Z     
---------------------------------------------------
   1       0.000740       0.000952      -0.000052
   2       0.000169       0.000155      -0.000121
   3       0.000154       0.000728      -0.001422
   4      -0.000814      -0.001805       0.000806
   5      -0.001329       0.001210      -0.001917
   6       0.000836       0.000030       0.001304
   7      -0.000352       0.000241      -0.000035
   8      -0.000664      -0.000329      -0.000297
   9       0.000244      -0.000297       0.000327
  10       0.000236      -0.000091       0.000663
  11      -0.000443      -0.000666      -0.000650
  12       0.000078      -0.000859       0.000807
  13      -0.000408      -0.001237       0.001753
  14       0.000212       0.001095      -0.001549
  15       0.000698       0.000587       0.001055
  16       0.000641       0.000287      -0.000672
---------------------------------------------------
 Number of fixed atoms: 0
 Gradient time:  CPU 256.93 s  wall 21.57 s
 Geometry Optimization Parameters
   NAtoms,    NIC,     NZ,  NCons,   NDum,   NFix, NCnnct, MaxDiis
       16     101       0       0       0       0       0       0

 Cartesian Hessian Update
 Hessian updated using BFGS update


** GEOMETRY OPTIMIZATION IN DELOCALIZED INTERNAL COORDINATES **
   Searching for a Minimum

   Optimization Cycle:   2

                       Coordinates (Angstroms)
     ATOM                X               Y               Z
      1  C         2.4050116660   -0.9648025715   -0.9093218672
      2  O         1.1795941789   -0.6734581682   -0.2826654443
      3  C         3.5094709648   -0.5280676791    0.0586114303
      4  O         3.4832628072   -1.3794751062    1.1595466717
      5  C         3.3984045650    0.9334597706    0.4884132863
      6  O         4.2644889569    1.2294471193    1.5133821953
      7  H         2.4972766569   -0.4238351779   -1.8485749285
      8  H         0.4778772376   -0.7743312708   -0.9370184513
      9  H         2.3892683356    1.1233415626    0.8907238074
     10  H         3.5201211559    1.6390399192   -0.3397805337
     11  O         2.5196309709   -2.3298606570   -1.2263417490
     12  H         2.5540125562   -2.8330009841   -0.4003845876
     13  O         4.7997362448   -0.7827524845   -0.5294345018
     14  O         4.9382003633    0.0058107549   -1.7157170771
     15  H         3.9866296924   -0.9595236877    1.8742244154
     16  H         5.5500463478    0.7016008605   -1.4321641660
   Point Group: c1    Number of degrees of freedom:    42


   Energy is   -569.763692426

 Hessian updated using BFGS update

 38 Hessian modes will be used to form the next step
  Hessian Eigenvalues:
     0.004519    0.005040    0.005414    0.010392    0.014421    0.014848
     0.016617    0.046643    0.053300    0.058877    0.059796    0.063114
     0.063502    0.092234    0.097409    0.153157    0.169322    0.175245
     0.185065    0.190880    0.208969    0.219162    0.258853    0.293935
     0.295410    0.329327    0.339718    0.342065    0.383354    0.393960
     0.441150    0.446261    0.459402    0.486391    0.512050    0.523414
     0.524723    0.531194

 Minimum search - taking simple RFO step
 Searching for Lamda that Minimizes Along All modes
 Value Taken    Lamda =  -0.00030841
 Step Taken.  Stepsize is  0.196047

                             Maximum     Tolerance    Cnvgd?
         Gradient           0.002441      0.000300      NO
         Displacement       0.106784      0.001200      NO
         Energy change     -0.000631      0.000001      NO


 New Cartesian Coordinates Obtained by Inverse Iteration

 Displacement from previous Coordinates is:  0.333822
 ----------------------------------------------------------------
             Standard Nuclear Orientation (Angstroms)
    I     Atom           X                Y                Z
 ----------------------------------------------------------------
    1      C       2.4121795965    -0.9675095310    -0.9075967371
    2      O       1.1879802722    -0.6684278050    -0.2836239134
    3      C       3.5167659441    -0.5388411786     0.0621373595
    4      O       3.4832545461    -1.3831852683     1.1649297648
    5      C       3.4143162268     0.9264248651     0.4742438333
    6      O       4.2886199848     1.2409867420     1.4827159029
    7      H       2.5119946324    -0.4248556777    -1.8434248612
    8      H       0.4886343727    -0.7483841570    -0.9398535507
    9      H       2.4086059977     1.1296413190     0.8765529995
   10      H       3.5306676622     1.6158527111    -0.3678184021
   11      O       2.5187298299    -2.3302403943    -1.2299525136
   12      H       2.5459745744    -2.8397983499    -0.4109815329
   13      O       4.8058731213    -0.8035262785    -0.5215734856
   14      O       4.9519989226    -0.0158950408    -1.7016353039
   15      H       3.9855475302    -0.9701957582     1.8800778960
   16      H       5.4218894861     0.7615460025    -1.3706989553
 ----------------------------------------------------------------
 Nuclear Repulsion Energy =         529.60618925 hartrees
 There are       37 alpha and       36 beta electrons
 Discretize the solute cavity surface with Lebedev spheres
	Using 110 Lebedev grid points for each H atom
	Using 194 Lebedev grid points for other atoms
	Atomic van der Waals radii will be scaled by 1.20
 Remove points where switching function is < 1.0e-08
 Keep 1276 surface tesserae and discard 1240 interior tesserae
 Molecular Surface Area = 143.384 Angst**2
 Applying Cartesian multipole field
    Component          Value
    ---------          -----
     (2,0,0)        1.00000E-12
     (0,2,0)        2.00000E-11
     (0,0,2)       -3.00000E-11
 Nucleus-field energy     =     0.0000000020 hartrees
 Requested basis set is 6-311++G(2df,2p)
 There are 114 shells and 376 basis functions
 A cutoff of  1.0D-12 yielded   6012 shell pairs
 There are     65442 function pairs (     81781 Cartesian)
 Smallest overlap matrix eigenvalue = 1.24E-05
 Guess MOs from SCF MO coefficient file

 -----------------------------------------------------------------------
  General SCF calculation program by
  Eric Jon Sundstrom, Paul Horn, Yuezhi Mao, Dmitri Zuev, Alec White,
  David Stuck, Shaama M.S., Shane Yost, Joonho Lee, David Small,
  Daniel Levine, Susi Lehtola, Hugh Burton, Evgeny Epifanovsky,
  Bang C. Huynh
 -----------------------------------------------------------------------
 Exchange:     0.1500 Hartree-Fock + 1.0000 wB97M-V + LR-HF
 Correlation:  1.0000 wB97M-V
 Using SG-2 standard quadrature grid
 Nonlocal Correlation:  VV10 with C = 0.0100 and b = 6.00 and scale = 1.00000
 Grid used for NLC:  SG-1 standard quadrature
 
 Citation of the SMD model:
 Marenich, A.V.; Cramer, C.J.; Truhlar, D.G.
 J. Phys. Chem. B 2009, 113, 6378-6396.
 iSolventCode=           1
 Solvent: water                                                           
 
 vradii
            1           2           3           4           5           6
    1   1.8500000   1.5200000   1.8500000   1.5200000   1.8500000   1.5200000
            7           8           9          10          11          12
    1   1.2000000   1.2000000   1.2000000   1.2000000   1.5200000   1.2000000
           13          14          15          16
    1   1.5200000   1.5200000   1.2000000   1.2000000
 -------------------------------------------------------
 OpenMP BLAS3 based DFT computing Module                
 Release: version 1.0, May 2013, Q-Chem Inc. Pittsburgh 
 -------------------------------------------------------
 A unrestricted SCF calculation will be
 performed using Roothaan-Hall, DIIS, GDM
 SCF converges when RMS gradient is below 1.0e-07
 ---------------------------------------
  Cycle       Energy         DIIS error
 ---------------------------------------
    1    -569.7178507690      3.57e-04  Roothaan Step
 ---------------------------------------
  Cycle       Energy         DIIS error
 ---------------------------------------
    1    -569.7604901116      2.80e-04  
    2    -569.7667483678      1.92e-04  Done DIIS. Switching to GDM
 ---------------------------------------
  Cycle       Energy        RMS Gradient
 ---------------------------------------
    1    -569.7667483678      4.95e-03   Normal BFGS step
    2    -569.7670848025      7.25e-03   Normal BFGS step
    3    -569.7686587387      7.63e-04   Normal BFGS step
    4    -569.7686750212      4.98e-04   Normal BFGS step
    5    -569.7686869618      3.18e-04   Normal BFGS step
    6    -569.7686874742      1.80e-04   Normal BFGS step
    7    -569.7686879133      1.31e-04   Normal BFGS step
    8    -569.7686879909      6.41e-05   Normal BFGS step
    9    -569.7686880350      6.34e-05   Normal BFGS step
   10    -569.7686880539      6.31e-05   Normal BFGS step
   11    -569.7686880764      6.18e-05   Normal BFGS step
   12    -569.7686881126      5.34e-05   Normal BFGS step
   13    -569.7686881440      3.73e-05   Normal BFGS step
   14    -569.7686881660      3.53e-05   Normal BFGS step
   15    -569.7686881734      2.04e-05   Normal BFGS step
   16    -569.7686881745      3.49e-06   Normal BFGS step
   17    -569.7686881748      1.38e-06   Normal BFGS step
   18    -569.7686881749      8.69e-07   Normal BFGS step
   19    -569.7686881749      1.35e-07   Normal BFGS step
   20    -569.7686881749      8.19e-08  Convergence criterion met
 ---------------------------------------
 SCF time:   CPU 2013.98s  wall 137.00s 
<S^2> =          0.753851869
(3)  G-ENP(liq) elect-nuc-pol free energy of system     -569.768688175 a.u.
(4)  G-CDS(liq) cavity-dispersion-solvent structure 
     free energy                                                3.2126 kcal/mol
(6)  G-S(liq) free energy of system                     -569.763568553 a.u.
 SCF   energy in the final basis set =     -569.7635685526
 Total energy in the final basis set =     -569.7635685526
 
 --------------------------------------------------------------
 
                    Orbital Energies (a.u.)
 --------------------------------------------------------------
 
 Alpha MOs
 -- Occupied --
-19.4076 -19.4009 -19.4003 -19.3632 -19.3500 -19.3486 -10.4651 -10.4512
-10.4035  -1.2837  -1.2157  -1.1930  -1.1698  -1.1399  -1.0417  -0.8830
 -0.7997  -0.7385  -0.6976  -0.6582  -0.6504  -0.6334  -0.6042  -0.5870
 -0.5783  -0.5581  -0.5484  -0.5354  -0.4961  -0.4692  -0.4562  -0.4446
 -0.4394  -0.4315  -0.4127  -0.4058  -0.3878
 -- Virtual --
  0.0267   0.0387   0.0417   0.0485   0.0660   0.0710   0.0813   0.0921
  0.0959   0.1215   0.1305   0.1358   0.1380   0.1402   0.1465   0.1526
  0.1655   0.1747   0.1757   0.1979   0.2082   0.2195   0.2280   0.2440
  0.2462   0.2553   0.2591   0.2707   0.2756   0.2807   0.2890   0.2972
  0.3151   0.3169   0.3243   0.3279   0.3345   0.3374   0.3468   0.3510
  0.3597   0.3667   0.3735   0.3797   0.3836   0.3870   0.3966   0.4093
  0.4105   0.4195   0.4266   0.4405   0.4481   0.4567   0.4608   0.4711
  0.4965   0.5310   0.5661   0.5740   0.5918   0.6157   0.6294   0.6335
  0.6347   0.6571   0.6630   0.6803   0.6884   0.7110   0.7255   0.7368
  0.7463   0.7621   0.7788   0.8001   0.8351   0.8509   0.8722   0.8955
  0.9244   0.9317   0.9551   0.9771   0.9989   1.0170   1.0489   1.0713
  1.0739   1.0823   1.1107   1.1224   1.1332   1.1362   1.1424   1.1684
  1.1799   1.1867   1.1945   1.1974   1.2113   1.2198   1.2343   1.2433
  1.2461   1.2655   1.2797   1.2916   1.3126   1.3220   1.3341   1.3483
  1.3594   1.3724   1.4001   1.4038   1.4373   1.4498   1.4648   1.4872
  1.4959   1.5076   1.5234   1.5346   1.5569   1.5762   1.5900   1.6131
  1.6286   1.6610   1.6659   1.6811   1.7003   1.7166   1.7530   1.7829
  1.8169   1.8372   1.8622   1.9084   1.9242   1.9263   1.9712   1.9785
  2.0059   2.0122   2.0548   2.0908   2.1251   2.1595   2.1762   2.2243
  2.2581   2.2948   2.3050   2.3409   2.3650   2.3922   2.4051   2.4519
  2.4554   2.4819   2.4834   2.5159   2.5455   2.5806   2.6182   2.6830
  2.7662   2.7833   2.8098   2.8386   2.8422   2.8860   2.9198   3.0029
  3.0564   3.0994   3.1348   3.1687   3.2065   3.2169   3.2418   3.2463
  3.3156   3.3476   3.3916   3.3942   3.4166   3.4443   3.4971   3.5204
  3.5482   3.5717   3.6084   3.6407   3.6729   3.6757   3.6932   3.7233
  3.7375   3.7565   3.8016   3.8052   3.8256   3.8398   3.8556   3.8865
  3.9091   3.9145   3.9380   3.9505   3.9687   3.9785   4.0227   4.0603
  4.0804   4.1384   4.1531   4.1809   4.2271   4.2475   4.2591   4.3031
  4.3135   4.3361   4.3431   4.3680   4.4077   4.4197   4.4517   4.4635
  4.5433   4.5602   4.5751   4.6358   4.7146   4.7513   4.8525   4.9222
  5.0090   5.0434   5.1124   5.1258   5.1535   5.2029   5.2165   5.2223
  5.2348   5.2607   5.2708   5.2745   5.2873   5.3094   5.3116   5.3387
  5.3458   5.3483   5.3652   5.3757   5.3981   5.4084   5.4344   5.4495
  5.4770   5.4892   5.5118   5.5458   5.5629   5.5673   5.5950   5.6038
  5.6364   5.6444   5.6716   5.6775   5.7116   5.7537   5.7915   5.8077
  5.8821   5.9308   5.9931   6.0106   6.0324   6.0724   6.0948   6.1483
  6.1667   6.2482   6.4871   6.5771   6.7167   6.7621   6.8126   6.8532
  6.9002   6.9248   7.0142   7.0406   7.0804   7.0925   7.1216   7.1467
  7.2395   7.2672   7.2681   7.2861   7.2930   7.3160   7.3234   7.3554
  7.4117   7.4151   7.4298   7.4508   7.4860   7.5091   7.5765   7.5977
  7.6693   7.6797   7.6880   7.7736   7.8193   7.8606   7.8743   7.9071
  8.0120   8.1914  24.6936  24.8195  24.8724  50.4808  50.5182  50.5841
 50.6197  50.6390  50.6845
 
 Beta MOs
 -- Occupied --
-19.4075 -19.4003 -19.3782 -19.3632 -19.3499 -19.3486 -10.4651 -10.4512
-10.4037  -1.2834  -1.2150  -1.1888  -1.1401  -1.1238  -1.0414  -0.8782
 -0.7898  -0.7356  -0.6961  -0.6560  -0.6470  -0.6289  -0.5844  -0.5821
 -0.5705  -0.5426  -0.5321  -0.5230  -0.4932  -0.4658  -0.4546  -0.4361
 -0.4264  -0.4131  -0.4048  -0.3797
 -- Virtual --
 -0.0653   0.0268   0.0388   0.0420   0.0486   0.0663   0.0715   0.0814
  0.0929   0.0965   0.1220   0.1308   0.1361   0.1392   0.1404   0.1476
  0.1529   0.1659   0.1760   0.1764   0.1985   0.2096   0.2205   0.2309
  0.2459   0.2469   0.2581   0.2598   0.2713   0.2762   0.2808   0.2916
  0.2994   0.3165   0.3196   0.3259   0.3291   0.3353   0.3379   0.3471
  0.3513   0.3617   0.3683   0.3756   0.3804   0.3843   0.3878   0.3968
  0.4104   0.4119   0.4197   0.4269   0.4407   0.4485   0.4577   0.4618
  0.4753   0.4968   0.5320   0.5696   0.5753   0.5942   0.6195   0.6326
  0.6342   0.6353   0.6578   0.6642   0.6819   0.6899   0.7125   0.7282
  0.7371   0.7476   0.7648   0.7795   0.8008   0.8354   0.8531   0.8725
  0.8960   0.9261   0.9328   0.9555   0.9777   1.0007   1.0204   1.0495
  1.0726   1.0758   1.0850   1.1134   1.1259   1.1352   1.1382   1.1474
  1.1701   1.1844   1.1920   1.1962   1.2043   1.2141   1.2258   1.2360
  1.2469   1.2503   1.2678   1.2840   1.2929   1.3137   1.3259   1.3359
  1.3528   1.3618   1.3771   1.4033   1.4068   1.4394   1.4562   1.4679
  1.4938   1.4975   1.5092   1.5247   1.5371   1.5609   1.5775   1.5942
  1.6148   1.6321   1.6675   1.6704   1.6826   1.7110   1.7193   1.7574
  1.7860   1.8192   1.8490   1.8812   1.9122   1.9259   1.9436   1.9719
  1.9797   2.0083   2.0149   2.0567   2.0958   2.1295   2.1681   2.1790
  2.2255   2.2595   2.2980   2.3153   2.3425   2.3657   2.3948   2.4109
  2.4537   2.4574   2.4827   2.4854   2.5250   2.5467   2.5827   2.6230
  2.6834   2.7729   2.7878   2.8117   2.8390   2.8432   2.8865   2.9210
  3.0039   3.0579   3.1007   3.1391   3.1717   3.2108   3.2184   3.2442
  3.2491   3.3166   3.3488   3.3914   3.3952   3.4182   3.4481   3.4988
  3.5257   3.5485   3.5732   3.6112   3.6413   3.6730   3.6781   3.6951
  3.7258   3.7397   3.7582   3.8022   3.8064   3.8267   3.8400   3.8563
  3.8880   3.9105   3.9158   3.9398   3.9528   3.9698   3.9823   4.0243
  4.0623   4.0831   4.1401   4.1573   4.1838   4.2294   4.2486   4.2614
  4.3056   4.3171   4.3377   4.3532   4.3799   4.4090   4.4275   4.4555
  4.4681   4.5489   4.5674   4.5837   4.6396   4.7154   4.7524   4.8541
  4.9316   5.0168   5.0437   5.1674   5.1830   5.1996   5.2157   5.2312
  5.2373   5.2680   5.2732   5.2788   5.2839   5.2888   5.3146   5.3211
  5.3421   5.3531   5.3744   5.3796   5.3849   5.4090   5.4232   5.4467
  5.4516   5.4845   5.5053   5.5154   5.5511   5.5649   5.5687   5.5997
  5.6127   5.6388   5.6534   5.6733   5.6797   5.7122   5.7550   5.7924
  5.8093   5.8923   5.9398   6.0042   6.0327   6.0382   6.0764   6.0971
  6.1493   6.1680   6.2491   6.4879   6.5775   6.7326   6.7701   6.8198
  6.8588   6.9983   7.0134   7.0223   7.0441   7.0807   7.0950   7.1244
  7.1481   7.2491   7.2679   7.2738   7.2974   7.3028   7.3223   7.3453
  7.3675   7.4132   7.4195   7.4515   7.4627   7.4933   7.5156   7.5774
  7.5986   7.6695   7.6867   7.7239   7.7779   7.8195   7.8621   7.8746
  7.9074   8.0123   8.1915  24.6935  24.8195  24.8724  50.4850  50.5275
 50.5860  50.6199  50.6391  50.6848
 --------------------------------------------------------------
 
          Ground-State Mulliken Net Atomic Charges

     Atom                 Charge (a.u.)    Spin (a.u.)
  --------------------------------------------------------
      1 C                    -0.102498       0.000588
      2 O                    -0.425893       0.001727
      3 C                     0.144729       0.002210
      4 O                    -0.392884       0.001103
      5 C                    -0.295388      -0.003312
      6 O                    -0.204002       0.870324
      7 H                     0.293827       0.000255
      8 H                     0.341645       0.000732
      9 H                     0.278932       0.083294
     10 H                     0.260207       0.042088
     11 O                    -0.449862       0.000154
     12 H                     0.348571      -0.000139
     13 O                    -0.197948      -0.000016
     14 O                    -0.269387       0.002922
     15 H                     0.330826      -0.001588
     16 H                     0.339125      -0.000342
  --------------------------------------------------------
  Sum of atomic charges =     0.000000
  Sum of spin   charges =     1.000000

 -----------------------------------------------------------------
                    Cartesian Multipole Moments
 -----------------------------------------------------------------
    Charge (ESU x 10^10)
                 0.0000
    Dipole Moment (Debye)
         X      -1.9264      Y       4.0148      Z      -0.2556
       Tot       4.4604
    Quadrupole Moments (Debye-Ang)
        XX     -62.5229     XY      16.4117     YY     -56.0860
        XZ       2.7809     YZ      -8.5842     ZZ     -55.4704
    Octopole Moments (Debye-Ang^2)
       XXX    -581.3335    XXY      98.6023    XYY    -190.6990
       YYY      80.5033    XXZ      15.5043    XYZ     -40.5812
       YYZ      14.4181    XZZ    -193.9672    YZZ      33.0925
       ZZZ      39.5393
    Hexadecapole Moments (Debye-Ang^3)
      XXXX   -4278.7822   XXXY     547.2649   XXYY    -816.4037
      XYYY     199.3337   YYYY    -484.2404   XXXZ      73.5471
      XXYZ    -213.3117   XYYZ      27.1861   YYYZ    -124.8191
      XXZZ    -817.0301   XYZZ      79.0906   YYZZ    -182.3079
      XZZZ     136.0434   YZZZ    -118.8570   ZZZZ    -400.7438
 -----------------------------------------------------------------
 Calculating analytic gradient of the SCF energy
 Gradient of CDS energy
            1           2           3           4           5           6
    1  -0.0018739   0.0021872  -0.0000694   0.0000735   0.0042997  -0.0044314
    2  -0.0025542  -0.0006075  -0.0025587   0.0025789   0.0024987  -0.0016921
    3  -0.0000380  -0.0008503   0.0032263  -0.0034867   0.0054282  -0.0051547
            7           8           9          10          11          12
    1   0.0002281  -0.0005105  -0.0001496   0.0001596  -0.0001415  -0.0000368
    2   0.0000530   0.0000793  -0.0002101  -0.0001840   0.0032486  -0.0004858
    3  -0.0000928  -0.0000323   0.0000730  -0.0001978   0.0007791   0.0000872
           13          14          15          16
    1  -0.0000778  -0.0001795   0.0001285   0.0003938
    2  -0.0000415  -0.0001937  -0.0001846   0.0002538
    3  -0.0000725   0.0001309   0.0004102  -0.0002098
 Gradient of SCF Energy
            1           2           3           4           5           6
    1   0.0012824   0.0075317  -0.0008853  -0.0028951   0.0070182   0.0021660
    2  -0.0017492  -0.0018382   0.0053413  -0.0045381  -0.0143918   0.0028630
    3   0.0059317   0.0109031  -0.0019802  -0.0049662   0.0073242   0.0011701
            7           8           9          10          11          12
    1  -0.0030045  -0.0089316  -0.0070753   0.0026909   0.0040271  -0.0022081
    2   0.0059344   0.0011753   0.0031528   0.0081995  -0.0020549  -0.0010977
    3  -0.0039229  -0.0095437   0.0030483  -0.0112044  -0.0037159   0.0010828
           13          14          15          16
    1   0.0001811  -0.0050916   0.0022403   0.0029538
    2  -0.0045174  -0.0141742   0.0027239   0.0149712
    3   0.0015715  -0.0082386   0.0059074   0.0066327
 Max gradient component =       1.497E-02
 RMS gradient           =       6.148E-03
 Computing fast CPCM-SWIG gradient
 Updating gradient with PCM contributions...
 -- total gradient after adding PCM contribution --
---------------------------------------------------
  Atom         X              Y              Z     
---------------------------------------------------
   1       0.000713       0.000591      -0.000338
   2      -0.000948      -0.000060      -0.002131
   3       0.000536       0.001080      -0.001049
   4       0.001323       0.000554       0.001175
   5      -0.000356       0.000763      -0.001807
   6      -0.000075       0.000145      -0.000040
   7      -0.000202      -0.000254       0.000734
   8       0.000918      -0.000069       0.001391
   9       0.000661      -0.000217       0.000133
  10       0.000707      -0.001008       0.000823
  11      -0.000366      -0.000455       0.001948
  12       0.000004       0.000325      -0.001608
  13      -0.000062      -0.000059       0.000637
  14       0.000242       0.001086      -0.000094
  15      -0.000896      -0.000879      -0.000819
  16      -0.002199      -0.001543       0.001044
---------------------------------------------------
 Number of fixed atoms: 0
 Gradient time:  CPU 256.36 s  wall 21.10 s
 Geometry Optimization Parameters
   NAtoms,    NIC,     NZ,  NCons,   NDum,   NFix, NCnnct, MaxDiis
       16     101       0       0       0       0       0       0

 Cartesian Hessian Update
 Hessian updated using BFGS update


** GEOMETRY OPTIMIZATION IN DELOCALIZED INTERNAL COORDINATES **
   Searching for a Minimum

   Optimization Cycle:   3

                       Coordinates (Angstroms)
     ATOM                X               Y               Z
      1  C         2.4121795965   -0.9675095310   -0.9075967371
      2  O         1.1879802722   -0.6684278050   -0.2836239134
      3  C         3.5167659441   -0.5388411786    0.0621373595
      4  O         3.4832545461   -1.3831852683    1.1649297648
      5  C         3.4143162268    0.9264248651    0.4742438333
      6  O         4.2886199848    1.2409867420    1.4827159029
      7  H         2.5119946324   -0.4248556777   -1.8434248612
      8  H         0.4886343727   -0.7483841570   -0.9398535507
      9  H         2.4086059977    1.1296413190    0.8765529995
     10  H         3.5306676622    1.6158527111   -0.3678184021
     11  O         2.5187298299   -2.3302403943   -1.2299525136
     12  H         2.5459745744   -2.8397983499   -0.4109815329
     13  O         4.8058731213   -0.8035262785   -0.5215734856
     14  O         4.9519989226   -0.0158950408   -1.7016353039
     15  H         3.9855475302   -0.9701957582    1.8800778960
     16  H         5.4218894861    0.7615460025   -1.3706989553
   Point Group: c1    Number of degrees of freedom:    42


   Energy is   -569.763568553

 Hessian updated using BFGS update

 39 Hessian modes will be used to form the next step
  Hessian Eigenvalues:
     0.004948    0.005240    0.009814    0.012888    0.014073    0.014848
     0.016623    0.048751    0.053750    0.056831    0.058878    0.063119
     0.063541    0.091478    0.097645    0.155945    0.164731    0.169628
     0.178316    0.183120    0.186213    0.207210    0.218815    0.280219
     0.293924    0.308832    0.329839    0.338663    0.345737    0.375656
     0.413975    0.439133    0.443352    0.456020    0.486297    0.516377
     0.523602    0.526212    0.532757

 Minimum search - taking simple RFO step
 Searching for Lamda that Minimizes Along All modes
 Value Taken    Lamda =  -0.00045024
 Step Taken.  Stepsize is  0.138766

                             Maximum     Tolerance    Cnvgd?
         Gradient           0.005201      0.000300      NO
         Displacement       0.082732      0.001200      NO
         Energy change      0.000124      0.000001      NO


 New Cartesian Coordinates Obtained by Inverse Iteration

 Displacement from previous Coordinates is:  0.247823
 ----------------------------------------------------------------
             Standard Nuclear Orientation (Angstroms)
    I     Atom           X                Y                Z
 ----------------------------------------------------------------
    1      C       2.4052479704    -0.9657159349    -0.9059942306
    2      O       1.1831283671    -0.6774834680    -0.2724163728
    3      C       3.5104305698    -0.5344819288     0.0613181751
    4      O       3.4824728423    -1.3814330437     1.1612041185
    5      C       3.3987543078     0.9281252995     0.4805185051
    6      O       4.2775498673     1.2456408364     1.4841999641
    7      H       2.4988488418    -0.4179462898    -1.8404822337
    8      H       0.4823055623    -0.7533128636    -0.9290718868
    9      H       2.3928317388     1.1212473589     0.8893754702
   10      H       3.5013556367     1.6224761570    -0.3610664618
   11      O       2.5224361095    -2.3253749163    -1.2353822996
   12      H       2.5568610197    -2.8336439146    -0.4148379705
   13      O       4.8006283958    -0.7925303715    -0.5255349207
   14      O       4.9488286404    -0.0016083461    -1.7032148986
   15      H       3.9856108168    -0.9644067390     1.8745216860
   16      H       5.5257420135     0.7140403648    -1.3996381438
 ----------------------------------------------------------------
 Nuclear Repulsion Energy =         529.37810650 hartrees
 There are       37 alpha and       36 beta electrons
 Discretize the solute cavity surface with Lebedev spheres
	Using 110 Lebedev grid points for each H atom
	Using 194 Lebedev grid points for other atoms
	Atomic van der Waals radii will be scaled by 1.20
 Remove points where switching function is < 1.0e-08
 Keep 1283 surface tesserae and discard 1233 interior tesserae
 Molecular Surface Area = 143.959 Angst**2
 Applying Cartesian multipole field
    Component          Value
    ---------          -----
     (2,0,0)        1.00000E-12
     (0,2,0)        2.00000E-11
     (0,0,2)       -3.00000E-11
 Nucleus-field energy     =     0.0000000020 hartrees
 Requested basis set is 6-311++G(2df,2p)
 There are 114 shells and 376 basis functions
 A cutoff of  1.0D-12 yielded   6009 shell pairs
 There are     65410 function pairs (     81739 Cartesian)
 Smallest overlap matrix eigenvalue = 1.25E-05
 Guess MOs from SCF MO coefficient file

 -----------------------------------------------------------------------
  General SCF calculation program by
  Eric Jon Sundstrom, Paul Horn, Yuezhi Mao, Dmitri Zuev, Alec White,
  David Stuck, Shaama M.S., Shane Yost, Joonho Lee, David Small,
  Daniel Levine, Susi Lehtola, Hugh Burton, Evgeny Epifanovsky,
  Bang C. Huynh
 -----------------------------------------------------------------------
 Exchange:     0.1500 Hartree-Fock + 1.0000 wB97M-V + LR-HF
 Correlation:  1.0000 wB97M-V
 Using SG-2 standard quadrature grid
 Nonlocal Correlation:  VV10 with C = 0.0100 and b = 6.00 and scale = 1.00000
 Grid used for NLC:  SG-1 standard quadrature
 
 Citation of the SMD model:
 Marenich, A.V.; Cramer, C.J.; Truhlar, D.G.
 J. Phys. Chem. B 2009, 113, 6378-6396.
 iSolventCode=           1
 Solvent: water                                                           
 
 vradii
            1           2           3           4           5           6
    1   1.8500000   1.5200000   1.8500000   1.5200000   1.8500000   1.5200000
            7           8           9          10          11          12
    1   1.2000000   1.2000000   1.2000000   1.2000000   1.5200000   1.2000000
           13          14          15          16
    1   1.5200000   1.5200000   1.2000000   1.2000000
 -------------------------------------------------------
 OpenMP BLAS3 based DFT computing Module                
 Release: version 1.0, May 2013, Q-Chem Inc. Pittsburgh 
 -------------------------------------------------------
 A unrestricted SCF calculation will be
 performed using Roothaan-Hall, DIIS, GDM
 SCF converges when RMS gradient is below 1.0e-07
 ---------------------------------------
  Cycle       Energy         DIIS error
 ---------------------------------------
    1    -569.7214477018      2.99e-04  Roothaan Step
 ---------------------------------------
  Cycle       Energy         DIIS error
 ---------------------------------------
    1    -569.7614754996      2.67e-04  
    2    -569.7671399729      1.87e-04  Done DIIS. Switching to GDM
 ---------------------------------------
  Cycle       Energy        RMS Gradient
 ---------------------------------------
    1    -569.7671399729      5.25e-03   Normal BFGS step
    2    -569.7673568189      6.99e-03   Normal BFGS step
    3    -569.7689483127      6.90e-04   Normal BFGS step
    4    -569.7689631242      5.56e-04   Normal BFGS step
    5    -569.7689781364      2.98e-04   Normal BFGS step
    6    -569.7689787121      2.64e-04   Normal BFGS step
    7    -569.7689791832      2.47e-04   Normal BFGS step
    8    -569.7689794282      2.31e-04   Normal BFGS step
    9    -569.7689798832      1.98e-04   Normal BFGS step
   10    -569.7689803436      1.89e-04   Normal BFGS step
   11    -569.7689808034      2.04e-04   Normal BFGS step
   12    -569.7689810551      1.28e-04   Normal BFGS step
   13    -569.7689811247      4.57e-05   Normal BFGS step
   14    -569.7689811443      2.36e-05   Normal BFGS step
   15    -569.7689811480      1.61e-05   Normal BFGS step
   16    -569.7689811489      3.21e-06   Normal BFGS step
   17    -569.7689811492      1.50e-06   Normal BFGS step
   18    -569.7689811492      8.47e-07   Normal BFGS step
   19    -569.7689811492      1.12e-07   Normal BFGS step
   20    -569.7689811492      6.97e-08  Convergence criterion met
 ---------------------------------------
 SCF time:   CPU 2050.94s  wall 141.00s 
<S^2> =          0.753865306
(3)  G-ENP(liq) elect-nuc-pol free energy of system     -569.768981149 a.u.
(4)  G-CDS(liq) cavity-dispersion-solvent structure 
     free energy                                                3.2582 kcal/mol
(6)  G-S(liq) free energy of system                     -569.763788920 a.u.
 SCF   energy in the final basis set =     -569.7637889202
 Total energy in the final basis set =     -569.7637889202
 
 --------------------------------------------------------------
 
                    Orbital Energies (a.u.)
 --------------------------------------------------------------
 
 Alpha MOs
 -- Occupied --
-19.4069 -19.4006 -19.3997 -19.3632 -19.3503 -19.3488 -10.4647 -10.4511
-10.4031  -1.2824  -1.2158  -1.1929  -1.1694  -1.1401  -1.0412  -0.8822
 -0.7990  -0.7380  -0.6960  -0.6572  -0.6515  -0.6319  -0.6039  -0.5881
 -0.5773  -0.5579  -0.5482  -0.5352  -0.4961  -0.4701  -0.4568  -0.4436
 -0.4371  -0.4309  -0.4139  -0.4065  -0.3859
 -- Virtual --
  0.0267   0.0386   0.0416   0.0483   0.0661   0.0703   0.0812   0.0921
  0.0963   0.1217   0.1306   0.1358   0.1381   0.1404   0.1464   0.1527
  0.1649   0.1747   0.1763   0.1979   0.2081   0.2202   0.2297   0.2425
  0.2464   0.2550   0.2596   0.2707   0.2725   0.2806   0.2902   0.2980
  0.3153   0.3172   0.3233   0.3256   0.3343   0.3394   0.3454   0.3511
  0.3602   0.3664   0.3751   0.3793   0.3840   0.3869   0.4002   0.4091
[...]
  7.9076   8.0119   8.1892  24.6896  24.8170  24.8706  50.4844  50.5257
 50.5850  50.6194  50.6369  50.6840
 --------------------------------------------------------------
 
          Ground-State Mulliken Net Atomic Charges

     Atom                 Charge (a.u.)    Spin (a.u.)
  --------------------------------------------------------
      1 C                    -0.111536       0.000692
      2 O                    -0.425613       0.001944
      3 C                     0.172111       0.001638
      4 O                    -0.391719       0.001072
      5 C                    -0.316377      -0.003058
      6 O                    -0.205383       0.867851
      7 H                     0.293400       0.000294
      8 H                     0.340588       0.000623
      9 H                     0.278313       0.084365
     10 H                     0.264476       0.043534
     11 O                    -0.449160       0.000128
     12 H                     0.348589      -0.000141
     13 O                    -0.198779       0.000025
     14 O                    -0.273152       0.002863
     15 H                     0.332357      -0.001548
     16 H                     0.341885      -0.000282
  --------------------------------------------------------
  Sum of atomic charges =     0.000000
  Sum of spin   charges =     1.000000

 -----------------------------------------------------------------
                    Cartesian Multipole Moments
 -----------------------------------------------------------------
    Charge (ESU x 10^10)
                 0.0000
    Dipole Moment (Debye)
         X      -1.7352      Y       3.9902      Z      -0.3227
       Tot       4.3631
    Quadrupole Moments (Debye-Ang)
        XX     -60.1922     XY      15.8829     YY     -56.5049
        XZ       2.3130     YZ      -8.5963     ZZ     -55.4136
    Octopole Moments (Debye-Ang^2)
       XXX    -560.2382    XXY      96.4571    XYY    -191.6776
       YYY      80.0300    XXZ      11.3209    XYZ     -40.5713
       YYZ      14.6149    XZZ    -192.8310    YZZ      33.1900
       ZZZ      39.3056
    Hexadecapole Moments (Debye-Ang^3)
      XXXX   -4115.2486   XXXY     540.7128   XXYY    -820.1488
      XYYY     195.7249   YYYY    -485.8308   XXXZ      41.0800
      XXYZ    -214.3327   XYYZ      28.4360   YYYZ    -124.7929
      XXZZ    -807.1649   XYZZ      79.1806   YYZZ    -183.2599
      XZZZ     135.5809   YZZZ    -119.1441   ZZZZ    -400.5588
 -----------------------------------------------------------------
 Calculating analytic gradient of the SCF energy
 Gradient of CDS energy
            1           2           3           4           5           6
    1  -0.0017842   0.0021210  -0.0000534   0.0000539   0.0043317  -0.0044529
    2  -0.0025133  -0.0005693  -0.0025736   0.0025943   0.0025467  -0.0017375
    3  -0.0000624  -0.0008294   0.0032411  -0.0034973   0.0053366  -0.0050447
            7           8           9          10          11          12
    1   0.0002302  -0.0005078  -0.0001497   0.0001491  -0.0001719  -0.0000318
    2   0.0000542   0.0000909  -0.0002141  -0.0001746   0.0031599  -0.0004865
    3  -0.0000938  -0.0000332   0.0000734  -0.0002189   0.0007866   0.0000844
           13          14          15          16
    1  -0.0000896  -0.0001903   0.0001327   0.0004129
    2  -0.0000440  -0.0001791  -0.0001851   0.0002309
    3  -0.0000755   0.0001434   0.0004075  -0.0002179
 Gradient of SCF Energy
            1           2           3           4           5           6
    1   0.0011310   0.0086202  -0.0018145  -0.0044201   0.0081171   0.0020985
    2  -0.0025558  -0.0026348   0.0045765  -0.0050445  -0.0144789   0.0027276
    3   0.0062582   0.0134283  -0.0007659  -0.0061208   0.0083287   0.0010548
            7           8           9          10          11          12
    1  -0.0029401  -0.0098259  -0.0076124   0.0012556   0.0042494  -0.0021501
    2   0.0062633   0.0020398   0.0032814   0.0086920  -0.0016902  -0.0013633
    3  -0.0046418  -0.0112747   0.0027808  -0.0113457  -0.0055285   0.0025868
           13          14          15          16
    1   0.0001667  -0.0071985   0.0032681   0.0070549
    2  -0.0047140  -0.0140995   0.0035653   0.0154350
    3   0.0011474  -0.0077693   0.0066489   0.0052128
 Max gradient component =       1.543E-02
 RMS gradient           =       6.670E-03
 Computing fast CPCM-SWIG gradient
 Updating gradient with PCM contributions...
 -- total gradient after adding PCM contribution --
---------------------------------------------------
  Atom         X              Y              Z     
---------------------------------------------------
   1       0.000027      -0.000015       0.000022
   2       0.000010       0.000035       0.000040
   3      -0.000094       0.000035       0.000103
   4      -0.000024       0.000011      -0.000085
   5       0.000191      -0.000021       0.000175
   6      -0.000095      -0.000021      -0.000145
   7       0.000012       0.000013      -0.000011
   8      -0.000029      -0.000002      -0.000020
   9      -0.000027       0.000049      -0.000038
  10      -0.000032       0.000024      -0.000041
  11      -0.000007      -0.000005      -0.000033
  12      -0.000030      -0.000017       0.000060
  13       0.000084      -0.000039      -0.000039
  14      -0.000021      -0.000066      -0.000032
  15       0.000020       0.000032       0.000023
  16       0.000017      -0.000013       0.000021
---------------------------------------------------
 Number of fixed atoms: 0
 Gradient time:  CPU 257.33 s  wall 21.22 s
 Geometry Optimization Parameters
   NAtoms,    NIC,     NZ,  NCons,   NDum,   NFix, NCnnct, MaxDiis
       16     101       0       0       0       0       0       0

 Cartesian Hessian Update
 Hessian updated using BFGS update


** GEOMETRY OPTIMIZATION IN DELOCALIZED INTERNAL COORDINATES **
   Searching for a Minimum

   Optimization Cycle:   8

                       Coordinates (Angstroms)
     ATOM                X               Y               Z
      1  C         2.4059378213   -0.9697823144   -0.9038794469
      2  O         1.1817798523   -0.6899798573   -0.2701675655
      3  C         3.5101019648   -0.5363950631    0.0644541846
      4  O         3.4819387830   -1.3814542241    1.1662456594
      5  C         3.3968134086    0.9275118337    0.4788115675
      6  O         4.2801005527    1.2527400433    1.4738979213
      7  H         2.4959255138   -0.4175010840   -1.8365842669
      8  H         0.4858874715   -0.7205886004   -0.9364777731
      9  H         2.3915221663    1.1195409226    0.8909704077
     10  H         3.4890946448    1.6195655302   -0.3669892896
     11  O         2.5280477682   -2.3288362048   -1.2377351365
     12  H         2.5572663728   -2.8406283606   -0.4182018106
     13  O         4.8016417842   -0.7941657620   -0.5210030551
     14  O         4.9498229137   -0.0040302915   -1.6997553775
     15  H         3.9968727551   -0.9696283648    1.8752359083
     16  H         5.5202789268    0.7172239974   -1.3953234273
   Point Group: c1    Number of degrees of freedom:    42


   Energy is   -569.763809346

 Hessian updated using BFGS update

 42 Hessian modes will be used to form the next step
  Hessian Eigenvalues:
     0.002723    0.005148    0.005264    0.011700    0.013602    0.014710
     0.016463    0.042909    0.053921    0.055865    0.060259    0.063334
     0.064383    0.092583    0.106037    0.154730    0.159566    0.159946
     0.161326    0.165924    0.176909    0.181167    0.185857    0.195598
     0.209468    0.220415    0.292332    0.304090    0.308712    0.326664
     0.333417    0.346638    0.387379    0.403305    0.442374    0.446092
     0.459325    0.488096    0.516088    0.523889    0.526431    0.533849

 Minimum search - taking simple RFO step
 Searching for Lamda that Minimizes Along All modes
 Value Taken    Lamda =  -0.00000047
 Step Taken.  Stepsize is  0.005706

                             Maximum     Tolerance    Cnvgd?
         Gradient           0.000097      0.000300     YES
         Displacement       0.002301      0.001200      NO
         Energy change     -0.000001      0.000001     YES

 Final energy is   -569.763809345802     


 ******************************
 **  OPTIMIZATION CONVERGED  **
 ******************************

                       Coordinates (Angstroms)
     ATOM                X               Y               Z
      1  C         2.4059378213   -0.9697823144   -0.9038794469
      2  O         1.1817798523   -0.6899798573   -0.2701675655
      3  C         3.5101019648   -0.5363950631    0.0644541846
      4  O         3.4819387830   -1.3814542241    1.1662456594
      5  C         3.3968134086    0.9275118337    0.4788115675
      6  O         4.2801005527    1.2527400433    1.4738979213
      7  H         2.4959255138   -0.4175010840   -1.8365842669
      8  H         0.4858874715   -0.7205886004   -0.9364777731
      9  H         2.3915221663    1.1195409226    0.8909704077
     10  H         3.4890946448    1.6195655302   -0.3669892896
     11  O         2.5280477682   -2.3288362048   -1.2377351365
     12  H         2.5572663728   -2.8406283606   -0.4182018106
     13  O         4.8016417842   -0.7941657620   -0.5210030551
     14  O         4.9498229137   -0.0040302915   -1.6997553775
     15  H         3.9968727551   -0.9696283648    1.8752359083
     16  H         5.5202789268    0.7172239974   -1.3953234273

Z-matrix Print:
$molecule
0 2
O 
O  1 1.426790
H  2 0.968662 1 102.348590
C  1 1.441278 2 109.245317 3 102.295739 0
O  4 1.388835 1 103.391325 2 178.507032 0
H  5 0.968207 4 108.139441 1 79.077661 0
C  4 1.525631 1 110.394362 2 -62.095431 0
H  7 1.096738 4 112.940719 1 61.517754 0
H  7 1.103341 4 109.640447 1 177.939228 0
O  7 1.369732 4 112.163958 1 -64.642074 0
C  4 1.531233 1 109.796365 2 63.060307 0
H  11 1.087681 4 109.810640 1 -59.713431 0
O  11 1.404777 4 111.188058 1 57.616297 0
H  13 0.966654 11 108.261537 4 53.928383 0
O  11 1.406571 4 106.640308 1 -179.984150 0
H  15 0.963936 11 108.092894 4 164.533578 0
$end

 
 --------------------------------------------------------------
 
                    Orbital Energies (a.u.)
 --------------------------------------------------------------
 
 Alpha MOs
 -- Occupied --
-19.4069 -19.4003 -19.3997 -19.3633 -19.3504 -19.3486 -10.4648 -10.4513
-10.4031  -1.2820  -1.2153  -1.1927  -1.1697  -1.1398  -1.0410  -0.8821
 -0.7986  -0.7377  -0.6959  -0.6569  -0.6514  -0.6318  -0.6036  -0.5888
 -0.5772  -0.5580  -0.5479  -0.5344  -0.4964  -0.4689  -0.4569  -0.4437
 -0.4370  -0.4311  -0.4130  -0.4070  -0.3858
 -- Virtual --
  0.0266   0.0386   0.0415   0.0482   0.0660   0.0705   0.0812   0.0922
  0.0963   0.1214   0.1307   0.1357   0.1380   0.1403   0.1462   0.1525
  0.1647   0.1744   0.1760   0.1980   0.2078   0.2201   0.2299   0.2423
  0.2467   0.2547   0.2596   0.2702   0.2726   0.2808   0.2902   0.2980
  0.3153   0.3173   0.3234   0.3254   0.3347   0.3401   0.3453   0.3508
  0.3600   0.3661   0.3749   0.3791   0.3843   0.3868   0.4001   0.4077
  0.4103   0.4192   0.4316   0.4395   0.4483   0.4560   0.4635   0.4686
  0.4933   0.5323   0.5670   0.5748   0.5907   0.6145   0.6275   0.6331
  0.6344   0.6541   0.6655   0.6782   0.6846   0.7160   0.7284   0.7363
  0.7497   0.7604   0.7776   0.8001   0.8372   0.8572   0.8768   0.8943
  0.9222   0.9344   0.9414   0.9713   0.9963   1.0171   1.0468   1.0684
  1.0779   1.0859   1.1104   1.1177   1.1346   1.1399   1.1415   1.1686
  1.1814   1.1883   1.1943   1.1968   1.2108   1.2189   1.2350   1.2419
  1.2453   1.2638   1.2801   1.2942   1.3112   1.3246   1.3354   1.3471
  1.3588   1.3703   1.3991   1.4078   1.4399   1.4497   1.4675   1.4840
  1.4969   1.5073   1.5207   1.5308   1.5558   1.5735   1.5878   1.6106
  1.6307   1.6635   1.6689   1.6793   1.7027   1.7183   1.7525   1.7869
  1.8137   1.8357   1.8616   1.9000   1.9236   1.9362   1.9506   1.9790
  2.0061   2.0165   2.0561   2.0896   2.1206   2.1569   2.1793   2.2208
  2.2546   2.2909   2.3016   2.3442   2.3664   2.3986   2.4040   2.4520
  2.4542   2.4765   2.4862   2.5179   2.5393   2.5811   2.6217   2.6837
  2.7625   2.7913   2.8056   2.8375   2.8468   2.8844   2.9138   3.0044
  3.0553   3.0978   3.1354   3.1599   3.2008   3.2199   3.2468   3.2478
  3.3143   3.3453   3.3897   3.3945   3.4187   3.4424   3.4971   3.5301
  3.5535   3.5724   3.6092   3.6409   3.6700   3.6725   3.6934   3.7226
  3.7379   3.7570   3.8024   3.8066   3.8194   3.8378   3.8499   3.8886
  3.9041   3.9130   3.9377   3.9515   3.9665   3.9774   4.0205   4.0623
  4.0810   4.1360   4.1525   4.1779   4.2225   4.2456   4.2575   4.2998
  4.3070   4.3321   4.3401   4.3651   4.4044   4.4202   4.4483   4.4613
  4.5419   4.5562   4.5722   4.6324   4.7139   4.7497   4.8473   4.9291
  5.0104   5.0456   5.1118   5.1258   5.1515   5.2052   5.2155   5.2228
  5.2386   5.2619   5.2690   5.2748   5.2888   5.3080   5.3103   5.3398
  5.3453   5.3479   5.3658   5.3733   5.3988   5.4107   5.4312   5.4410
  5.4791   5.4877   5.5118   5.5462   5.5558   5.5760   5.5992   5.6059
  5.6300   5.6391   5.6689   5.6748   5.7106   5.7552   5.7787   5.8094
  5.8831   5.9295   5.9929   6.0130   6.0323   6.0702   6.0926   6.1456
  6.1691   6.2475   6.4825   6.5777   6.7190   6.7617   6.8112   6.8521
  6.9006   6.9248   7.0154   7.0354   7.0775   7.0923   7.1170   7.1488
  7.2386   7.2607   7.2638   7.2741   7.2914   7.3155   7.3187   7.3553
  7.4086   7.4122   7.4232   7.4481   7.4942   7.5106   7.5753   7.5962
  7.6672   7.6770   7.6854   7.7733   7.8219   7.8574   7.8759   7.9074
  8.0117   8.1891  24.6897  24.8171  24.8706  50.4808  50.5159  50.5830
 50.6192  50.6368  50.6838
 
 Beta MOs
 -- Occupied --
-19.4069 -19.3997 -19.3777 -19.3633 -19.3503 -19.3486 -10.4647 -10.4513
-10.4033  -1.2818  -1.2147  -1.1885  -1.1400  -1.1238  -1.0407  -0.8773
 -0.7887  -0.7348  -0.6944  -0.6553  -0.6473  -0.6271  -0.5868  -0.5798
 -0.5708  -0.5429  -0.5312  -0.5211  -0.4934  -0.4658  -0.4546  -0.4367
 -0.4231  -0.4131  -0.4066  -0.3781
 -- Virtual --
 -0.0651   0.0268   0.0387   0.0418   0.0484   0.0663   0.0710   0.0813
  0.0929   0.0969   0.1218   0.1311   0.1359   0.1391   0.1407   0.1472
  0.1528   0.1652   0.1759   0.1765   0.1986   0.2091   0.2211   0.2327
  0.2440   0.2476   0.2576   0.2604   0.2708   0.2733   0.2809   0.2936
  0.2996   0.3167   0.3195   0.3249   0.3266   0.3358   0.3406   0.3456
  0.3512   0.3618   0.3677   0.3772   0.3798   0.3848   0.3876   0.4005
  0.4096   0.4107   0.4194   0.4320   0.4399   0.4485   0.4569   0.4649
  0.4728   0.4937   0.5332   0.5703   0.5768   0.5930   0.6193   0.6279
  0.6337   0.6369   0.6548   0.6665   0.6800   0.6861   0.7175   0.7308
  0.7370   0.7509   0.7632   0.7783   0.8008   0.8375   0.8593   0.8771
  0.8949   0.9239   0.9354   0.9419   0.9725   0.9977   1.0205   1.0477
  1.0700   1.0789   1.0891   1.1132   1.1210   1.1379   1.1409   1.1467
  1.1702   1.1858   1.1931   1.1964   1.2020   1.2135   1.2264   1.2369
  1.2461   1.2489   1.2665   1.2837   1.2964   1.3124   1.3274   1.3374
  1.3518   1.3613   1.3753   1.4024   1.4106   1.4418   1.4557   1.4704
  1.4912   1.4992   1.5087   1.5215   1.5335   1.5597   1.5750   1.5917
  1.6131   1.6337   1.6690   1.6739   1.6809   1.7130   1.7221   1.7578
  1.7897   1.8153   1.8494   1.8759   1.9061   1.9349   1.9431   1.9526
  1.9801   2.0084   2.0194   2.0578   2.0949   2.1242   2.1659   2.1821
  2.2220   2.2555   2.2943   2.3115   2.3454   2.3676   2.4027   2.4089
  2.4537   2.4562   2.4776   2.4877   2.5267   2.5408   2.5830   2.6267
  2.6842   2.7678   2.7966   2.8080   2.8389   2.8473   2.8849   2.9150
  3.0054   3.0568   3.0994   3.1391   3.1625   3.2055   3.2217   3.2479
  3.2523   3.3153   3.3466   3.3904   3.3945   3.4202   3.4462   3.4988
  3.5346   3.5555   3.5730   3.6120   3.6414   3.6706   3.6750   3.6952
  3.7251   3.7398   3.7589   3.8028   3.8079   3.8207   3.8380   3.8505
  3.8900   3.9044   3.9155   3.9395   3.9534   3.9671   3.9821   4.0221
  4.0641   4.0836   4.1378   4.1568   4.1809   4.2245   4.2470   4.2598
  4.3017   4.3110   4.3334   4.3503   4.3777   4.4062   4.4277   4.4522
  4.4662   4.5474   4.5636   4.5809   4.6364   4.7147   4.7509   4.8486
  4.9398   5.0168   5.0462   5.1668   5.1827   5.1992   5.2162   5.2327
  5.2423   5.2669   5.2710   5.2792   5.2833   5.2905   5.3137   5.3187
  5.3430   5.3541   5.3714   5.3782   5.3844   5.4115   5.4253   5.4385
  5.4456   5.4894   5.5030   5.5153   5.5494   5.5585   5.5789   5.6028
  5.6152   5.6331   5.6482   5.6714   5.6761   5.7111   5.7567   5.7798
  5.8107   5.8931   5.9386   6.0034   6.0329   6.0399   6.0750   6.0955
  6.1463   6.1706   6.2485   6.4834   6.5781   6.7333   6.7711   6.8186
  6.8577   6.9980   7.0156   7.0213   7.0384   7.0778   7.0948   7.1201
  7.1502   7.2430   7.2640   7.2684   7.2899   7.2992   7.3167   7.3471
  7.3663   7.4104   7.4177   7.4439   7.4612   7.5015   7.5159   7.5764
  7.5971   7.6673   7.6828   7.7228   7.7776   7.8221   7.8589   7.8761
  7.9076   8.0119   8.1892  24.6896  24.8170  24.8706  50.4844  50.5257
 50.5850  50.6194  50.6369  50.6840
 --------------------------------------------------------------
 
          Ground-State Mulliken Net Atomic Charges

     Atom                 Charge (a.u.)    Spin (a.u.)
  --------------------------------------------------------
      1 C                    -0.111536       0.000692
      2 O                    -0.425613       0.001944
      3 C                     0.172111       0.001638
      4 O                    -0.391719       0.001072
      5 C                    -0.316377      -0.003058
      6 O                    -0.205383       0.867851
      7 H                     0.293400       0.000294
      8 H                     0.340588       0.000623
      9 H                     0.278313       0.084365
     10 H                     0.264476       0.043534
     11 O                    -0.449160       0.000128
     12 H                     0.348589      -0.000141
     13 O                    -0.198779       0.000025
     14 O                    -0.273152       0.002863
     15 H                     0.332357      -0.001548
     16 H                     0.341885      -0.000282
  --------------------------------------------------------
  Sum of atomic charges =     0.000000
  Sum of spin   charges =     1.000000

 -----------------------------------------------------------------
                    Cartesian Multipole Moments
 -----------------------------------------------------------------
    Charge (ESU x 10^10)
                 0.0000
    Dipole Moment (Debye)
         X      -1.7352      Y       3.9902      Z      -0.3227
       Tot       4.3631
    Quadrupole Moments (Debye-Ang)
        XX     -60.1922     XY      15.8829     YY     -56.5049
        XZ       2.3130     YZ      -8.5963     ZZ     -55.4136
    Octopole Moments (Debye-Ang^2)
       XXX    -560.2382    XXY      96.4571    XYY    -191.6776
       YYY      80.0300    XXZ      11.3209    XYZ     -40.5713
       YYZ      14.6149    XZZ    -192.8310    YZZ      33.1900
       ZZZ      39.3056
    Hexadecapole Moments (Debye-Ang^3)
      XXXX   -4115.2486   XXXY     540.7128   XXYY    -820.1488
      XYYY     195.7249   YYYY    -485.8308   XXXZ      41.0800
      XXYZ    -214.3327   XYYZ      28.4360   YYYZ    -124.7929
      XXZZ    -807.1649   XYZZ      79.1806   YYZZ    -183.2599
      XZZZ     135.5809   YZZZ    -119.1441   ZZZZ    -400.5588
 -----------------------------------------------------------------
 Total job time:  1335.50s(wall), 18988.79s(cpu) 
 Mon Jun 24 20:59:26 2024

        *************************************************************
        *                                                           *
        *  Thank you very much for using Q-Chem.  Have a nice day.  *
        *                                                           *
        *************************************************************


