
Running Job 1 of 2 Q_in.in
qchem Q_in.in_92782.0 /scratch/ari.fischer/qChem1828104.hpc-mn1/qchem92782/ 0
/usr/local/qchem-5.4.1/exe/qcprog.exe_s Q_in.in_92782.0 /scratch/ari.fischer/qChem1828104.hpc-mn1/qchem92782/
                  Welcome to Q-Chem
     A Quantum Leap Into The Future Of Chemistry


 Q-Chem 5.4, Q-Chem, Inc., Pleasanton, CA (2021)

 License issued to: Nanyang Technological University (site)

 E. Epifanovsky,  A. T. B. Gilbert,  Xintian Feng,  Joonho Lee,  Yuezhi Mao,  
 N. Mardirossian,  P. Pokhilko,  A. White,  M. Wormit,  M. P. Coons,  
 A. L. Dempwolff,  Zhengting Gan,  D. Hait,  P. R. Horn,  L. D. Jacobson,  
 I. Kaliman,  J. Kussmann,  A. W. Lange,  Ka Un Lao,  D. S. Levine,  Jie Liu,  
 S. C. McKenzie,  A. F. Morrison,  K. Nanda,  F. Plasser,  D. R. Rehn,  
 M. L. Vidal,  Zhi-Qiang You,  Ying Zhu,  B. Alam,  B. Albrecht,  
 A. Aldossary,  E. Alguire,  J. H. Andersen,  D. Barton,  K. Begam,  A. Behn,  
 Y. A. Bernard,  E. J. Berquist,  H. Burton,  A. Carreras,  K. Carter-Fenk,  
 R. Chakraborty,  A. D. Chien,  K. D. Closser,  V. Cofer-Shabica,  
 S. Dasgupta,  Jia Deng,  M. de Wergifosse,  M. Diedenhofen,  Hainam Do,  
 S. Ehlert,  Po-Tung Fang,  S. Fatehi,  Qingguo Feng,  T. Friedhoff,  
 J. Gayvert,  Qinghui Ge,  G. Gidofalvi,  M. Goldey,  J. Gomes,  
 C. Gonzalez-Espinoza,  S. Gulania,  A. Gunina,  M. W. D. Hanson-Heine,  
 P. H. P. Harbach,  A. W. Hauser,  M. F. Herbst,  M. Hernandez Vera,  
 M. Hodecker,  Z. C. Holden,  S. Houck,  Xunkun Huang,  Kerwin Hui,  
 B. C. Huynh,  M. Ivanov,  Hyunjun Ji,  Hanjie Jiang,  B. Kaduk,  S. Kaehler,  
 K. Khistyaev,  Jaehoon Kim,  P. Klunzinger,  Z. Koczor-Benda,  
 Joong Hoon Koh,  D. Kosenkov,  L. Koulias,  T. Kowalczyk,  C. M. Krauter,  
 K. Kue,  A. Kunitsa,  T. Kus,  A. Landau,  K. V. Lawler,  D. Lefrancois,  
 S. Lehtola,  Rain Li,  Yi-Pei Li,  Jiashu Liang,  M. Liebenthal,  
 Hung-Hsuan Lin,  You-Sheng Lin,  Fenglai Liu,  Kuan-Yu Liu,  
 M. Loipersberger,  A. Luenser,  A. Manjanath,  P. Manohar,  E. Mansoor,  
 S. F. Manzer,  Shan-Ping Mao,  A. V. Marenich,  T. Markovich,  S. Mason,  
 S. A. Maurer,  P. F. McLaughlin,  M. F. S. J. Menger,  J.-M. Mewes,  
 S. A. Mewes,  P. Morgante,  J. W. Mullinax,  K. J. Oosterbaan,  G. Paran,  
 Alexander C. Paul,  Suranjan K. Paul,  F. Pavosevic,  Zheng Pei,  S. Prager,  
 E. I. Proynov,  E. Ramos,  B. Rana,  A. E. Rask,  A. Rettig,  R. M. Richard,  
 F. Rob,  E. Rossomme,  T. Scheele,  M. Scheurer,  M. Schneider,  
 N. Sergueev,  S. M. Sharada,  W. Skomorowski,  D. W. Small,  C. J. Stein,  
 Yu-Chuan Su,  E. J. Sundstrom,  Zhen Tao,  J. Thirman,  T. Tsuchimochi,  
 N. M. Tubman,  S. P. Veccham,  O. Vydrov,  J. Wenzel,  J. Witte,  A. Yamada,  
 Kun Yao,  S. Yeganeh,  S. R. Yost,  A. Zech,  Igor Ying Zhang,  Xing Zhang,  
 Yu Zhang,  D. Zuev,  A. Aspuru-Guzik,  A. T. Bell,  N. A. Besley,  
 K. B. Bravaya,  B. R. Brooks,  D. Casanova,  Jeng-Da Chai,  S. Coriani,  
 C. J. Cramer,  A. E. DePrince, III,  R. A. DiStasio Jr.,  A. Dreuw,  
 B. D. Dunietz,  T. R. Furlani,  W. A. Goddard III,  S. Grimme,  
 S. Hammes-Schiffer,  T. Head-Gordon,  W. J. Hehre,  Chao-Ping Hsu,  
 T.-C. Jagau,  Yousung Jung,  A. Klamt,  Jing Kong,  D. S. Lambrecht,  
 WanZhen Liang,  N. J. Mayhall,  C. W. McCurdy,  J. B. Neaton,  
 C. Ochsenfeld,  J. A. Parkhill,  R. Peverati,  V. A. Rassolov,  Yihan Shao,  
 L. V. Slipchenko,  T. Stauch,  R. P. Steele,  J. E. Subotnik,  
 A. J. W. Thom,  A. Tkatchenko,  D. G. Truhlar,  T. Van Voorhis,  
 T. A. Wesolowski,  K. B. Whaley,  H. L. Woodcock III,  P. M. Zimmerman,  
 S. Faraji,  P. M. W. Gill,  M. Head-Gordon,  J. M. Herbert,  A. I. Krylov

 Additional authors for Version 5.4.1: 
 S. Kotaru,  Shaozhi Li,  Xiangyuan Li,  F. Matz,  A. Molle,  Haisheng Ren,  
 Yingli Su,  Hung-Yi Tsai,  C. Utku,  Fang Wang

 Contributors to earlier versions of Q-Chem not listed above: 
 R. D. Adamson,  B. Austin,  R. Baer,  J. Baker,  G. J. O. Beran,  
 K. Brandhorst,  S. T. Brown,  E. F. C. Byrd,  A. K. Chakraborty,  
 G. K. L. Chan,  Chun-Min Chang,  Yunqing Chen,  C.-L. Cheng,  
 Siu Hung Chien,  D. M. Chipman,  D. L. Crittenden,  H. Dachsel,  
 R. J. Doerksen,  A. D. Dutoi,  R. G. Edgar,  J. Fosso-Tande,  
 L. Fusti-Molnar,  D. Ghosh,  A. Ghysels,  A. Golubeva-Zadorozhnaya,  
 J. Gonthier,  M. S. Gordon,  S. R. Gwaltney,  G. Hawkins,  J. E. Herr,  
 A. Heyden,  S. Hirata,  E. G. Hohenstein,  G. Kedziora,  F. J. Keil,  
 C. Kelley,  Jihan Kim,  R. A. King,  R. Z. Khaliullin,  P. P. Korambath,  
 W. Kurlancheek,  A. Laurent,  A. M. Lee,  M. S. Lee,  S. V. Levchenko,  
 Ching Yeh Lin,  D. Liotard,  E. Livshits,  R. C. Lochan,  I. Lotan,  
 L. A. Martinez-Martinez,  P. E. Maslen,  N. Nair,  D. P. O'Neill,  
 D. Neuhauser,  E. Neuscamman,  C. M. Oana,  R. Olivares-Amaya,  R. Olson,  
 T. M. Perrine,  B. Peters,  P. A. Pieniazek,  A. Prociuk,  Y. M. Rhee,  
 J. Ritchie,  M. A. Rohrdanz,  E. Rosta,  N. J. Russ,  H. F. Schaefer III,  
 M. W. Schmidt,  N. E. Schultz,  S. Sharma,  N. Shenvi,  C. D. Sherrill,  
 A. C. Simmonett,  A. Sodt,  T. Stein,  D. Stuck,  K. S. Thanthiriwatte,  
 V. Vanovschi,  L. Vogt,  Tao Wang,  A. Warshel,  M. A. Watson,  
 C. F. Williams,  Q. Wu,  X. Xu,  Jun Yang,  W. Zhang,  Yan Zhao

 Please cite Q-Chem as follows:
 Y. Shao et al., Mol. Phys. 113, 184-215 (2015)
 DOI: 10.1080/00268976.2014.952696

 Q-Chem 5.4.1 for Intel X86 EM64T Linux

 Parts of Q-Chem use Armadillo 9.800.1 (Horizon Scraper).
 http://arma.sourceforge.net/

 Q-Chem begins on Wed Nov  1 14:58:47 2023  

 Host: 
0

     Scratch files written to /scratch/ari.fischer/qChem1828104.hpc-mn1/qchem92782//
 Aug1521 |scratch|qcdevops|jenkins|workspace|build_RNUM 8249   
 Processing $rem in /usr/local/qchem-5.4.1/config/preferences:
 Processing $rem in /home/ari.fischer/.qchemrc:
 Symmetry turned off for PCM/SM12/SMD calculation


!!********************************************.
!!******************Warning*******************.
!!Desired Analytical derivatives not available.
!!Finite difference job might take a long time.
!!********************************************.
!!********************************************.


 2-order derivative to be evaluated numerically with 1-order analytical derivatives

 Checking the input file for inconsistencies... 	...done.

--------------------------------------------------------------
User input:
--------------------------------------------------------------
$molecule
0 2
C        -0.6411881012   -0.0101075728    1.0489514734
C        -1.0346597111   -1.1547508318    1.7693899992
C        -2.0250633091   -2.0050314638    1.2265041788
C        -2.5115185535   -1.7682552935   -0.0369448441
C        -2.0541500683   -0.6666930911   -0.7675822904
C        -1.1273663425    0.2216207777   -0.2275274805
C        -0.6336544767    1.3980170794   -1.0250442952
H         0.0654821727    0.6795736414    1.4933973518
H        -0.7783221983   -1.2379061542    2.8145913205
H        -2.3745554803   -2.8488206263    1.8047655931
H        -3.2533955969   -2.4259301596   -0.4680355845
H        -2.4400195712   -0.4868080569   -1.7634583434
H        -1.3284308249    1.6193146241   -1.8366464549
O         0.6817215639    1.1759004557   -1.5466697793
H        -0.5539035092    2.2782303185   -0.3902331882
H         0.6353344314    0.4320854843   -2.1573181599
O         0.6280053071   -2.3135247108    1.2624109380
H         1.2722244682   -1.6322959202    1.5059138657
$end

$rem
BASIS = 6-311++G(2df,2p)
GUI = 2
JOB_TYPE = Frequency
METHOD = wB97M-V
SOLVENT_METHOD = SMD
SCF_ALGORITHM = DIIS_GDM
MAX_SCF_CYCLES = 400
SCF_CONVERGENCE = 7
THRESH = 12
$end

--------------------------------------------------------------
 ----------------------------------------------------------------
             Standard Nuclear Orientation (Angstroms)
    I     Atom           X                Y                Z
 ----------------------------------------------------------------
    1      C      -0.6411881012    -0.0101075728     1.0489514734
    2      C      -1.0346597111    -1.1547508318     1.7693899992
    3      C      -2.0250633091    -2.0050314638     1.2265041788
    4      C      -2.5115185535    -1.7682552935    -0.0369448441
    5      C      -2.0541500683    -0.6666930911    -0.7675822904
    6      C      -1.1273663425     0.2216207777    -0.2275274805
    7      C      -0.6336544767     1.3980170794    -1.0250442952
    8      H       0.0654821727     0.6795736414     1.4933973518
    9      H      -0.7783221983    -1.2379061542     2.8145913205
   10      H      -2.3745554803    -2.8488206263     1.8047655931
   11      H      -3.2533955969    -2.4259301596    -0.4680355845
   12      H      -2.4400195712    -0.4868080569    -1.7634583434
   13      H      -1.3284308249     1.6193146241    -1.8366464549
   14      O       0.6817215639     1.1759004557    -1.5466697793
   15      H      -0.5539035092     2.2782303185    -0.3902331882
   16      H       0.6353344314     0.4320854843    -2.1573181599
   17      O       0.6280053071    -2.3135247108     1.2624109380
   18      H       1.2722244682    -1.6322959202     1.5059138657
 ----------------------------------------------------------------
 Nuclear Repulsion Energy =         429.22850145 hartrees
 There are       34 alpha and       33 beta electrons
 Requested basis set is 6-311++G(2df,2p)
 There are 126 shells and 396 basis functions

 Total QAlloc Memory Limit 288000 MB
 Mega-Array Size       188 MB
 MEM_STATIC part       192 MB
 
 Citation of the SMD model:
 Marenich, A.V.; Cramer, C.J.; Truhlar, D.G.
 J. Phys. Chem. B 2009, 113, 6378-6396.
 iSolventCode=           1
 Solvent: water                                                           
 
 vradii
            1           2           3           4           5           6
    1   1.8500000   1.8500000   1.8500000   1.8500000   1.8500000   1.8500000
            7           8           9          10          11          12
    1   1.8500000   1.2000000   1.2000000   1.2000000   1.2000000   1.2000000
           13          14          15          16          17          18
    1   1.2000000   1.5200000   1.2000000   1.2000000   1.5200000   1.2000000
 Changing PCM_VDW_RADII to SMD_RADIUS
 Discretize the solute cavity surface with Lebedev spheres
	Using 110 Lebedev grid points for each H atom
	Using 194 Lebedev grid points for other atoms
	Atomic van der Waals radii will be scaled by 1.20
 Remove points where switching function is < 1.0e-08
 Keep 1335 surface tesserae and discard 1401 interior tesserae
 Molecular Surface Area = 159.200 Angst**2
 A cutoff of  1.0D-12 yielded   7217 shell pairs
 There are     71868 function pairs (     89067 Cartesian)
 Smallest overlap matrix eigenvalue = 9.67E-07
 Linear dependence detected in AO basis
 Tighter screening thresholds may be required for diffuse basis sets
 Use S2THRESH > 14 and THRESH = 14 in case of SCF convergence issues
 Number of orthogonalized atomic orbitals = 395
 Maximum deviation from orthogonality = 1.897E-10
 Guess from superposition of atomic densities
 Warning:  Energy on first SCF cycle will be non-variational
 SAD guess density has 67.000000 electrons

 -----------------------------------------------------------------------
  General SCF calculation program by
  Eric Jon Sundstrom, Paul Horn, Yuezhi Mao, Dmitri Zuev, Alec White,
  David Stuck, Shaama M.S., Shane Yost, Joonho Lee, David Small,
  Daniel Levine, Susi Lehtola, Hugh Burton, Evgeny Epifanovsky,
  Bang C. Huynh
 -----------------------------------------------------------------------
 Exchange:     0.1500 Hartree-Fock + 1.0000 wB97M-V + LR-HF
 Correlation:  1.0000 wB97M-V
 Using SG-2 standard quadrature grid
 Nonlocal Correlation:  VV10 with C = 0.0100 and b = 6.00 and scale = 1.00000
 Grid used for NLC:  SG-1 standard quadrature
 using 32 threads for integral computing
 -------------------------------------------------------
 OpenMP Integral computing Module                
 Release: version 1.0, May 2013, Q-Chem Inc. Pittsburgh 
 -------------------------------------------------------
 
 Citation of the SMD model:
 Marenich, A.V.; Cramer, C.J.; Truhlar, D.G.
 J. Phys. Chem. B 2009, 113, 6378-6396.
 iSolventCode=           1
 Solvent: water                                                           
 
 vradii
            1           2           3           4           5           6
    1   1.8500000   1.8500000   1.8500000   1.8500000   1.8500000   1.8500000
            7           8           9          10          11          12
    1   1.8500000   1.2000000   1.2000000   1.2000000   1.2000000   1.2000000
           13          14          15          16          17          18
    1   1.2000000   1.5200000   1.2000000   1.2000000   1.5200000   1.2000000
 -------------------------------------------------------
 OpenMP BLAS3 based DFT computing Module                
 Release: version 1.0, May 2013, Q-Chem Inc. Pittsburgh 
 -------------------------------------------------------
 A unrestricted SCF calculation will be
 performed using DIIS, GDM
 SCF converges when RMS gradient is below 1.0e-07
 ---------------------------------------
  Cycle       Energy         DIIS error
 ---------------------------------------
    1    -424.8538955039      1.25e-02  
    2    -422.3588356448      1.42e-03  Done DIIS. Switching to GDM
 ---------------------------------------
  Cycle       Energy        RMS Gradient
 ---------------------------------------
    1    -422.3588356448      2.23e-01   Descent step
    2    -422.4831474933      2.68e-02   Normal BFGS step
    3    -422.4992587690      3.88e-02   Normal BFGS step
    4    -422.5031811948      1.61e-02   Normal BFGS step
    5    -422.5045033722      1.27e-02   Normal BFGS step
    6    -422.5053677336      8.23e-03   Normal BFGS step
    7    -422.5056549669      2.59e-03   Normal BFGS step
    8    -422.5057116941      1.08e-03   Normal BFGS step
    9    -422.5057298106      9.26e-04   Normal BFGS step
   10    -422.5057359629      5.10e-04   Normal BFGS step
   11    -422.5057387326      3.27e-04   Normal BFGS step
   12    -422.5057394236      1.68e-04   Normal BFGS step
   13    -422.5057396095      1.25e-04   Normal BFGS step
   14    -422.5057396673      9.42e-05   Normal BFGS step
   15    -422.5057396945      5.77e-05   Normal BFGS step
   16    -422.5057397066      2.98e-05   Normal BFGS step
   17    -422.5057397140      1.59e-05   Normal BFGS step
   18    -422.5057397160      6.12e-06   Normal BFGS step
   19    -422.5057397163      2.28e-06   Normal BFGS step
   20    -422.5057397163      1.41e-06   Normal BFGS step
   21    -422.5057397163      6.49e-07   Normal BFGS step
   22    -422.5057397163      3.91e-07   Normal BFGS step
   23    -422.5057397162      2.39e-07   Normal BFGS step
   24    -422.5057397163      9.87e-08  Convergence criterion met
 ---------------------------------------
 SCF time:   CPU 3231.75s  wall 124.00s 
<S^2> =          0.781578632
(3)  G-ENP(liq) elect-nuc-pol free energy of system     -422.505739716 a.u.
(4)  G-CDS(liq) cavity-dispersion-solvent structure 
     free energy                                                3.5195 kcal/mol
(6)  G-S(liq) free energy of system                     -422.500131061 a.u.
 SCF   energy in the final basis set =     -422.5001310613
 Total energy in the final basis set =     -422.5001310613
 
 --------------------------------------------------------------
 
                    Orbital Energies (a.u.)
 --------------------------------------------------------------
 
 Alpha MOs
 -- Occupied --
-19.3425 -19.3378 -10.3866 -10.3744 -10.3592 -10.3590 -10.3558 -10.3544
-10.3485  -1.1540  -1.0971  -0.9958  -0.8985  -0.8802  -0.8010  -0.7349
 -0.7109  -0.6411  -0.6104  -0.5800  -0.5668  -0.5571  -0.5439  -0.5327
 -0.5257  -0.5090  -0.4729  -0.4545  -0.4432  -0.4331  -0.4170  -0.3933
 -0.3541  -0.3240
 -- Virtual --
  0.0233   0.0350   0.0363   0.0449   0.0516   0.0550   0.0586   0.0597
  0.0717   0.0853   0.0879   0.0951   0.1094   0.1273   0.1365   0.1432
  0.1460   0.1495   0.1563   0.1597   0.1604   0.1627   0.1702   0.1760
  0.1783   0.1792   0.1923   0.1975   0.2056   0.2130   0.2146   0.2173
  0.2325   0.2378   0.2478   0.2553   0.2575   0.2625   0.2721   0.2757
  0.2968   0.2997   0.3118   0.3210   0.3240   0.3249   0.3395   0.3462
  0.3503   0.3536   0.3575   0.3596   0.3661   0.3804   0.3822   0.4009
  0.4222   0.4266   0.4312   0.4441   0.4558   0.4656   0.5296   0.5375
  0.5458   0.5755   0.5934   0.5969   0.5998   0.6045   0.6082   0.6141
  0.6198   0.6315   0.6351   0.6431   0.6550   0.6726   0.6813   0.6893
  0.6962   0.7059   0.7165   0.7207   0.7283   0.7342   0.7403   0.7444
  0.7551   0.7597   0.7679   0.7928   0.8046   0.8189   0.8284   0.8354
  0.8432   0.8545   0.8676   0.8716   0.8870   0.8950   0.9033   0.9190
  0.9364   0.9621   0.9947   1.0092   1.0284   1.0473   1.0560   1.0594
  1.0814   1.1135   1.1238   1.1377   1.1429   1.1649   1.1703   1.1838
  1.2012   1.2123   1.2186   1.2255   1.2427   1.2469   1.2570   1.2765
  1.2964   1.3010   1.3091   1.3282   1.3330   1.3509   1.3730   1.3891
  1.4041   1.4093   1.4179   1.4300   1.4370   1.4470   1.4593   1.4660
  1.4755   1.5042   1.5301   1.5315   1.5428   1.5545   1.5658   1.5741
  1.5827   1.6046   1.6234   1.6580   1.6804   1.7178   1.7334   1.7645
  1.7812   1.7923   1.8157   1.8559   1.8716   1.8823   1.8920   1.9277
  1.9726   1.9950   2.0361   2.0419   2.0786   2.0884   2.1343   2.1420
  2.1890   2.2550   2.3439   2.3588   2.3783   2.5575   2.6093   2.6378
  2.6408   2.6591   2.6913   2.7185   2.7279   2.7771   2.8014   2.8077
  2.8133   2.8278   2.8408   2.8543   2.8741   2.8862   2.8893   2.9120
  2.9188   2.9244   2.9415   2.9571   2.9716   2.9870   2.9964   3.0302
  3.0538   3.0597   3.0855   3.1320   3.1546   3.1624   3.1687   3.1776
  3.1924   3.2091   3.2327   3.2496   3.2612   3.2647   3.2739   3.2906
  3.2926   3.3152   3.3408   3.3590   3.3722   3.3837   3.3922   3.4125
  3.4406   3.4487   3.4676   3.4778   3.5023   3.5171   3.5262   3.5441
  3.5563   3.5725   3.5953   3.5976   3.6184   3.6473   3.6704   3.6880
  3.7177   3.7368   3.7615   3.7718   3.8032   3.8069   3.8222   3.8294
  3.8448   3.8585   3.8798   3.8810   3.9139   3.9177   3.9350   3.9581
  3.9676   3.9792   4.0079   4.0373   4.0876   4.0964   4.1257   4.1510
  4.1660   4.1775   4.2009   4.2127   4.2498   4.2809   4.2856   4.3109
  4.3190   4.3386   4.3638   4.3845   4.4085   4.4269   4.4273   4.4409
  4.4647   4.4892   4.5007   4.5419   4.5451   4.5731   4.5789   4.5861
  4.6161   4.6434   4.6824   4.7396   4.7689   4.7935   4.8324   4.8784
  4.9438   5.0368   5.1121   5.1171   5.1652   5.1776   5.1872   5.2021
  5.2172   5.2526   5.2577   5.2794   5.2872   5.3098   5.3149   5.3403
  5.3957   5.4217   5.4642   5.5106   5.5335   5.6042   5.6667   5.6773
  5.6861   5.7184   5.7650   5.8151   5.8411   5.8560   5.9156   5.9321
  6.0293   6.2256   6.5822   6.6097   6.9944   7.0363   7.0978   7.1011
  7.1640   7.2975   7.3097   7.3244   7.3594   7.5798   7.6393   7.7857
 24.1909  24.7401  24.8083  24.8139  25.0046  25.0573  25.4858  50.5063
 50.5908
 
 Beta MOs
 -- Occupied --
-19.3380 -19.3249 -10.3865 -10.3743 -10.3563 -10.3560 -10.3556 -10.3533
-10.3498  -1.1543  -1.0565  -0.9912  -0.8969  -0.8749  -0.7988  -0.7319
 -0.7089  -0.6397  -0.6092  -0.5769  -0.5648  -0.5471  -0.5373  -0.5274
 -0.5234  -0.4811  -0.4690  -0.4512  -0.4324  -0.3967  -0.3938  -0.3684
 -0.3454
 -- Virtual --
 -0.0622   0.0235   0.0353   0.0367   0.0450   0.0549   0.0563   0.0629
  0.0710   0.0787   0.0854   0.0891   0.0952   0.1092   0.1272   0.1373
  0.1439   0.1464   0.1499   0.1567   0.1603   0.1605   0.1630   0.1718
  0.1764   0.1786   0.1794   0.1937   0.1975   0.2059   0.2130   0.2150
  0.2175   0.2334   0.2375   0.2500   0.2563   0.2598   0.2636   0.2722
  0.2764   0.2979   0.3005   0.3138   0.3221   0.3250   0.3267   0.3406
  0.3471   0.3511   0.3541   0.3588   0.3610   0.3665   0.3807   0.3830
  0.4016   0.4237   0.4280   0.4321   0.4451   0.4570   0.4665   0.5309
  0.5381   0.5475   0.5787   0.5956   0.6004   0.6024   0.6056   0.6091
  0.6162   0.6246   0.6340   0.6378   0.6444   0.6580   0.6767   0.6826
  0.6909   0.6977   0.7079   0.7189   0.7226   0.7293   0.7352   0.7415
  0.7459   0.7565   0.7609   0.7696   0.7944   0.8062   0.8210   0.8303
  0.8361   0.8454   0.8562   0.8687   0.8733   0.8897   0.8976   0.9044
  0.9215   0.9393   0.9646   0.9964   1.0128   1.0295   1.0481   1.0579
  1.0621   1.0825   1.1158   1.1257   1.1398   1.1446   1.1668   1.1717
  1.1850   1.2079   1.2146   1.2217   1.2278   1.2460   1.2507   1.2575
  1.2829   1.2968   1.3053   1.3186   1.3313   1.3351   1.3537   1.3794
  1.3904   1.4057   1.4119   1.4201   1.4320   1.4397   1.4498   1.4612
  1.4682   1.4777   1.5062   1.5318   1.5360   1.5449   1.5574   1.5683
  1.5768   1.5849   1.6058   1.6240   1.6617   1.6867   1.7197   1.7444
  1.7697   1.7873   1.7990   1.8200   1.8625   1.8749   1.8902   1.9024
  1.9363   1.9755   2.0091   2.0440   2.0538   2.0815   2.0918   2.1396
  2.1452   2.1897   2.2561   2.3443   2.3596   2.3839   2.5615   2.6120
  2.6414   2.6447   2.6622   2.6959   2.7232   2.7325   2.7862   2.8076
  2.8130   2.8149   2.8322   2.8478   2.8616   2.8797   2.8899   2.8939
  2.9176   2.9235   2.9290   2.9464   2.9608   2.9804   2.9939   3.0020
  3.0355   3.0581   3.0656   3.0878   3.1320   3.1583   3.1670   3.1711
  3.1821   3.1973   3.2132   3.2358   3.2517   3.2670   3.2691   3.2781
  3.2950   3.2963   3.3196   3.3438   3.3629   3.3787   3.3907   3.3948
  3.4164   3.4442   3.4544   3.4743   3.4812   3.5070   3.5222   3.5309
  3.5480   3.5592   3.5756   3.5983   3.6091   3.6233   3.6477   3.6737
  3.6918   3.7205   3.7397   3.7656   3.7767   3.8075   3.8109   3.8256
  3.8316   3.8499   3.8625   3.8835   3.8853   3.9177   3.9231   3.9375
  3.9631   3.9708   3.9846   4.0134   4.0397   4.0941   4.1006   4.1309
  4.1542   4.1692   4.1808   4.2026   4.2153   4.2518   4.2859   4.2899
  4.3166   4.3215   4.3416   4.3676   4.3873   4.4129   4.4300   4.4315
  4.4436   4.4684   4.4932   4.5094   4.5489   4.5514   4.5784   4.5849
  4.5924   4.6196   4.6464   4.6869   4.7412   4.7749   4.7985   4.8383
  4.8834   4.9505   5.0440   5.1240   5.1346   5.1854   5.1974   5.2230
  5.2275   5.2390   5.2652   5.2802   5.2939   5.3121   5.3173   5.3478
  5.3812   5.4019   5.4565   5.4662   5.5145   5.5378   5.6043   5.6797
  5.6830   5.7178   5.7249   5.7674   5.8216   5.8534   5.8639   5.9210
  5.9335   6.0295   6.2315   6.5858   6.6107   7.0573   7.0781   7.0991
  7.1815   7.2243   7.3092   7.3242   7.3402   7.3591   7.6308   7.6397
  7.7853  24.1917  24.7411  24.8088  24.8144  25.0065  25.0581  25.4871
 50.5189  50.5907
 --------------------------------------------------------------
 
          Ground-State Mulliken Net Atomic Charges

     Atom                 Charge (a.u.)    Spin (a.u.)
  --------------------------------------------------------
      1 C                    -0.153252       0.203962
      2 C                    -0.182972      -0.027914
      3 C                    -0.364982       0.175566
      4 C                    -0.393235      -0.082628
      5 C                    -0.271643       0.208206
      6 C                     0.229253      -0.091823
      7 C                    -0.522390       0.006090
      8 H                     0.301686      -0.003722
      9 H                     0.365331       0.010458
     10 H                     0.284559      -0.003558
     11 H                     0.288280       0.002099
     12 H                     0.278506      -0.003571
     13 H                     0.201388      -0.000163
     14 O                    -0.397533      -0.002374
     15 H                     0.205250      -0.001386
     16 H                     0.328587       0.000463
     17 O                    -0.506606       0.620206
     18 H                     0.309773      -0.009912
  --------------------------------------------------------
  Sum of atomic charges =     0.000000
  Sum of spin   charges =     1.000000

 -----------------------------------------------------------------
                    Cartesian Multipole Moments
 -----------------------------------------------------------------
    Charge (ESU x 10^10)
                -0.0000
    Dipole Moment (Debye)
         X      -3.4336      Y       1.9616      Z      -0.2770
       Tot       3.9642
    Quadrupole Moments (Debye-Ang)
        XX     -49.9936     XY       3.7315     YY     -63.7773
        XZ       4.2256     YZ       4.2817     ZZ     -45.3871
    Octopole Moments (Debye-Ang^2)
       XXX     146.1423    XXY      10.8897    XYY      25.0235
       YYY     117.0247    XXZ     -13.5705    XYZ      10.5238
       YYZ     -13.0663    XZZ      43.0011    YZZ      24.5442
       ZZZ     -30.1927
    Hexadecapole Moments (Debye-Ang^3)
      XXXX    -740.8119   XXXY    -130.5088   XXYY    -210.9369
      XYYY    -115.7908   YYYY    -819.8982   XXXZ      69.2572
      XXYZ      61.5077   XYYZ      -0.0921   YYYZ     228.0807
      XXZZ    -196.9212   XYZZ     -47.5713   YYZZ    -229.7653
      XZZZ      37.2620   YZZZ     191.4722   ZZZZ    -470.2630
 -----------------------------------------------------------------
 Calculating analytic gradient of the SCF energy
 Gradient of CDS energy
            1           2           3           4           5           6
    1  -0.0000589   0.0000477  -0.0000969  -0.0003290  -0.0001246   0.0002955
    2   0.0002318   0.0000123  -0.0002854  -0.0003216   0.0001939  -0.0001432
    3   0.0000866   0.0002475   0.0002858  -0.0001539  -0.0002637  -0.0000241
            7           8           9          10          11          12
    1  -0.0002546   0.0000978   0.0000938  -0.0000665  -0.0001421  -0.0000482
    2   0.0010696   0.0001412  -0.0000608  -0.0001605  -0.0001260   0.0000806
    3  -0.0004045   0.0000405   0.0001769   0.0001100  -0.0000826  -0.0001668
           13          14          15          16          17          18
    1  -0.0001152  -0.0001115   0.0001762   0.0003794  -0.0002453   0.0005024
    2  -0.0002150  -0.0000885  -0.0000502  -0.0002264  -0.0000214  -0.0000306
    3  -0.0000715   0.0002329   0.0002534  -0.0003085  -0.0000298   0.0000717
 Gradient of SCF Energy
            1           2           3           4           5           6
    1  -0.0052596  -0.0012775  -0.0010556   0.0059623   0.0041279  -0.0003985
    2  -0.0011109  -0.0056739   0.0057870   0.0017974  -0.0041106   0.0035506
    3  -0.0036053  -0.0031754  -0.0014161   0.0048528   0.0074329  -0.0011062
            7           8           9          10          11          12
    1   0.0056657   0.0049899   0.0008892  -0.0024752  -0.0050654  -0.0037825
    2  -0.0076243   0.0048648   0.0016048  -0.0026912  -0.0038516   0.0022287
    3   0.0012612   0.0040997   0.0058895   0.0023426  -0.0030747  -0.0101375
           13          14          15          16          17          18
    1  -0.0052112   0.0058323  -0.0020297  -0.0040504  -0.0001749   0.0033132
    2   0.0006924   0.0091771   0.0042720  -0.0076672  -0.0078959   0.0066508
    3  -0.0059187   0.0069122   0.0038674  -0.0073670  -0.0046120   0.0037547
 Max gradient component =       1.014E-02
 RMS gradient           =       4.758E-03
 Computing fast CPCM-SWIG gradient
 Updating gradient with PCM contributions...
 -- total gradient after adding PCM contribution --
---------------------------------------------------
  Atom         X              Y              Z     
---------------------------------------------------
   1       0.000002      -0.000022      -0.000016
   2       0.000000       0.000010       0.000084
   3       0.000000       0.000004       0.000018
   4      -0.000010       0.000032      -0.000062
   5       0.000001      -0.000020      -0.000010
   6       0.000009      -0.000001       0.000041
   7       0.000009       0.000015       0.000014
   8      -0.000019      -0.000008       0.000014
   9      -0.000051      -0.000005      -0.000098
  10      -0.000021       0.000000      -0.000019
  11       0.000000       0.000006      -0.000023
  12       0.000018       0.000005      -0.000013
  13       0.000020       0.000004       0.000005
  14       0.000022      -0.000016       0.000009
  15       0.000001       0.000003       0.000014
  16       0.000029       0.000007       0.000013
  17      -0.000005      -0.000019       0.000018
  18      -0.000007       0.000003       0.000013
---------------------------------------------------
 Number of fixed atoms: 0
 Gradient time:  CPU 350.61 s  wall 16.50 s
 ######################################################
 ######################################################
 # Starting finite difference calculation for IDERIV  #
 Finite diff step size:  1.88973e-03 a.u.
 ----------------------------------------------------------------
             Standard Nuclear Orientation (Angstroms)
    I     Atom           X                Y                Z
 ----------------------------------------------------------------
    1      C      -0.6401881012    -0.0101075728     1.0489514734
    2      C      -1.0346597111    -1.1547508318     1.7693899992
    3      C      -2.0250633091    -2.0050314638     1.2265041788
    4      C      -2.5115185535    -1.7682552935    -0.0369448441
    5      C      -2.0541500683    -0.6666930911    -0.7675822904
    6      C      -1.1273663425     0.2216207777    -0.2275274805
    7      C      -0.6336544767     1.3980170794    -1.0250442952
    8      H       0.0654821727     0.6795736414     1.4933973518
    9      H      -0.7783221983    -1.2379061542     2.8145913205
   10      H      -2.3745554803    -2.8488206263     1.8047655931
   11      H      -3.2533955969    -2.4259301596    -0.4680355845
   12      H      -2.4400195712    -0.4868080569    -1.7634583434
   13      H      -1.3284308249     1.6193146241    -1.8366464549
   14      O       0.6817215639     1.1759004557    -1.5466697793
   15      H      -0.5539035092     2.2782303185    -0.3902331882
   16      H       0.6353344314     0.4320854843    -2.1573181599
   17      O       0.6280053071    -2.3135247108     1.2624109380
   18      H       1.2722244682    -1.6322959202     1.5059138657
 ----------------------------------------------------------------
 Nuclear Repulsion Energy =         429.22145096 hartrees
 There are       34 alpha and       33 beta electrons
 Discretize the solute cavity surface with Lebedev spheres
	Using 110 Lebedev grid points for each H atom
	Using 194 Lebedev grid points for other atoms
	Atomic van der Waals radii will be scaled by 1.20
 Remove points where switching function is < 1.0e-08
 Keep 1335 surface tesserae and discard 1401 interior tesserae
 Molecular Surface Area = 159.197 Angst**2
 Requested basis set is 6-311++G(2df,2p)
 There are 126 shells and 396 basis functions
 A cutoff of  1.0D-12 yielded   7217 shell pairs
 There are     71868 function pairs (     89067 Cartesian)
 Smallest overlap matrix eigenvalue = 9.65E-07
 Linear dependence detected in AO basis
 Tighter screening thresholds may be required for diffuse basis sets
 Use S2THRESH > 14 and THRESH = 14 in case of SCF convergence issues
 Number of orthogonalized atomic orbitals = 395
 Maximum deviation from orthogonality = 4.664E-11
 Guess MOs from SCF MO coefficient file

 -----------------------------------------------------------------------
  General SCF calculation program by
  Eric Jon Sundstrom, Paul Horn, Yuezhi Mao, Dmitri Zuev, Alec White,
  David Stuck, Shaama M.S., Shane Yost, Joonho Lee, David Small,
  Daniel Levine, Susi Lehtola, Hugh Burton, Evgeny Epifanovsky,
  Bang C. Huynh
 -----------------------------------------------------------------------
 Exchange:     0.1500 Hartree-Fock + 1.0000 wB97M-V + LR-HF
 Correlation:  1.0000 wB97M-V
 Using SG-2 standard quadrature grid
 Nonlocal Correlation:  VV10 with C = 0.0100 and b = 6.00 and scale = 1.00000
 Grid used for NLC:  SG-1 standard quadrature
 
 Citation of the SMD model:
 Marenich, A.V.; Cramer, C.J.; Truhlar, D.G.
 J. Phys. Chem. B 2009, 113, 6378-6396.
 iSolventCode=           1
 Solvent: water                                                           
 
 vradii
            1           2           3           4           5           6
    1   1.8500000   1.8500000   1.8500000   1.8500000   1.8500000   1.8500000
            7           8           9          10          11          12
    1   1.8500000   1.2000000   1.2000000   1.2000000   1.2000000   1.2000000
           13          14          15          16          17          18
    1   1.2000000   1.5200000   1.2000000   1.2000000   1.5200000   1.2000000
 -------------------------------------------------------
 OpenMP BLAS3 based DFT computing Module                
 Release: version 1.0, May 2013, Q-Chem Inc. Pittsburgh 
 -------------------------------------------------------
 A unrestricted SCF calculation will be
 performed using Roothaan-Hall, DIIS, GDM
 SCF converges when RMS gradient is below 1.0e-07
 ---------------------------------------
  Cycle       Energy         DIIS error
 ---------------------------------------
    1    -422.4700725972      2.13e-04  Roothaan Step
 ---------------------------------------
  Cycle       Energy         DIIS error
 ---------------------------------------
    1    -422.4979174284      2.62e-04  
    2    -422.5018485530      2.65e-04  Done DIIS. Switching to GDM
 ---------------------------------------
  Cycle       Energy        RMS Gradient
 ---------------------------------------
    1    -422.5018485530      2.33e-02   Normal BFGS step
    2    -422.5009904480      3.95e-02  Line search: overstep
    3    -422.5054972161      6.76e-03   Normal BFGS step
    4    -422.5056606785      2.86e-03   Normal BFGS step
    5    -422.5057120666      2.46e-03   Normal BFGS step
    6    -422.5057256187      1.54e-03   Normal BFGS step
    7    -422.5057358073      5.39e-04   Normal BFGS step
    8    -422.5057381897      2.95e-04   Normal BFGS step
    9    -422.5057386415      1.39e-04   Normal BFGS step
   10    -422.5057387947      9.70e-05   Normal BFGS step
   11    -422.5057388614      5.07e-05   Normal BFGS step
   12    -422.5057388880      3.51e-05   Normal BFGS step
   13    -422.5057388936      2.62e-05   Normal BFGS step
   14    -422.5057388961      1.94e-05   Normal BFGS step
   15    -422.5057388975      9.92e-06   Normal BFGS step
   16    -422.5057388979      4.84e-06   Normal BFGS step
   17    -422.5057388981      2.54e-06   Normal BFGS step
   18    -422.5057388982      1.27e-06   Normal BFGS step
   19    -422.5057388982      4.17e-07   Normal BFGS step
   20    -422.5057388982      1.86e-07   Normal BFGS step
   21    -422.5057388982      8.55e-08  Convergence criterion met
 ---------------------------------------
 SCF time:   CPU 3015.42s  wall 115.00s 
<S^2> =          0.781581585
(3)  G-ENP(liq) elect-nuc-pol free energy of system     -422.505738898 a.u.
(4)  G-CDS(liq) cavity-dispersion-solvent structure 
     free energy                                                3.5194 kcal/mol
(6)  G-S(liq) free energy of system                     -422.500130354 a.u.
 SCF   energy in the final basis set =     -422.5001303537
 Total energy in the final basis set =     -422.5001303537
 
 --------------------------------------------------------------
 
                    Orbital Energies (a.u.)
 --------------------------------------------------------------
 
 Alpha MOs
 -- Occupied --
-19.3425 -19.3378 -10.3866 -10.3745 -10.3593 -10.3590 -10.3558 -10.3544
-10.3485  -1.1539  -1.0971  -0.9957  -0.8985  -0.8802  -0.8010  -0.7349
 -0.7109  -0.6411  -0.6104  -0.5800  -0.5668  -0.5571  -0.5439  -0.5327
 -0.5257  -0.5090  -0.4729  -0.4545  -0.4432  -0.4331  -0.4170  -0.3932
 -0.3541  -0.3240
 -- Virtual --
  0.0233   0.0350   0.0363   0.0449   0.0516   0.0550   0.0586   0.0597
  0.0717   0.0853   0.0879   0.0951   0.1094   0.1273   0.1365   0.1432
  0.1460   0.1495   0.1563   0.1597   0.1604   0.1627   0.1702   0.1760
  0.1783   0.1792   0.1923   0.1975   0.2056   0.2130   0.2146   0.2173
  0.2325   0.2378   0.2479   0.2553   0.2575   0.2625   0.2721   0.2757
  0.2969   0.2996   0.3118   0.3210   0.3240   0.3249   0.3394   0.3462
  0.3503   0.3535   0.3575   0.3596   0.3661   0.3804   0.3822   0.4009
  0.4222   0.4265   0.4312   0.4441   0.4558   0.4656   0.5295   0.5374
  0.5460   0.5755   0.5934   0.5969   0.5997   0.6045   0.6082   0.6141
  0.6198   0.6315   0.6351   0.6431   0.6550   0.6726   0.6812   0.6893
  0.6962   0.7059   0.7165   0.7207   0.7284   0.7342   0.7403   0.7443
  0.7551   0.7597   0.7679   0.7928   0.8047   0.8190   0.8285   0.8354
  0.8432   0.8545   0.8675   0.8715   0.8871   0.8949   0.9033   0.9190
  0.9364   0.9621   0.9948   1.0092   1.0284   1.0472   1.0560   1.0594
  1.0814   1.1134   1.1238   1.1377   1.1427   1.1649   1.1704   1.1838
  1.2012   1.2124   1.2186   1.2254   1.2427   1.2469   1.2570   1.2765
  1.2964   1.3010   1.3091   1.3282   1.3330   1.3509   1.3730   1.3890
  1.4041   1.4093   1.4178   1.4300   1.4370   1.4470   1.4593   1.4660
  1.4756   1.5042   1.5301   1.5315   1.5428   1.5546   1.5659   1.5741
  1.5828   1.6047   1.6234   1.6579   1.6804   1.7178   1.7335   1.7646
  1.7813   1.7923   1.8156   1.8558   1.8719   1.8823   1.8920   1.9276
  1.9726   1.9952   2.0362   2.0419   2.0786   2.0884   2.1340   2.1420
  2.1890   2.2549   2.3439   2.3588   2.3783   2.5575   2.6094   2.6381
  2.6405   2.6590   2.6913   2.7186   2.7280   2.7769   2.8013   2.8076
  2.8134   2.8278   2.8407   2.8543   2.8742   2.8861   2.8893   2.9119
  2.9187   2.9244   2.9416   2.9572   2.9716   2.9870   2.9964   3.0301
  3.0537   3.0595   3.0854   3.1320   3.1545   3.1625   3.1686   3.1776
  3.1923   3.2090   3.2327   3.2496   3.2613   3.2647   3.2739   3.2907
  3.2928   3.3152   3.3406   3.3590   3.3719   3.3836   3.3921   3.4125
  3.4404   3.4488   3.4674   3.4778   3.5023   3.5171   3.5261   3.5440
  3.5563   3.5724   3.5955   3.5976   3.6184   3.6474   3.6703   3.6881
  3.7176   3.7367   3.7615   3.7719   3.8032   3.8069   3.8222   3.8292
  3.8448   3.8585   3.8799   3.8809   3.9138   3.9177   3.9350   3.9581
  3.9676   3.9790   4.0079   4.0372   4.0875   4.0963   4.1259   4.1511
  4.1660   4.1776   4.2009   4.2126   4.2496   4.2809   4.2857   4.3109
  4.3189   4.3389   4.3638   4.3845   4.4085   4.4268   4.4274   4.4411
  4.4647   4.4893   4.5003   4.5415   4.5449   4.5730   4.5785   4.5860
  4.6161   4.6433   4.6824   4.7395   4.7688   4.7937   4.8321   4.8783
  4.9438   5.0367   5.1121   5.1171   5.1651   5.1776   5.1872   5.2020
  5.2172   5.2526   5.2576   5.2795   5.2872   5.3099   5.3149   5.3405
  5.3957   5.4217   5.4643   5.5107   5.5335   5.6042   5.6667   5.6773
  5.6861   5.7184   5.7647   5.8153   5.8411   5.8565   5.9154   5.9320
  6.0294   6.2259   6.5820   6.6096   6.9944   7.0363   7.0978   7.1011
  7.1640   7.2975   7.3097   7.3244   7.3594   7.5798   7.6393   7.7857
 24.1911  24.7402  24.8082  24.8138  25.0044  25.0568  25.4855  50.5063
 50.5908
 
 Beta MOs
 -- Occupied --
-19.3380 -19.3249 -10.3865 -10.3743 -10.3564 -10.3560 -10.3556 -10.3533
-10.3498  -1.1543  -1.0565  -0.9911  -0.8969  -0.8749  -0.7988  -0.7319
 -0.7088  -0.6397  -0.6092  -0.5769  -0.5648  -0.5471  -0.5373  -0.5274
 -0.5234  -0.4811  -0.4690  -0.4512  -0.4325  -0.3967  -0.3938  -0.3683
 -0.3453
 -- Virtual --
 -0.0622   0.0235   0.0353   0.0367   0.0450   0.0549   0.0563   0.0629
  0.0710   0.0787   0.0854   0.0891   0.0952   0.1092   0.1272   0.1373
  0.1439   0.1464   0.1499   0.1567   0.1603   0.1605   0.1630   0.1717
  0.1765   0.1786   0.1794   0.1937   0.1975   0.2059   0.2130   0.2150
  0.2175   0.2334   0.2375   0.2500   0.2563   0.2598   0.2635   0.2722
  0.2764   0.2980   0.3005   0.3138   0.3221   0.3250   0.3267   0.3405
  0.3471   0.3511   0.3541   0.3588   0.3609   0.3665   0.3808   0.3831
  0.4016   0.4237   0.4279   0.4321   0.4452   0.4570   0.4664   0.5308
  0.5381   0.5477   0.5787   0.5956   0.6003   0.6024   0.6056   0.6091
  0.6162   0.6246   0.6340   0.6378   0.6444   0.6580   0.6767   0.6826
  0.6910   0.6977   0.7079   0.7189   0.7225   0.7293   0.7352   0.7415
  0.7458   0.7565   0.7609   0.7696   0.7944   0.8062   0.8210   0.8303
  0.8360   0.8454   0.8561   0.8687   0.8733   0.8898   0.8975   0.9044
  0.9215   0.9393   0.9646   0.9965   1.0128   1.0295   1.0480   1.0579
  1.0621   1.0825   1.1158   1.1257   1.1397   1.1445   1.1667   1.1718
  1.1850   1.2080   1.2146   1.2217   1.2277   1.2460   1.2507   1.2575
  1.2829   1.2968   1.3053   1.3186   1.3313   1.3352   1.3537   1.3794
  1.3904   1.4057   1.4119   1.4200   1.4320   1.4396   1.4497   1.4612
  1.4682   1.4777   1.5062   1.5318   1.5361   1.5449   1.5574   1.5684
  1.5767   1.5849   1.6058   1.6240   1.6616   1.6866   1.7197   1.7445
  1.7697   1.7874   1.7990   1.8199   1.8625   1.8751   1.8902   1.9025
  1.9362   1.9754   2.0093   2.0440   2.0539   2.0814   2.0918   2.1394
  2.1453   2.1897   2.2560   2.3444   2.3596   2.3839   2.5615   2.6120
  2.6416   2.6445   2.6622   2.6959   2.7232   2.7325   2.7861   2.8075
  2.8131   2.8149   2.8323   2.8477   2.8617   2.8798   2.8899   2.8938
  2.9176   2.9234   2.9290   2.9465   2.9609   2.9804   2.9939   3.0020
  3.0354   3.0581   3.0654   3.0877   3.1319   3.1583   3.1670   3.1711
  3.1821   3.1971   3.2131   3.2357   3.2516   3.2670   3.2691   3.2782
  3.2953   3.2963   3.3197   3.3437   3.3628   3.3785   3.3907   3.3947
  3.4164   3.4440   3.4545   3.4742   3.4811   3.5070   3.5223   3.5308
  3.5480   3.5592   3.5755   3.5985   3.6091   3.6233   3.6477   3.6735
  3.6918   3.7204   3.7396   3.7656   3.7768   3.8075   3.8108   3.8255
  3.8315   3.8499   3.8624   3.8835   3.8853   3.9176   3.9231   3.9374
  3.9631   3.9708   3.9844   4.0134   4.0396   4.0941   4.1005   4.1311
  4.1543   4.1692   4.1809   4.2026   4.2152   4.2516   4.2859   4.2900
  4.3166   4.3215   4.3419   4.3676   4.3873   4.4129   4.4299   4.4316
  4.4437   4.4684   4.4932   4.5090   4.5485   4.5511   4.5784   4.5844
  4.5922   4.6197   4.6463   4.6870   4.7410   4.7747   4.7987   4.8380
  4.8833   4.9505   5.0439   5.1241   5.1345   5.1854   5.1973   5.2230
  5.2275   5.2390   5.2652   5.2802   5.2938   5.3121   5.3172   5.3479
  5.3813   5.4019   5.4565   5.4662   5.5146   5.5377   5.6043   5.6797
  5.6830   5.7178   5.7249   5.7671   5.8216   5.8531   5.8647   5.9209
  5.9334   6.0296   6.2318   6.5856   6.6106   7.0573   7.0781   7.0991
  7.1816   7.2243   7.3092   7.3242   7.3403   7.3591   7.6308   7.6397
  7.7853  24.1919  24.7412  24.8087  24.8143  25.0063  25.0575  25.4868
 50.5189  50.5907
 --------------------------------------------------------------
 
          Ground-State Mulliken Net Atomic Charges

     Atom                 Charge (a.u.)    Spin (a.u.)
  --------------------------------------------------------
      1 C                    -0.153514       0.204064
      2 C                    -0.182843      -0.027839
      3 C                    -0.365733       0.175538
      4 C                    -0.392838      -0.082666
      5 C                    -0.271349       0.208164
      6 C                     0.228872      -0.091840
      7 C                    -0.522281       0.006100
      8 H                     0.302189      -0.003738
      9 H                     0.365301       0.010464
     10 H                     0.284546      -0.003557
     11 H                     0.288300       0.002097
     12 H                     0.278541      -0.003570
     13 H                     0.201351      -0.000163
     14 O                    -0.397579      -0.002375
     15 H                     0.205318      -0.001389
     16 H                     0.328589       0.000465
     17 O                    -0.506641       0.620162
     18 H                     0.309771      -0.009916
  --------------------------------------------------------
  Sum of atomic charges =     0.000000
  Sum of spin   charges =     1.000000

 -----------------------------------------------------------------
                    Cartesian Multipole Moments
 -----------------------------------------------------------------
    Charge (ESU x 10^10)
                 0.0000
    Dipole Moment (Debye)
         X      -3.4336      Y       1.9623      Z      -0.2760
       Tot       3.9644
    Quadrupole Moments (Debye-Ang)
        XX     -49.9944     XY       3.7332     YY     -63.7775
        XZ       4.2260     YZ       4.2848     ZZ     -45.3870
    Octopole Moments (Debye-Ang^2)
       XXX     146.1267    XXY      10.8871    XYY      25.0155
       YYY     117.0256    XXZ     -13.5716    XYZ      10.5222
       YYZ     -13.0648    XZZ      42.9969    YZZ      24.5483
       ZZZ     -30.1909
    Hexadecapole Moments (Debye-Ang^3)
      XXXX    -740.7727   XXXY    -130.4966   XXYY    -210.9261
      XYYY    -115.7787   YYYY    -819.8979   XXXZ      69.2457
      XXYZ      61.5132   XYYZ      -0.0984   YYYZ     228.0907
      XXZZ    -196.9163   XYZZ     -47.5710   YYZZ    -229.7667
      XZZZ      37.2500   YZZZ     191.4906   ZZZZ    -470.2673
 -----------------------------------------------------------------
 Calculating analytic gradient of the SCF energy
 Gradient of CDS energy
            1           2           3           4           5           6
    1  -0.0000580   0.0000474  -0.0000969  -0.0003290  -0.0001247   0.0002954
    2   0.0002322   0.0000122  -0.0002854  -0.0003216   0.0001939  -0.0001431
    3   0.0000870   0.0002477   0.0002857  -0.0001539  -0.0002636  -0.0000243
            7           8           9          10          11          12
    1  -0.0002545   0.0000974   0.0000938  -0.0000665  -0.0001421  -0.0000482
    2   0.0010696   0.0001409  -0.0000608  -0.0001605  -0.0001260   0.0000806
    3  -0.0004045   0.0000402   0.0001769   0.0001100  -0.0000826  -0.0001668
           13          14          15          16          17          18
    1  -0.0001152  -0.0001116   0.0001762   0.0003794  -0.0002453   0.0005024
    2  -0.0002150  -0.0000884  -0.0000502  -0.0002264  -0.0000214  -0.0000306
    3  -0.0000715   0.0002328   0.0002534  -0.0003085  -0.0000298   0.0000718
 Gradient of SCF Energy
            1           2           3           4           5           6
    1  -0.0044757  -0.0014706  -0.0010581   0.0059627   0.0040736  -0.0006358
    2  -0.0006860  -0.0058297   0.0057389   0.0018061  -0.0041315   0.0035642
    3  -0.0032853  -0.0031315  -0.0013975   0.0048370   0.0073746  -0.0012652
            7           8           9          10          11          12
    1   0.0056823   0.0046771   0.0008989  -0.0024752  -0.0050659  -0.0037799
    2  -0.0076242   0.0046416   0.0016178  -0.0026992  -0.0038508   0.0022177
    3   0.0012747   0.0039505   0.0058814   0.0023353  -0.0030743  -0.0101424
           13          14          15          16          17          18
    1  -0.0052093   0.0058307  -0.0020301  -0.0040498  -0.0001835   0.0033085
    2   0.0006876   0.0091736   0.0042715  -0.0076655  -0.0078897   0.0066574
    3  -0.0059150   0.0069116   0.0038710  -0.0073665  -0.0046151   0.0037566
 Max gradient component =       1.014E-02
 RMS gradient           =       4.727E-03
 Computing fast CPCM-SWIG gradient
 Updating gradient with PCM contributions...
 -- total gradient after adding PCM contribution --
---------------------------------------------------
  Atom         X              Y              Z     
---------------------------------------------------
   1       0.000747       0.000419       0.000314
   2      -0.000186      -0.000140       0.000129
   3      -0.000003      -0.000045       0.000043
   4      -0.000018       0.000047      -0.000075
   5      -0.000031      -0.000049      -0.000061
   6      -0.000204       0.000008      -0.000139
   7       0.000026       0.000014       0.000031
   8      -0.000334      -0.000242      -0.000142
   9      -0.000040       0.000007      -0.000106
  10      -0.000021      -0.000008      -0.000026
  11       0.000000       0.000007      -0.000023
  12       0.000020      -0.000006      -0.000019
  13       0.000020       0.000000       0.000007
  14       0.000020      -0.000018       0.000011
  15       0.000001       0.000002       0.000015
  16       0.000030       0.000007       0.000012
  17      -0.000014      -0.000013       0.000015
  18      -0.000012       0.000010       0.000014
---------------------------------------------------
 Number of fixed atoms: 0
 Gradient time:  CPU 352.02 s  wall 16.46 s
 ----------------------------------------------------------------
             Standard Nuclear Orientation (Angstroms)
    I     Atom           X                Y                Z
 ----------------------------------------------------------------
    1      C      -0.6421881012    -0.0101075728     1.0489514734
    2      C      -1.0346597111    -1.1547508318     1.7693899992
    3      C      -2.0250633091    -2.0050314638     1.2265041788
    4      C      -2.5115185535    -1.7682552935    -0.0369448441
    5      C      -2.0541500683    -0.6666930911    -0.7675822904
    6      C      -1.1273663425     0.2216207777    -0.2275274805
    7      C      -0.6336544767     1.3980170794    -1.0250442952
    8      H       0.0654821727     0.6795736414     1.4933973518
    9      H      -0.7783221983    -1.2379061542     2.8145913205
   10      H      -2.3745554803    -2.8488206263     1.8047655931
   11      H      -3.2533955969    -2.4259301596    -0.4680355845
   12      H      -2.4400195712    -0.4868080569    -1.7634583434
   13      H      -1.3284308249     1.6193146241    -1.8366464549
   14      O       0.6817215639     1.1759004557    -1.5466697793
   15      H      -0.5539035092     2.2782303185    -0.3902331882
   16      H       0.6353344314     0.4320854843    -2.1573181599
   17      O       0.6280053071    -2.3135247108     1.2624109380
   18      H       1.2722244682    -1.6322959202     1.5059138657
 ----------------------------------------------------------------
 Nuclear Repulsion Energy =         429.23554074 hartrees
 There are       34 alpha and       33 beta electrons
 Discretize the solute cavity surface with Lebedev spheres
	Using 110 Lebedev grid points for each H atom
	Using 194 Lebedev grid points for other atoms
	Atomic van der Waals radii will be scaled by 1.20
 Remove points where switching function is < 1.0e-08
 Keep 1335 surface tesserae and discard 1401 interior tesserae
 Molecular Surface Area = 159.204 Angst**2
 Requested basis set is 6-311++G(2df,2p)
 There are 126 shells and 396 basis functions
 A cutoff of  1.0D-12 yielded   7216 shell pairs
 There are     71864 function pairs (     89063 Cartesian)
 Smallest overlap matrix eigenvalue = 9.68E-07
 Linear dependence detected in AO basis
 Tighter screening thresholds may be required for diffuse basis sets
 Use S2THRESH > 14 and THRESH = 14 in case of SCF convergence issues
 Number of orthogonalized atomic orbitals = 395
 Maximum deviation from orthogonality = 4.042E-11
 Guess MOs from SCF MO coefficient file

 -----------------------------------------------------------------------
  General SCF calculation program by
  Eric Jon Sundstrom, Paul Horn, Yuezhi Mao, Dmitri Zuev, Alec White,
  David Stuck, Shaama M.S., Shane Yost, Joonho Lee, David Small,
  Daniel Levine, Susi Lehtola, Hugh Burton, Evgeny Epifanovsky,
  Bang C. Huynh
 -----------------------------------------------------------------------
 Exchange:     0.1500 Hartree-Fock + 1.0000 wB97M-V + LR-HF
 Correlation:  1.0000 wB97M-V
 Using SG-2 standard quadrature grid
 Nonlocal Correlation:  VV10 with C = 0.0100 and b = 6.00 and scale = 1.00000
 Grid used for NLC:  SG-1 standard quadrature
 
 Citation of the SMD model:
 Marenich, A.V.; Cramer, C.J.; Truhlar, D.G.
 J. Phys. Chem. B 2009, 113, 6378-6396.
 iSolventCode=           1
 Solvent: water                                                           
 
 vradii
            1           2           3           4           5           6
    1   1.8500000   1.8500000   1.8500000   1.8500000   1.8500000   1.8500000
            7           8           9          10          11          12
    1   1.8500000   1.2000000   1.2000000   1.2000000   1.2000000   1.2000000
           13          14          15          16          17          18
    1   1.2000000   1.5200000   1.2000000   1.2000000   1.5200000   1.2000000
 -------------------------------------------------------
 OpenMP BLAS3 based DFT computing Module                
 Release: version 1.0, May 2013, Q-Chem Inc. Pittsburgh 
 -------------------------------------------------------
 A unrestricted SCF calculation will be
 performed using Roothaan-Hall, DIIS, GDM
 SCF converges when RMS gradient is below 1.0e-07
 ---------------------------------------
  Cycle       Energy         DIIS error
 ---------------------------------------
    1    -422.4700694383      2.13e-04  Roothaan Step
 ---------------------------------------
  Cycle       Energy         DIIS error
 ---------------------------------------
    1    -422.4979275881      2.61e-04  
    2    -422.5018525643      2.65e-04  Done DIIS. Switching to GDM
 ---------------------------------------
  Cycle       Energy        RMS Gradient
 ---------------------------------------
    1    -422.5018525643      2.33e-02   Normal BFGS step
    2    -422.5009946024      3.95e-02  Line search: overstep
    3    -422.5054977681      6.75e-03   Normal BFGS step
    4    -422.5056609703      2.85e-03   Normal BFGS step
    5    -422.5057122717      2.46e-03   Normal BFGS step
    6    -422.5057258223      1.54e-03   Normal BFGS step
    7    -422.5057360217      5.38e-04   Normal BFGS step
    8    -422.5057384126      2.98e-04   Normal BFGS step
    9    -422.5057388681      1.40e-04   Normal BFGS step
   10    -422.5057390239      9.76e-05   Normal BFGS step
   11    -422.5057390924      5.39e-05   Normal BFGS step
   12    -422.5057391200      3.65e-05   Normal BFGS step
   13    -422.5057391259      2.70e-05   Normal BFGS step
   14    -422.5057391285      1.98e-05   Normal BFGS step
   15    -422.5057391300      9.95e-06   Normal BFGS step
   16    -422.5057391305      4.72e-06   Normal BFGS step
   17    -422.5057391307      2.55e-06   Normal BFGS step
   18    -422.5057391308      1.25e-06   Normal BFGS step
   19    -422.5057391308      4.13e-07   Normal BFGS step
   20    -422.5057391308      1.83e-07   Normal BFGS step
   21    -422.5057391307      8.61e-08  Convergence criterion met
 ---------------------------------------
 SCF time:   CPU 3026.23s  wall 116.00s 
<S^2> =          0.781575749
(3)  G-ENP(liq) elect-nuc-pol free energy of system     -422.505739131 a.u.
(4)  G-CDS(liq) cavity-dispersion-solvent structure 
     free energy                                                3.5196 kcal/mol
(6)  G-S(liq) free energy of system                     -422.500130364 a.u.
 SCF   energy in the final basis set =     -422.5001303637
 Total energy in the final basis set =     -422.5001303637
 
 --------------------------------------------------------------
 
                    Orbital Energies (a.u.)
 --------------------------------------------------------------
 
 Alpha MOs
 -- Occupied --
-19.3425 -19.3379 -10.3866 -10.3744 -10.3592 -10.3590 -10.3558 -10.3543
-10.3485  -1.1540  -1.0971  -0.9958  -0.8986  -0.8802  -0.8010  -0.7349
 -0.7109  -0.6411  -0.6105  -0.5800  -0.5668  -0.5571  -0.5439  -0.5326
 -0.5257  -0.5090  -0.4729  -0.4545  -0.4432  -0.4330  -0.4170  -0.3933
 -0.3541  -0.3240
 -- Virtual --
  0.0233   0.0351   0.0363   0.0449   0.0516   0.0550   0.0586   0.0597
  0.0717   0.0853   0.0879   0.0951   0.1094   0.1273   0.1365   0.1432
  0.1461   0.1495   0.1563   0.1597   0.1604   0.1627   0.1703   0.1760
  0.1783   0.1792   0.1923   0.1974   0.2056   0.2130   0.2145   0.2172
  0.2325   0.2378   0.2478   0.2554   0.2575   0.2625   0.2721   0.2757
  0.2968   0.2997   0.3118   0.3210   0.3240   0.3248   0.3395   0.3462
  0.3503   0.3536   0.3575   0.3596   0.3661   0.3803   0.3822   0.4008
  0.4222   0.4267   0.4312   0.4441   0.4559   0.4657   0.5296   0.5375
  0.5456   0.5755   0.5934   0.5969   0.5998   0.6045   0.6082   0.6142
  0.6199   0.6315   0.6351   0.6431   0.6550   0.6726   0.6813   0.6892
  0.6962   0.7059   0.7165   0.7207   0.7283   0.7342   0.7403   0.7444
  0.7551   0.7597   0.7679   0.7928   0.8045   0.8189   0.8284   0.8354
  0.8433   0.8545   0.8676   0.8716   0.8870   0.8951   0.9034   0.9190
  0.9364   0.9622   0.9947   1.0092   1.0284   1.0473   1.0560   1.0593
  1.0814   1.1135   1.1237   1.1377   1.1430   1.1650   1.1702   1.1838
  1.2012   1.2123   1.2187   1.2255   1.2427   1.2469   1.2570   1.2765
  1.2964   1.3009   1.3090   1.3283   1.3329   1.3509   1.3730   1.3891
  1.4041   1.4094   1.4180   1.4300   1.4371   1.4470   1.4594   1.4660
  1.4755   1.5042   1.5301   1.5315   1.5428   1.5544   1.5657   1.5742
  1.5827   1.6046   1.6234   1.6580   1.6804   1.7178   1.7333   1.7645
  1.7811   1.7924   1.8157   1.8559   1.8713   1.8823   1.8919   1.9278
  1.9726   1.9948   2.0360   2.0419   2.0787   2.0885   2.1345   2.1420
  2.1890   2.2551   2.3439   2.3588   2.3783   2.5574   2.6093   2.6375
  2.6411   2.6591   2.6913   2.7185   2.7279   2.7773   2.8015   2.8077
  2.8132   2.8278   2.8409   2.8543   2.8740   2.8863   2.8894   2.9120
  2.9189   2.9244   2.9415   2.9570   2.9716   2.9870   2.9963   3.0302
  3.0538   3.0599   3.0855   3.1321   3.1546   3.1624   3.1687   3.1775
  3.1925   3.2092   3.2327   3.2497   3.2612   3.2647   3.2738   3.2905
  3.2924   3.3151   3.3410   3.3591   3.3724   3.3837   3.3922   3.4124
  3.4408   3.4486   3.4677   3.4778   3.5023   3.5170   3.5263   3.5441
  3.5562   3.5725   3.5951   3.5976   3.6184   3.6473   3.6706   3.6880
  3.7178   3.7368   3.7615   3.7718   3.8032   3.8069   3.8222   3.8296
  3.8448   3.8586   3.8797   3.8810   3.9140   3.9178   3.9350   3.9580
  3.9676   3.9794   4.0079   4.0374   4.0876   4.0965   4.1256   4.1509
  4.1659   4.1774   4.2009   4.2128   4.2500   4.2810   4.2855   4.3109
  4.3191   4.3383   4.3638   4.3845   4.4086   4.4269   4.4273   4.4408
  4.4646   4.4892   4.5010   4.5423   4.5454   4.5732   4.5794   4.5863
  4.6160   4.6434   4.6823   4.7398   4.7691   4.7934   4.8327   4.8785
  4.9439   5.0370   5.1120   5.1171   5.1653   5.1775   5.1872   5.2022
  5.2172   5.2526   5.2577   5.2794   5.2872   5.3098   5.3149   5.3402
  5.3957   5.4217   5.4641   5.5105   5.5336   5.6042   5.6667   5.6773
  5.6861   5.7184   5.7653   5.8150   5.8411   5.8557   5.9157   5.9321
  6.0293   6.2253   6.5824   6.6098   6.9944   7.0363   7.0977   7.1010
  7.1639   7.2975   7.3097   7.3244   7.3593   7.5798   7.6394   7.7857
 24.1906  24.7400  24.8085  24.8140  25.0049  25.0579  25.4860  50.5063
 50.5908
 
 Beta MOs
 -- Occupied --
-19.3380 -19.3249 -10.3865 -10.3743 -10.3563 -10.3560 -10.3556 -10.3533
-10.3498  -1.1543  -1.0565  -0.9912  -0.8969  -0.8749  -0.7988  -0.7319
 -0.7089  -0.6397  -0.6092  -0.5769  -0.5648  -0.5471  -0.5373  -0.5274
 -0.5234  -0.4811  -0.4690  -0.4512  -0.4324  -0.3967  -0.3938  -0.3684
 -0.3454
 -- Virtual --
 -0.0622   0.0235   0.0353   0.0367   0.0450   0.0549   0.0563   0.0629
  0.0710   0.0787   0.0854   0.0891   0.0952   0.1092   0.1272   0.1373
  0.1439   0.1464   0.1499   0.1567   0.1603   0.1605   0.1630   0.1718
  0.1764   0.1786   0.1794   0.1937   0.1975   0.2059   0.2130   0.2150
  0.2174   0.2334   0.2375   0.2501   0.2563   0.2598   0.2636   0.2722
  0.2764   0.2979   0.3005   0.3138   0.3221   0.3250   0.3267   0.3406
  0.3471   0.3511   0.3541   0.3588   0.3610   0.3665   0.3807   0.3830
  0.4015   0.4237   0.4281   0.4321   0.4451   0.4571   0.4665   0.5309
  0.5382   0.5473   0.5787   0.5956   0.6004   0.6025   0.6056   0.6091
  0.6162   0.6246   0.6340   0.6378   0.6443   0.6580   0.6767   0.6827
  0.6909   0.6977   0.7079   0.7189   0.7226   0.7293   0.7352   0.7415
  0.7459   0.7565   0.7609   0.7696   0.7944   0.8061   0.8209   0.8303
  0.8361   0.8454   0.8562   0.8688   0.8733   0.8897   0.8977   0.9045
  0.9215   0.9394   0.9647   0.9964   1.0128   1.0295   1.0481   1.0579
  1.0620   1.0824   1.1158   1.1256   1.1398   1.1447   1.1668   1.1716
  1.1851   1.2079   1.2146   1.2217   1.2278   1.2460   1.2507   1.2575
  1.2829   1.2968   1.3053   1.3185   1.3313   1.3351   1.3537   1.3794
  1.3904   1.4057   1.4119   1.4202   1.4321   1.4398   1.4498   1.4613
  1.4681   1.4776   1.5063   1.5318   1.5360   1.5449   1.5573   1.5682
  1.5768   1.5849   1.6058   1.6239   1.6618   1.6867   1.7197   1.7443
  1.7697   1.7872   1.7991   1.8200   1.8625   1.8747   1.8901   1.9024
  1.9364   1.9755   2.0089   2.0440   2.0537   2.0816   2.0919   2.1398
  2.1452   2.1897   2.2562   2.3443   2.3596   2.3839   2.5615   2.6119
  2.6411   2.6450   2.6623   2.6959   2.7232   2.7325   2.7864   2.8077
  2.8130   2.8149   2.8322   2.8480   2.8616   2.8796   2.8900   2.8939
  2.9176   2.9236   2.9290   2.9464   2.9607   2.9804   2.9939   3.0019
  3.0355   3.0582   3.0658   3.0878   3.1321   3.1583   3.1669   3.1712
  3.1820   3.1974   3.2132   3.2358   3.2517   3.2670   3.2691   3.2781
  3.2948   3.2963   3.3196   3.3440   3.3630   3.3789   3.3908   3.3949
  3.4163   3.4444   3.4543   3.4745   3.4812   3.5070   3.5222   3.5310
  3.5480   3.5592   3.5757   3.5981   3.6092   3.6232   3.6476   3.6738
  3.6917   3.7206   3.7398   3.7656   3.7766   3.8074   3.8110   3.8256
  3.8317   3.8499   3.8625   3.8834   3.8853   3.9178   3.9232   3.9375
  3.9630   3.9709   3.9848   4.0134   4.0398   4.0941   4.1006   4.1308
  4.1540   4.1691   4.1807   4.2026   4.2153   4.2519   4.2859   4.2899
  4.3166   4.3216   4.3413   4.3676   4.3873   4.4130   4.4301   4.4314
  4.4434   4.4684   4.4931   4.5097   4.5491   4.5517   4.5785   4.5853
  4.5925   4.6196   4.6464   4.6869   4.7413   4.7750   4.7984   4.8386
  4.8835   4.9505   5.0442   5.1239   5.1346   5.1855   5.1975   5.2229
  5.2275   5.2389   5.2653   5.2801   5.2939   5.3121   5.3173   5.3478
  5.3811   5.4019   5.4565   5.4661   5.5144   5.5379   5.6043   5.6798
  5.6829   5.7178   5.7249   5.7676   5.8215   5.8536   5.8631   5.9212
  5.9335   6.0295   6.2312   6.5860   6.6108   7.0573   7.0780   7.0991
  7.1814   7.2243   7.3092   7.3242   7.3402   7.3591   7.6308   7.6397
  7.7853  24.1915  24.7410  24.8090  24.8145  25.0068  25.0586  25.4874
 50.5189  50.5906
 --------------------------------------------------------------
 
          Ground-State Mulliken Net Atomic Charges

     Atom                 Charge (a.u.)    Spin (a.u.)
  --------------------------------------------------------
      1 C                    -0.153004       0.203861
      2 C                    -0.183103      -0.027988
      3 C                    -0.364225       0.175594
      4 C                    -0.393634      -0.082590
      5 C                    -0.271932       0.208248
      6 C                     0.229640      -0.091805
      7 C                    -0.522495       0.006079
      8 H                     0.301180      -0.003707
      9 H                     0.365361       0.010453
     10 H                     0.284572      -0.003559
     11 H                     0.288260       0.002102
     12 H                     0.278471      -0.003571
     13 H                     0.201424      -0.000162
     14 O                    -0.397488      -0.002374
     15 H                     0.205182      -0.001383
     16 H                     0.328585       0.000462
     17 O                    -0.506571       0.620250
     18 H                     0.309776      -0.009908
  --------------------------------------------------------
  Sum of atomic charges =     0.000000
  Sum of spin   charges =     1.000000

 -----------------------------------------------------------------
                    Cartesian Multipole Moments
 -----------------------------------------------------------------
    Charge (ESU x 10^10)
                 0.0000
    Dipole Moment (Debye)
         X      -3.4337      Y       1.9609      Z      -0.2780
       Tot       3.9640
    Quadrupole Moments (Debye-Ang)
        XX     -49.9928     XY       3.7298     YY     -63.7771
        XZ       4.2252     YZ       4.2785     ZZ     -45.3871
    Octopole Moments (Debye-Ang^2)
       XXX     146.1579    XXY      10.8924    XYY      25.0316
       YYY     117.0238    XXZ     -13.5693    XYZ      10.5254
       YYZ     -13.0678    XZZ      43.0052    YZZ      24.5401
       ZZZ     -30.1946
    Hexadecapole Moments (Debye-Ang^3)
      XXXX    -740.8511   XXXY    -130.5210   XXYY    -210.9477
      XYYY    -115.8029   YYYY    -819.8984   XXXZ      69.2687
      XXYZ      61.5023   XYYZ      -0.0859   YYYZ     228.0705
      XXZZ    -196.9260   XYZZ     -47.5716   YYZZ    -229.7640
      XZZZ      37.2740   YZZZ     191.4538   ZZZZ    -470.2587
 -----------------------------------------------------------------
 Calculating analytic gradient of the SCF energy
 Gradient of CDS energy
            1           2           3           4           5           6
    1  -0.0000597   0.0000479  -0.0000969  -0.0003290  -0.0001245   0.0002956
    2   0.0002315   0.0000124  -0.0002854  -0.0003216   0.0001939  -0.0001433
    3   0.0000862   0.0002473   0.0002858  -0.0001539  -0.0002637  -0.0000238
            7           8           9          10          11          12
    1  -0.0002546   0.0000983   0.0000938  -0.0000665  -0.0001421  -0.0000482
    2   0.0010695   0.0001416  -0.0000607  -0.0001605  -0.0001260   0.0000806
    3  -0.0004044   0.0000408   0.0001769   0.0001100  -0.0000826  -0.0001668
           13          14          15          16          17          18
    1  -0.0001152  -0.0001115   0.0001762   0.0003794  -0.0002454   0.0005024
    2  -0.0002150  -0.0000886  -0.0000502  -0.0002264  -0.0000214  -0.0000305
    3  -0.0000715   0.0002330   0.0002533  -0.0003085  -0.0000298   0.0000716
 Gradient of SCF Energy
            1           2           3           4           5           6
    1  -0.0060427  -0.0010846  -0.0010529   0.0059617   0.0041823  -0.0001613
    2  -0.0015348  -0.0055180   0.0058353   0.0017887  -0.0040896   0.0035370
    3  -0.0039249  -0.0032193  -0.0014348   0.0048686   0.0074914  -0.0009471
            7           8           9          10          11          12
    1   0.0056491   0.0053022   0.0008796  -0.0024753  -0.0050650  -0.0037851
    2  -0.0076244   0.0050868   0.0015918  -0.0026833  -0.0038525   0.0022398
    3   0.0012478   0.0042481   0.0058977   0.0023498  -0.0030750  -0.0101326
           13          14          15          16          17          18
    1  -0.0052131   0.0058338  -0.0020293  -0.0040510  -0.0001663   0.0033179
    2   0.0006971   0.0091805   0.0042724  -0.0076690  -0.0079021   0.0066442
    3  -0.0059225   0.0069127   0.0038637  -0.0073675  -0.0046089   0.0037527
 Max gradient component =       1.013E-02
 RMS gradient           =       4.794E-03
 Computing fast CPCM-SWIG gradient
 Updating gradient with PCM contributions...
 -- total gradient after adding PCM contribution --
---------------------------------------------------
  Atom         X              Y              Z     
---------------------------------------------------
   1      -0.000741      -0.000461      -0.000346
   2       0.000186       0.000161       0.000038
   3       0.000003       0.000054      -0.000008
   4      -0.000002       0.000018      -0.000050
   5       0.000032       0.000010       0.000041
   6       0.000222      -0.000010       0.000221
   7      -0.000008       0.000015      -0.000002
   8       0.000296       0.000225       0.000168
   9      -0.000061      -0.000018      -0.000089
  10      -0.000022       0.000009      -0.000012
  11       0.000001       0.000005      -0.000024
  12       0.000015       0.000016      -0.000007
  13       0.000020       0.000009       0.000003
  14       0.000025      -0.000014       0.000008
  15       0.000002       0.000004       0.000013
  16       0.000028       0.000007       0.000014
  17       0.000005      -0.000025       0.000020
  18      -0.000003      -0.000004       0.000012
---------------------------------------------------
 Number of fixed atoms: 0
 Gradient time:  CPU 352.59 s  wall 16.53 s
 ----------------------------------------------------------------
             Standard Nuclear Orientation (Angstroms)
    I     Atom           X                Y                Z
 ----------------------------------------------------------------
    1      C      -0.6411881012    -0.0091075728     1.0489514734
    2      C      -1.0346597111    -1.1547508318     1.7693899992
    3      C      -2.0250633091    -2.0050314638     1.2265041788
    4      C      -2.5115185535    -1.7682552935    -0.0369448441
    5      C      -2.0541500683    -0.6666930911    -0.7675822904
    6      C      -1.1273663425     0.2216207777    -0.2275274805
    7      C      -0.6336544767     1.3980170794    -1.0250442952
    8      H       0.0654821727     0.6795736414     1.4933973518
    9      H      -0.7783221983    -1.2379061542     2.8145913205
   10      H      -2.3745554803    -2.8488206263     1.8047655931
   11      H      -3.2533955969    -2.4259301596    -0.4680355845
   12      H      -2.4400195712    -0.4868080569    -1.7634583434
   13      H      -1.3284308249     1.6193146241    -1.8366464549
   14      O       0.6817215639     1.1759004557    -1.5466697793
   15      H      -0.5539035092     2.2782303185    -0.3902331882
   16      H       0.6353344314     0.4320854843    -2.1573181599
   17      O       0.6280053071    -2.3135247108     1.2624109380
   18      H       1.2722244682    -1.6322959202     1.5059138657
 ----------------------------------------------------------------
 Nuclear Repulsion Energy =         429.21791145 hartrees
 There are       34 alpha and       33 beta electrons
 Discretize the solute cavity surface with Lebedev spheres
	Using 110 Lebedev grid points for each H atom
	Using 194 Lebedev grid points for other atoms
	Atomic van der Waals radii will be scaled by 1.20
 Remove points where switching function is < 1.0e-08
 Keep 1335 surface tesserae and discard 1401 interior tesserae
 Molecular Surface Area = 159.203 Angst**2
 Requested basis set is 6-311++G(2df,2p)
 There are 126 shells and 396 basis functions
 A cutoff of  1.0D-12 yielded   7216 shell pairs
 There are     71864 function pairs (     89063 Cartesian)
 Smallest overlap matrix eigenvalue = 9.70E-07
 Linear dependence detected in AO basis
 Tighter screening thresholds may be required for diffuse basis sets
 Use S2THRESH > 14 and THRESH = 14 in case of SCF convergence issues
 Number of orthogonalized atomic orbitals = 395
 Maximum deviation from orthogonality = 6.251E-11
 Guess MOs from SCF MO coefficient file

 -----------------------------------------------------------------------
  General SCF calculation program by
  Eric Jon Sundstrom, Paul Horn, Yuezhi Mao, Dmitri Zuev, Alec White,
  David Stuck, Shaama M.S., Shane Yost, Joonho Lee, David Small,
  Daniel Levine, Susi Lehtola, Hugh Burton, Evgeny Epifanovsky,
  Bang C. Huynh
 -----------------------------------------------------------------------
 Exchange:     0.1500 Hartree-Fock + 1.0000 wB97M-V + LR-HF
 Correlation:  1.0000 wB97M-V
 Using SG-2 standard quadrature grid
 Nonlocal Correlation:  VV10 with C = 0.0100 and b = 6.00 and scale = 1.00000
 Grid used for NLC:  SG-1 standard quadrature
 
 Citation of the SMD model:
 Marenich, A.V.; Cramer, C.J.; Truhlar, D.G.
 J. Phys. Chem. B 2009, 113, 6378-6396.
 iSolventCode=           1
 Solvent: water                                                           
 
 vradii
            1           2           3           4           5           6
    1   1.8500000   1.8500000   1.8500000   1.8500000   1.8500000   1.8500000
            7           8           9          10          11          12
    1   1.8500000   1.2000000   1.2000000   1.2000000   1.2000000   1.2000000
           13          14          15          16          17          18
    1   1.2000000   1.5200000   1.2000000   1.2000000   1.5200000   1.2000000
 -------------------------------------------------------
 OpenMP BLAS3 based DFT computing Module                
 Release: version 1.0, May 2013, Q-Chem Inc. Pittsburgh 
 -------------------------------------------------------
 A unrestricted SCF calculation will be
 performed using Roothaan-Hall, DIIS, GDM
 SCF converges when RMS gradient is below 1.0e-07
 ---------------------------------------
  Cycle       Energy         DIIS error
 ---------------------------------------
    1    -422.4700769153      2.13e-04  Roothaan Step
 ---------------------------------------
  Cycle       Energy         DIIS error
 ---------------------------------------
    1    -422.4979184659      2.62e-04  
    2    -422.5018524400      2.65e-04  Done DIIS. Switching to GDM
 ---------------------------------------
  Cycle       Energy        RMS Gradient
 ---------------------------------------
    1    -422.5018524400      2.33e-02   Normal BFGS step
    2    -422.5009973507      3.96e-02  Line search: overstep
    3    -422.5054962506      6.80e-03   Normal BFGS step
    4    -422.5056601656      2.89e-03   Normal BFGS step
    5    -422.5057119667      2.48e-03   Normal BFGS step
    6    -422.5057257428      1.55e-03   Normal BFGS step
    7    -422.5057361330      5.36e-04   Normal BFGS step
    8    -422.5057385398      2.95e-04   Normal BFGS step
    9    -422.5057389980      1.38e-04   Normal BFGS step
   10    -422.5057391532      9.65e-05   Normal BFGS step
   11    -422.5057392210      5.21e-05   Normal BFGS step
   12    -422.5057392480      3.57e-05   Normal BFGS step
   13    -422.5057392537      2.66e-05   Normal BFGS step
   14    -422.5057392563      1.96e-05   Normal BFGS step
   15    -422.5057392578      9.94e-06   Normal BFGS step
   16    -422.5057392582      4.79e-06   Normal BFGS step
   17    -422.5057392584      2.53e-06   Normal BFGS step
   18    -422.5057392585      1.26e-06   Normal BFGS step
   19    -422.5057392585      4.20e-07   Normal BFGS step
   20    -422.5057392585      1.83e-07   Normal BFGS step
   21    -422.5057392584      8.44e-08  Convergence criterion met
 ---------------------------------------
 SCF time:   CPU 3012.50s  wall 115.00s 
<S^2> =          0.781659185
(3)  G-ENP(liq) elect-nuc-pol free energy of system     -422.505739258 a.u.
(4)  G-CDS(liq) cavity-dispersion-solvent structure 
     free energy                                                3.5198 kcal/mol
(6)  G-S(liq) free energy of system                     -422.500130164 a.u.
 SCF   energy in the final basis set =     -422.5001301641
 Total energy in the final basis set =     -422.5001301641
 
 --------------------------------------------------------------
 
                    Orbital Energies (a.u.)
 --------------------------------------------------------------
 
 Alpha MOs
 -- Occupied --
-19.3424 -19.3378 -10.3866 -10.3746 -10.3592 -10.3590 -10.3559 -10.3544
-10.3486  -1.1540  -1.0970  -0.9958  -0.8986  -0.8802  -0.8010  -0.7350
 -0.7109  -0.6411  -0.6104  -0.5800  -0.5668  -0.5570  -0.5439  -0.5327
 -0.5257  -0.5089  -0.4728  -0.4546  -0.4432  -0.4331  -0.4170  -0.3932
 -0.3541  -0.3240
 -- Virtual --
  0.0233   0.0351   0.0363   0.0449   0.0516   0.0550   0.0586   0.0597
  0.0717   0.0853   0.0879   0.0951   0.1094   0.1273   0.1365   0.1432
  0.1460   0.1495   0.1563   0.1597   0.1604   0.1627   0.1702   0.1760
  0.1783   0.1792   0.1923   0.1974   0.2056   0.2130   0.2146   0.2173
  0.2325   0.2378   0.2478   0.2553   0.2575   0.2625   0.2721   0.2757
  0.2968   0.2997   0.3118   0.3210   0.3240   0.3248   0.3395   0.3461
  0.3503   0.3536   0.3575   0.3596   0.3661   0.3803   0.3822   0.4009
  0.4221   0.4266   0.4312   0.4441   0.4558   0.4657   0.5295   0.5375
  0.5457   0.5755   0.5934   0.5969   0.5998   0.6045   0.6082   0.6142
  0.6197   0.6315   0.6351   0.6431   0.6550   0.6726   0.6813   0.6892
  0.6962   0.7059   0.7165   0.7207   0.7283   0.7342   0.7403   0.7444
  0.7551   0.7596   0.7678   0.7928   0.8045   0.8189   0.8284   0.8354
  0.8432   0.8545   0.8676   0.8715   0.8870   0.8949   0.9033   0.9190
  0.9363   0.9622   0.9947   1.0092   1.0284   1.0472   1.0560   1.0593
  1.0814   1.1134   1.1237   1.1377   1.1429   1.1649   1.1703   1.1838
  1.2011   1.2122   1.2186   1.2256   1.2427   1.2469   1.2570   1.2765
  1.2964   1.3010   1.3090   1.3282   1.3330   1.3509   1.3729   1.3891
  1.4041   1.4093   1.4178   1.4299   1.4370   1.4469   1.4593   1.4659
  1.4755   1.5042   1.5301   1.5314   1.5428   1.5545   1.5658   1.5741
  1.5828   1.6047   1.6234   1.6579   1.6806   1.7176   1.7334   1.7645
  1.7811   1.7923   1.8156   1.8559   1.8713   1.8823   1.8918   1.9277
  1.9726   1.9949   2.0360   2.0419   2.0786   2.0884   2.1342   2.1420
  2.1890   2.2546   2.3438   2.3588   2.3784   2.5574   2.6094   2.6376
  2.6409   2.6591   2.6912   2.7187   2.7279   2.7772   2.8013   2.8077
  2.8133   2.8278   2.8407   2.8542   2.8741   2.8862   2.8893   2.9119
  2.9188   2.9243   2.9416   2.9571   2.9716   2.9872   2.9963   3.0300
  3.0538   3.0598   3.0854   3.1321   3.1546   3.1623   3.1685   3.1775
  3.1923   3.2091   3.2327   3.2497   3.2610   3.2647   3.2739   3.2905
  3.2925   3.3151   3.3407   3.3590   3.3724   3.3836   3.3921   3.4125
  3.4405   3.4487   3.4676   3.4778   3.5022   3.5170   3.5261   3.5439
  3.5563   3.5724   3.5954   3.5976   3.6184   3.6473   3.6705   3.6880
  3.7177   3.7366   3.7614   3.7718   3.8031   3.8067   3.8222   3.8294
  3.8448   3.8584   3.8798   3.8809   3.9139   3.9176   3.9351   3.9579
  3.9675   3.9790   4.0077   4.0372   4.0875   4.0965   4.1255   4.1511
  4.1660   4.1775   4.2008   4.2128   4.2498   4.2809   4.2856   4.3111
  4.3190   4.3385   4.3637   4.3845   4.4086   4.4270   4.4272   4.4410
  4.4646   4.4893   4.5002   4.5418   4.5446   4.5730   4.5787   4.5860
  4.6161   4.6435   4.6824   4.7396   4.7687   4.7936   4.8321   4.8783
  4.9436   5.0366   5.1121   5.1170   5.1652   5.1776   5.1873   5.2018
  5.2173   5.2525   5.2577   5.2794   5.2873   5.3099   5.3149   5.3406
  5.3956   5.4217   5.4642   5.5106   5.5334   5.6042   5.6667   5.6774
  5.6861   5.7185   5.7648   5.8154   5.8411   5.8559   5.9156   5.9321
  6.0293   6.2256   6.5817   6.6095   6.9944   7.0363   7.0978   7.1011
  7.1640   7.2975   7.3097   7.3244   7.3594   7.5798   7.6394   7.7857
 24.1912  24.7397  24.8082  24.8139  25.0038  25.0575  25.4854  50.5064
 50.5908
 
 Beta MOs
 -- Occupied --
-19.3380 -19.3249 -10.3865 -10.3744 -10.3564 -10.3561 -10.3556 -10.3533
-10.3499  -1.1543  -1.0565  -0.9912  -0.8970  -0.8749  -0.7988  -0.7320
 -0.7088  -0.6397  -0.6091  -0.5769  -0.5649  -0.5471  -0.5373  -0.5274
 -0.5234  -0.4811  -0.4690  -0.4513  -0.4325  -0.3967  -0.3937  -0.3683
 -0.3454
 -- Virtual --
 -0.0622   0.0235   0.0353   0.0367   0.0450   0.0549   0.0563   0.0629
  0.0710   0.0787   0.0854   0.0891   0.0952   0.1092   0.1272   0.1373
  0.1439   0.1464   0.1499   0.1567   0.1603   0.1605   0.1630   0.1718
  0.1764   0.1786   0.1794   0.1937   0.1975   0.2059   0.2130   0.2150
  0.2175   0.2334   0.2375   0.2500   0.2563   0.2598   0.2636   0.2722
  0.2764   0.2979   0.3005   0.3138   0.3221   0.3250   0.3267   0.3406
  0.3471   0.3511   0.3541   0.3587   0.3610   0.3665   0.3807   0.3830
  0.4015   0.4236   0.4280   0.4321   0.4452   0.4570   0.4665   0.5308
  0.5382   0.5474   0.5787   0.5956   0.6004   0.6024   0.6056   0.6091
  0.6162   0.6245   0.6340   0.6378   0.6443   0.6580   0.6767   0.6827
  0.6909   0.6977   0.7078   0.7188   0.7226   0.7293   0.7352   0.7415
  0.7458   0.7564   0.7608   0.7696   0.7944   0.8061   0.8210   0.8303
  0.8360   0.8454   0.8562   0.8687   0.8732   0.8897   0.8976   0.9044
  0.9214   0.9393   0.9647   0.9964   1.0128   1.0295   1.0480   1.0579
  1.0620   1.0824   1.1158   1.1256   1.1398   1.1447   1.1668   1.1717
[...]
 Molecular Surface Area = 155.096 Angst**2
 Applying Cartesian multipole field
    Component          Value
    ---------          -----
     (2,0,0)        1.00000E-11
     (0,2,0)        2.00000E-11
     (0,0,2)       -3.00000E-11
 Nucleus-field energy     =     0.0000000041 hartrees
 Requested basis set is 6-311++G(2df,2p)
 There are 126 shells and 396 basis functions
 A cutoff of  1.0D-12 yielded   7244 shell pairs
 There are     72160 function pairs (     89428 Cartesian)
 Smallest overlap matrix eigenvalue = 1.81E-06
 Guess MOs from SCF MO coefficient file

 -----------------------------------------------------------------------
  General SCF calculation program by
  Eric Jon Sundstrom, Paul Horn, Yuezhi Mao, Dmitri Zuev, Alec White,
  David Stuck, Shaama M.S., Shane Yost, Joonho Lee, David Small,
  Daniel Levine, Susi Lehtola, Hugh Burton, Evgeny Epifanovsky,
  Bang C. Huynh
 -----------------------------------------------------------------------
 Exchange:     0.1500 Hartree-Fock + 1.0000 wB97M-V + LR-HF
 Correlation:  1.0000 wB97M-V
 Using SG-2 standard quadrature grid
 Nonlocal Correlation:  VV10 with C = 0.0100 and b = 6.00 and scale = 1.00000
 Grid used for NLC:  SG-1 standard quadrature
 
 Citation of the SMD model:
 Marenich, A.V.; Cramer, C.J.; Truhlar, D.G.
 J. Phys. Chem. B 2009, 113, 6378-6396.
 iSolventCode=           1
 Solvent: water                                                           
 
 vradii
            1           2           3           4           5           6
    1   1.8500000   1.8500000   1.8500000   1.8500000   1.8500000   1.8500000
            7           8           9          10          11          12
    1   1.8500000   1.2000000   1.2000000   1.2000000   1.2000000   1.2000000
           13          14          15          16          17          18
    1   1.2000000   1.5200000   1.2000000   1.2000000   1.5200000   1.2000000
 -------------------------------------------------------
 OpenMP BLAS3 based DFT computing Module                
 Release: version 1.0, May 2013, Q-Chem Inc. Pittsburgh 
 -------------------------------------------------------
 A unrestricted SCF calculation will be
 performed using Roothaan-Hall, DIIS, GDM
 SCF converges when RMS gradient is below 1.0e-07
 ---------------------------------------
  Cycle       Energy         DIIS error
 ---------------------------------------
    1    -422.4981515428      1.97e-04  Roothaan Step
 ---------------------------------------
  Cycle       Energy         DIIS error
 ---------------------------------------
    1    -422.5230504814      2.21e-04  
    2    -422.5267616068      1.84e-04  Done DIIS. Switching to GDM
 ---------------------------------------
  Cycle       Energy        RMS Gradient
 ---------------------------------------
    1    -422.5267616068      7.02e-03   Normal BFGS step
    2    -422.5268075792      7.59e-03   Normal BFGS step
    3    -422.5286681526      7.35e-04   Normal BFGS step
    4    -422.5286847726      4.84e-04   Normal BFGS step
    5    -422.5286921249      2.54e-04   Normal BFGS step
    6    -422.5286924622      7.40e-05   Normal BFGS step
    7    -422.5286925764      5.36e-05   Normal BFGS step
    8    -422.5286925982      3.74e-05   Normal BFGS step
    9    -422.5286926051      1.03e-05   Normal BFGS step
   10    -422.5286926064      7.17e-06   Normal BFGS step
   11    -422.5286926067      2.26e-06   Normal BFGS step
   12    -422.5286926068      1.35e-06   Normal BFGS step
   13    -422.5286926069      4.15e-07   Normal BFGS step
   14    -422.5286926069      2.63e-07   Normal BFGS step
   15    -422.5286926068      9.69e-08  Convergence criterion met
 ---------------------------------------
 SCF time:   CPU 2318.86s  wall 88.00s 
<S^2> =          0.792056668
(3)  G-ENP(liq) elect-nuc-pol free energy of system     -422.528692607 a.u.
(4)  G-CDS(liq) cavity-dispersion-solvent structure 
     free energy                                                3.5703 kcal/mol
(6)  G-S(liq) free energy of system                     -422.523002920 a.u.
 SCF   energy in the final basis set =     -422.5230029198
 Total energy in the final basis set =     -422.5230029198
 
 --------------------------------------------------------------
 
                    Orbital Energies (a.u.)
 --------------------------------------------------------------
 
 Alpha MOs
 -- Occupied --
-19.3378 -19.3363 -10.3976 -10.3846 -10.3551 -10.3487 -10.3481 -10.3480
-10.3427  -1.1525  -1.1512  -0.9787  -0.8933  -0.8636  -0.7973  -0.7424
 -0.7040  -0.6359  -0.6218  -0.6066  -0.5752  -0.5662  -0.5395  -0.5325
 -0.5241  -0.5003  -0.4677  -0.4526  -0.4485  -0.4233  -0.4014  -0.3848
 -0.3579  -0.2786
 -- Virtual --
  0.0238   0.0354   0.0370   0.0439   0.0546   0.0568   0.0620   0.0692
  0.0832   0.0860   0.0966   0.1092   0.1188   0.1292   0.1307   0.1415
  0.1483   0.1520   0.1563   0.1583   0.1613   0.1646   0.1709   0.1731
  0.1776   0.1857   0.1908   0.1964   0.2025   0.2060   0.2144   0.2187
  0.2245   0.2287   0.2401   0.2503   0.2549   0.2628   0.2708   0.2818
  0.2952   0.3020   0.3117   0.3156   0.3207   0.3276   0.3395   0.3483
  0.3492   0.3522   0.3561   0.3628   0.3741   0.3793   0.3836   0.3954
  0.4014   0.4147   0.4258   0.4343   0.4494   0.4646   0.4744   0.5266
  0.5315   0.5428   0.5779   0.5812   0.5918   0.5957   0.6041   0.6089
  0.6151   0.6267   0.6339   0.6367   0.6479   0.6516   0.6745   0.6754
  0.6894   0.6917   0.7030   0.7231   0.7246   0.7334   0.7365   0.7489
  0.7540   0.7628   0.7661   0.7771   0.7930   0.7988   0.8143   0.8263
  0.8303   0.8371   0.8525   0.8710   0.8760   0.8858   0.8958   0.9061
  0.9294   0.9472   0.9734   1.0059   1.0218   1.0313   1.0476   1.0729
  1.0874   1.0928   1.1101   1.1319   1.1392   1.1545   1.1718   1.1814
  1.1868   1.2165   1.2279   1.2335   1.2371   1.2427   1.2567   1.2714
  1.2770   1.2935   1.3058   1.3129   1.3289   1.3441   1.3609   1.3731
  1.3863   1.3953   1.4133   1.4208   1.4244   1.4404   1.4526   1.4563
  1.4621   1.5060   1.5102   1.5307   1.5398   1.5447   1.5589   1.5592
  1.5731   1.5961   1.6163   1.6198   1.6558   1.6573   1.7024   1.7245
  1.7264   1.7536   1.7927   1.8162   1.8291   1.8716   1.8880   1.9178
  1.9274   1.9861   2.0396   2.0494   2.0787   2.1182   2.1347   2.1898
  2.2210   2.2591   2.3072   2.3485   2.3602   2.4147   2.5527   2.6033
  2.6213   2.6540   2.6843   2.6975   2.7284   2.7301   2.7828   2.8072
  2.8188   2.8283   2.8323   2.8460   2.8584   2.8771   2.8939   2.9082
  2.9292   2.9350   2.9386   2.9519   2.9790   2.9825   2.9979   3.0200
  3.0410   3.0454   3.0755   3.0834   3.1181   3.1412   3.1460   3.1736
  3.2002   3.2040   3.2490   3.2590   3.2621   3.2771   3.2863   3.3134
  3.3175   3.3346   3.3437   3.3598   3.3700   3.3998   3.4137   3.4342
  3.4373   3.4543   3.4612   3.4806   3.5033   3.5237   3.5293   3.5378
  3.5463   3.5731   3.5989   3.6108   3.6503   3.6585   3.6679   3.6856
  3.7222   3.7260   3.7435   3.7501   3.7724   3.7901   3.7978   3.8320
  3.8417   3.8528   3.8714   3.8780   3.9012   3.9125   3.9273   3.9566
  3.9761   3.9834   3.9991   4.0056   4.0331   4.1023   4.1081   4.1418
  4.1482   4.1648   4.1815   4.1936   4.2152   4.2521   4.2646   4.2750
  4.3014   4.3132   4.3177   4.3355   4.3496   4.3617   4.3818   4.4041
  4.4134   4.4395   4.4490   4.4840   4.4997   4.5263   4.5569   4.5660
  4.6024   4.6398   4.6461   4.6516   4.6993   4.7301   4.7518   4.7882
  4.8570   4.8913   4.9356   5.0117   5.0799   5.1231   5.1702   5.2293
  5.2611   5.2916   5.3121   5.3221   5.3362   5.3617   5.3726   5.4436
  5.4775   5.4839   5.5182   5.5937   5.6030   5.6283   5.6632   5.6808
  5.7041   5.7168   5.7673   5.8265   5.8787   5.9075   5.9273   5.9712
  6.0237   6.1131   6.3510   6.5095   6.5958   7.0999   7.1128   7.3086
  7.3184   7.3253   7.3311   7.3579   7.3637   7.6371   7.6519   7.7848
  7.8024  24.2652  24.6134  24.7813  24.8073  24.8887  25.1085  25.3723
 50.5925  50.6117
 
 Beta MOs
 -- Occupied --
-19.3365 -19.3353 -10.3983 -10.3845 -10.3509 -10.3478 -10.3452 -10.3430
-10.3427  -1.1525  -1.1463  -0.9722  -0.8901  -0.8537  -0.7927  -0.7344
 -0.6999  -0.6329  -0.6168  -0.6029  -0.5703  -0.5623  -0.5373  -0.5304
 -0.5204  -0.4929  -0.4631  -0.4502  -0.4229  -0.4199  -0.3994  -0.3823
 -0.3407
 -- Virtual --
 -0.0319   0.0232   0.0350   0.0372   0.0432   0.0549   0.0573   0.0673
  0.0825   0.0831   0.0856   0.0955   0.1078   0.1243   0.1294   0.1328
  0.1410   0.1474   0.1525   0.1560   0.1578   0.1612   0.1647   0.1731
  0.1750   0.1782   0.1873   0.1912   0.1951   0.2013   0.2061   0.2146
  0.2200   0.2259   0.2300   0.2393   0.2495   0.2550   0.2630   0.2697
  0.2819   0.2961   0.3036   0.3137   0.3162   0.3214   0.3300   0.3418
  0.3490   0.3529   0.3552   0.3572   0.3639   0.3755   0.3809   0.3847
  0.3967   0.4045   0.4163   0.4254   0.4368   0.4510   0.4656   0.4740
  0.5278   0.5336   0.5443   0.5817   0.5854   0.5941   0.6018   0.6084
  0.6105   0.6173   0.6305   0.6372   0.6430   0.6520   0.6568   0.6765
  0.6783   0.6900   0.6981   0.7057   0.7247   0.7281   0.7356   0.7411
  0.7523   0.7567   0.7644   0.7693   0.7806   0.7983   0.8028   0.8186
  0.8289   0.8314   0.8407   0.8578   0.8738   0.8777   0.8894   0.8992
  0.9092   0.9325   0.9503   0.9751   1.0078   1.0229   1.0321   1.0486
  1.0747   1.0883   1.0934   1.1127   1.1338   1.1411   1.1561   1.1733
  1.1829   1.1878   1.2198   1.2303   1.2357   1.2400   1.2454   1.2585
  1.2741   1.2796   1.2948   1.3076   1.3155   1.3314   1.3461   1.3638
  1.3770   1.3883   1.3987   1.4147   1.4236   1.4271   1.4465   1.4549
  1.4594   1.4659   1.5118   1.5143   1.5332   1.5413   1.5474   1.5611
  1.5618   1.5785   1.5996   1.6175   1.6225   1.6582   1.6626   1.7062
  1.7297   1.7321   1.7596   1.7972   1.8259   1.8325   1.8743   1.8923
  1.9244   1.9319   1.9890   2.0438   2.0531   2.0832   2.1196   2.1394
  2.1915   2.2260   2.2618   2.3096   2.3497   2.3607   2.4171   2.5583
  2.6096   2.6267   2.6589   2.6936   2.7076   2.7362   2.7388   2.7927
  2.8197   2.8293   2.8354   2.8453   2.8615   2.8710   2.8920   2.9028
  2.9223   2.9381   2.9499   2.9527   2.9638   2.9881   2.9968   3.0114
  3.0320   3.0496   3.0634   3.0909   3.0972   3.1305   3.1481   3.1510
  3.1768   3.2099   3.2122   3.2574   3.2695   3.2726   3.2844   3.2982
  3.3213   3.3260   3.3438   3.3490   3.3657   3.3832   3.4103   3.4261
  3.4436   3.4507   3.4658   3.4729   3.4934   3.5113   3.5343   3.5382
  3.5502   3.5544   3.5802   3.6107   3.6310   3.6590   3.6696   3.6785
  3.6907   3.7312   3.7385   3.7477   3.7588   3.7785   3.7939   3.8051
  3.8368   3.8510   3.8602   3.8786   3.8866   3.9100   3.9205   3.9322
  3.9651   3.9826   3.9921   4.0095   4.0135   4.0439   4.1086   4.1190
  4.1478   4.1543   4.1741   4.1867   4.2018   4.2204   4.2599   4.2724
  4.2846   4.3056   4.3237   4.3279   4.3405   4.3557   4.3699   4.3889
  4.4104   4.4195   4.4477   4.4560   4.4937   4.5114   4.5356   4.5677
  4.5768   4.6132   4.6505   4.6542   4.6644   4.7060   4.7390   4.7616
  4.7976   4.8689   4.9062   4.9496   5.0250   5.0947   5.1360   5.1808
  5.2409   5.2671   5.2921   5.3133   5.3234   5.3414   5.3669   5.3808
  5.4514   5.4791   5.4888   5.5273   5.5973   5.6080   5.6393   5.6701
  5.6819   5.7093   5.7176   5.7783   5.8441   5.8923   5.9165   5.9324
  5.9778   6.0245   6.1266   6.3624   6.5166   6.5953   7.0997   7.1167
  7.3085   7.3232   7.3251   7.3376   7.3576   7.3716   7.6376   7.6561
  7.7845   7.8108  24.2671  24.6154  24.7814  24.8073  24.8945  25.1099
 25.3747  50.5923  50.6138
 --------------------------------------------------------------
 
          Ground-State Mulliken Net Atomic Charges

     Atom                 Charge (a.u.)    Spin (a.u.)
  --------------------------------------------------------
      1 C                    -0.275364       0.413090
      2 C                    -0.430842      -0.018275
      3 C                    -0.183555       0.356492
      4 C                    -0.296378      -0.143040
      5 C                    -0.528987       0.511600
      6 C                     0.549157      -0.171892
      7 C                    -0.496926       0.010791
      8 H                     0.296179      -0.007572
      9 H                     0.218531       0.019601
     10 H                     0.305408      -0.007524
     11 H                     0.293569       0.005472
     12 H                     0.295209      -0.009256
     13 H                     0.200127      -0.000198
     14 O                    -0.397877      -0.003005
     15 H                     0.205434      -0.002764
     16 H                     0.327496       0.000820
     17 O                    -0.410163       0.042524
     18 H                     0.328982       0.003134
  --------------------------------------------------------
  Sum of atomic charges =     0.000000
  Sum of spin   charges =     1.000000

 -----------------------------------------------------------------
                    Cartesian Multipole Moments
 -----------------------------------------------------------------
    Charge (ESU x 10^10)
                 0.0000
    Dipole Moment (Debye)
         X      -1.9838      Y       1.0024      Z       0.0818
       Tot       2.2242
    Quadrupole Moments (Debye-Ang)
        XX     -51.4384     XY       0.5984     YY     -62.3501
        XZ       5.1267     YZ       3.2606     ZZ     -46.1241
    Octopole Moments (Debye-Ang^2)
       XXX     151.2640    XXY      12.6673    XYY      33.6690
       YYY     112.9588    XXZ     -13.1414    XYZ       7.8937
       YYZ      -9.9303    XZZ      45.2710    YZZ      23.5750
       ZZZ     -30.0329
    Hexadecapole Moments (Debye-Ang^3)
      XXXX    -720.4224   XXXY    -152.6037   XXYY    -211.1870
      XYYY    -150.7215   YYYY    -815.2173   XXXZ      66.6819
      XXYZ      62.9230   XYYZ       6.0369   YYYZ     224.3324
      XXZZ    -193.2020   XYZZ     -57.1056   YYZZ    -227.5816
      XZZZ      35.2106   YZZZ     196.0307   ZZZZ    -477.3432
 -----------------------------------------------------------------
 Calculating analytic gradient of the SCF energy
 Gradient of CDS energy
            1           2           3           4           5           6
    1  -0.0000819   0.0002216  -0.0001248  -0.0003383  -0.0001369   0.0003073
    2   0.0002621  -0.0001414  -0.0003084  -0.0003107   0.0001845  -0.0001326
    3   0.0001291   0.0001778   0.0003016  -0.0001208  -0.0002965  -0.0000318
            7           8           9          10          11          12
    1  -0.0002771   0.0000982   0.0000178  -0.0000712  -0.0001527  -0.0000471
    2   0.0010748   0.0001470   0.0000030  -0.0001508  -0.0001188   0.0000850
    3  -0.0003714   0.0000381   0.0002149   0.0001115  -0.0000784  -0.0001634
           13          14          15          16          17          18
    1  -0.0000986  -0.0001161   0.0001834   0.0003750  -0.0002581   0.0004993
    2  -0.0002219  -0.0000803  -0.0000492  -0.0002196   0.0000912  -0.0001137
    3  -0.0000914   0.0002250   0.0002508  -0.0003138  -0.0000329   0.0000516
 Gradient of SCF Energy
            1           2           3           4           5           6
    1  -0.0069405   0.0031544  -0.0027491   0.0060314   0.0009250   0.0014545
    2   0.0006437  -0.0044780   0.0071218  -0.0005185  -0.0010994  -0.0013889
    3  -0.0021949  -0.0072397   0.0003060   0.0055154   0.0040236   0.0030350
            7           8           9          10          11          12
    1   0.0045708   0.0036564   0.0013679  -0.0029511  -0.0030343  -0.0031896
    2  -0.0057370   0.0042676   0.0004075  -0.0007721  -0.0034445   0.0021657
    3   0.0017846   0.0045009   0.0050520   0.0026333  -0.0030488  -0.0085349
           13          14          15          16          17          18
    1  -0.0040514   0.0061401  -0.0016972  -0.0035407  -0.0053036   0.0061570
    2   0.0000050   0.0085825   0.0029656  -0.0079866  -0.0079331   0.0071988
    3  -0.0052360   0.0068759   0.0028199  -0.0070419  -0.0057506   0.0025003
 Max gradient component =       8.582E-03
 RMS gradient           =       4.578E-03
 Computing fast CPCM-SWIG gradient
 Updating gradient with PCM contributions...
 -- total gradient after adding PCM contribution --
---------------------------------------------------
  Atom         X              Y              Z     
---------------------------------------------------
   1      -0.000804       0.000199       0.000618
   2       0.000945      -0.000336       0.000278
   3      -0.000334       0.000462       0.000426
   4       0.000108      -0.000069      -0.000042
   5      -0.000075       0.000136       0.000153
   6      -0.000390       0.000326       0.000597
   7       0.000092      -0.000300       0.000077
   8      -0.000671       0.000245       0.000589
   9       0.001002      -0.000863      -0.000008
  10      -0.001237       0.000839       0.000591
  11       0.000858      -0.000823      -0.000859
  12      -0.000085       0.000058      -0.000027
  13       0.000320      -0.000365      -0.000274
  14       0.000284      -0.000741       0.000588
  15       0.000120      -0.000184      -0.000034
  16       0.000241      -0.000187      -0.000101
  17       0.000009       0.001863      -0.001178
  18      -0.000382      -0.000261      -0.001395
---------------------------------------------------
 Number of fixed atoms: 0
 Gradient time:  CPU 364.52 s  wall 16.96 s
rPathMan2.  file_steps = 952
 IRC --- Status = 4.  Checking bisector search.
 IRC --- Bisector search finished successfully.
 ------------------------------------------------------------------------
 Reaction path following.  The coordinates are cartesian              
 Step  10 E=    -422.523003 |G|=  0.004388 S_lin= 0.9039 S_tot= 1.0034
 ------------------------------------------------------------------------
  IRC -- convergence criterion reached.
 ----------------------------------------------------------------
             Standard Nuclear Orientation (Angstroms)
    I     Atom           X                Y                Z
 ----------------------------------------------------------------
    1      C      -0.6411881012    -0.0101075728     1.0489514734
    2      C      -1.0346597111    -1.1547508318     1.7693899992
    3      C      -2.0250633091    -2.0050314638     1.2265041788
    4      C      -2.5115185535    -1.7682552935    -0.0369448441
    5      C      -2.0541500683    -0.6666930911    -0.7675822904
    6      C      -1.1273663425     0.2216207777    -0.2275274805
    7      C      -0.6336544767     1.3980170794    -1.0250442952
    8      H       0.0654821727     0.6795736414     1.4933973518
    9      H      -0.7783221983    -1.2379061542     2.8145913205
   10      H      -2.3745554803    -2.8488206263     1.8047655931
   11      H      -3.2533955969    -2.4259301596    -0.4680355845
   12      H      -2.4400195712    -0.4868080569    -1.7634583434
   13      H      -1.3284308249     1.6193146241    -1.8366464549
   14      O       0.6817215639     1.1759004557    -1.5466697793
   15      H      -0.5539035092     2.2782303185    -0.3902331882
   16      H       0.6353344314     0.4320854843    -2.1573181599
   17      O       0.6280053071    -2.3135247108     1.2624109380
   18      H       1.2722244682    -1.6322959202     1.5059138657
 ----------------------------------------------------------------
 Nuclear Repulsion Energy =         429.22850145 hartrees
 There are       34 alpha and       33 beta electrons
 Here is where we should summarize the reaction path
 Total job time:  5286.57s(wall), 135659.76s(cpu) 
 Wed Nov  1 20:28:43 2023

        *************************************************************
        *                                                           *
        *  Thank you very much for using Q-Chem.  Have a nice day.  *
        *                                                           *
        *************************************************************


