
Running Job 1 of 2 Q_in.in
qchem Q_in.in_92089.0 /scratch/ari.fischer/qChem1824906.hpc-mn1/qchem92089/ 0
/usr/local/qchem-5.4.1/exe/qcprog.exe_s Q_in.in_92089.0 /scratch/ari.fischer/qChem1824906.hpc-mn1/qchem92089/
                  Welcome to Q-Chem
     A Quantum Leap Into The Future Of Chemistry


 Q-Chem 5.4, Q-Chem, Inc., Pleasanton, CA (2021)

 License issued to: Nanyang Technological University (site)

 E. Epifanovsky,  A. T. B. Gilbert,  Xintian Feng,  Joonho Lee,  Yuezhi Mao,  
 N. Mardirossian,  P. Pokhilko,  A. White,  M. Wormit,  M. P. Coons,  
 A. L. Dempwolff,  Zhengting Gan,  D. Hait,  P. R. Horn,  L. D. Jacobson,  
 I. Kaliman,  J. Kussmann,  A. W. Lange,  Ka Un Lao,  D. S. Levine,  Jie Liu,  
 S. C. McKenzie,  A. F. Morrison,  K. Nanda,  F. Plasser,  D. R. Rehn,  
 M. L. Vidal,  Zhi-Qiang You,  Ying Zhu,  B. Alam,  B. Albrecht,  
 A. Aldossary,  E. Alguire,  J. H. Andersen,  D. Barton,  K. Begam,  A. Behn,  
 Y. A. Bernard,  E. J. Berquist,  H. Burton,  A. Carreras,  K. Carter-Fenk,  
 R. Chakraborty,  A. D. Chien,  K. D. Closser,  V. Cofer-Shabica,  
 S. Dasgupta,  Jia Deng,  M. de Wergifosse,  M. Diedenhofen,  Hainam Do,  
 S. Ehlert,  Po-Tung Fang,  S. Fatehi,  Qingguo Feng,  T. Friedhoff,  
 J. Gayvert,  Qinghui Ge,  G. Gidofalvi,  M. Goldey,  J. Gomes,  
 C. Gonzalez-Espinoza,  S. Gulania,  A. Gunina,  M. W. D. Hanson-Heine,  
 P. H. P. Harbach,  A. W. Hauser,  M. F. Herbst,  M. Hernandez Vera,  
 M. Hodecker,  Z. C. Holden,  S. Houck,  Xunkun Huang,  Kerwin Hui,  
 B. C. Huynh,  M. Ivanov,  Hyunjun Ji,  Hanjie Jiang,  B. Kaduk,  S. Kaehler,  
 K. Khistyaev,  Jaehoon Kim,  P. Klunzinger,  Z. Koczor-Benda,  
 Joong Hoon Koh,  D. Kosenkov,  L. Koulias,  T. Kowalczyk,  C. M. Krauter,  
 K. Kue,  A. Kunitsa,  T. Kus,  A. Landau,  K. V. Lawler,  D. Lefrancois,  
 S. Lehtola,  Rain Li,  Yi-Pei Li,  Jiashu Liang,  M. Liebenthal,  
 Hung-Hsuan Lin,  You-Sheng Lin,  Fenglai Liu,  Kuan-Yu Liu,  
 M. Loipersberger,  A. Luenser,  A. Manjanath,  P. Manohar,  E. Mansoor,  
 S. F. Manzer,  Shan-Ping Mao,  A. V. Marenich,  T. Markovich,  S. Mason,  
 S. A. Maurer,  P. F. McLaughlin,  M. F. S. J. Menger,  J.-M. Mewes,  
 S. A. Mewes,  P. Morgante,  J. W. Mullinax,  K. J. Oosterbaan,  G. Paran,  
 Alexander C. Paul,  Suranjan K. Paul,  F. Pavosevic,  Zheng Pei,  S. Prager,  
 E. I. Proynov,  E. Ramos,  B. Rana,  A. E. Rask,  A. Rettig,  R. M. Richard,  
 F. Rob,  E. Rossomme,  T. Scheele,  M. Scheurer,  M. Schneider,  
 N. Sergueev,  S. M. Sharada,  W. Skomorowski,  D. W. Small,  C. J. Stein,  
 Yu-Chuan Su,  E. J. Sundstrom,  Zhen Tao,  J. Thirman,  T. Tsuchimochi,  
 N. M. Tubman,  S. P. Veccham,  O. Vydrov,  J. Wenzel,  J. Witte,  A. Yamada,  
 Kun Yao,  S. Yeganeh,  S. R. Yost,  A. Zech,  Igor Ying Zhang,  Xing Zhang,  
 Yu Zhang,  D. Zuev,  A. Aspuru-Guzik,  A. T. Bell,  N. A. Besley,  
 K. B. Bravaya,  B. R. Brooks,  D. Casanova,  Jeng-Da Chai,  S. Coriani,  
 C. J. Cramer,  A. E. DePrince, III,  R. A. DiStasio Jr.,  A. Dreuw,  
 B. D. Dunietz,  T. R. Furlani,  W. A. Goddard III,  S. Grimme,  
 S. Hammes-Schiffer,  T. Head-Gordon,  W. J. Hehre,  Chao-Ping Hsu,  
 T.-C. Jagau,  Yousung Jung,  A. Klamt,  Jing Kong,  D. S. Lambrecht,  
 WanZhen Liang,  N. J. Mayhall,  C. W. McCurdy,  J. B. Neaton,  
 C. Ochsenfeld,  J. A. Parkhill,  R. Peverati,  V. A. Rassolov,  Yihan Shao,  
 L. V. Slipchenko,  T. Stauch,  R. P. Steele,  J. E. Subotnik,  
 A. J. W. Thom,  A. Tkatchenko,  D. G. Truhlar,  T. Van Voorhis,  
 T. A. Wesolowski,  K. B. Whaley,  H. L. Woodcock III,  P. M. Zimmerman,  
 S. Faraji,  P. M. W. Gill,  M. Head-Gordon,  J. M. Herbert,  A. I. Krylov

 Additional authors for Version 5.4.1: 
 S. Kotaru,  Shaozhi Li,  Xiangyuan Li,  F. Matz,  A. Molle,  Haisheng Ren,  
 Yingli Su,  Hung-Yi Tsai,  C. Utku,  Fang Wang

 Contributors to earlier versions of Q-Chem not listed above: 
 R. D. Adamson,  B. Austin,  R. Baer,  J. Baker,  G. J. O. Beran,  
 K. Brandhorst,  S. T. Brown,  E. F. C. Byrd,  A. K. Chakraborty,  
 G. K. L. Chan,  Chun-Min Chang,  Yunqing Chen,  C.-L. Cheng,  
 Siu Hung Chien,  D. M. Chipman,  D. L. Crittenden,  H. Dachsel,  
 R. J. Doerksen,  A. D. Dutoi,  R. G. Edgar,  J. Fosso-Tande,  
 L. Fusti-Molnar,  D. Ghosh,  A. Ghysels,  A. Golubeva-Zadorozhnaya,  
 J. Gonthier,  M. S. Gordon,  S. R. Gwaltney,  G. Hawkins,  J. E. Herr,  
 A. Heyden,  S. Hirata,  E. G. Hohenstein,  G. Kedziora,  F. J. Keil,  
 C. Kelley,  Jihan Kim,  R. A. King,  R. Z. Khaliullin,  P. P. Korambath,  
 W. Kurlancheek,  A. Laurent,  A. M. Lee,  M. S. Lee,  S. V. Levchenko,  
 Ching Yeh Lin,  D. Liotard,  E. Livshits,  R. C. Lochan,  I. Lotan,  
 L. A. Martinez-Martinez,  P. E. Maslen,  N. Nair,  D. P. O'Neill,  
 D. Neuhauser,  E. Neuscamman,  C. M. Oana,  R. Olivares-Amaya,  R. Olson,  
 T. M. Perrine,  B. Peters,  P. A. Pieniazek,  A. Prociuk,  Y. M. Rhee,  
 J. Ritchie,  M. A. Rohrdanz,  E. Rosta,  N. J. Russ,  H. F. Schaefer III,  
 M. W. Schmidt,  N. E. Schultz,  S. Sharma,  N. Shenvi,  C. D. Sherrill,  
 A. C. Simmonett,  A. Sodt,  T. Stein,  D. Stuck,  K. S. Thanthiriwatte,  
 V. Vanovschi,  L. Vogt,  Tao Wang,  A. Warshel,  M. A. Watson,  
 C. F. Williams,  Q. Wu,  X. Xu,  Jun Yang,  W. Zhang,  Yan Zhao

 Please cite Q-Chem as follows:
 Y. Shao et al., Mol. Phys. 113, 184-215 (2015)
 DOI: 10.1080/00268976.2014.952696

 Q-Chem 5.4.1 for Intel X86 EM64T Linux

 Parts of Q-Chem use Armadillo 9.800.1 (Horizon Scraper).
 http://arma.sourceforge.net/

 Q-Chem begins on Wed Oct 25 22:19:34 2023  

 Host: 
0

     Scratch files written to /scratch/ari.fischer/qChem1824906.hpc-mn1/qchem92089//
 Aug1521 |scratch|qcdevops|jenkins|workspace|build_RNUM 8249   
 Processing $rem in /usr/local/qchem-5.4.1/config/preferences:
 Processing $rem in /home/ari.fischer/.qchemrc:
 Symmetry turned off for PCM/SM12/SMD calculation


!!********************************************.
!!******************Warning*******************.
!!Desired Analytical derivatives not available.
!!Finite difference job might take a long time.
!!********************************************.
!!********************************************.


 2-order derivative to be evaluated numerically with 1-order analytical derivatives

 Checking the input file for inconsistencies... 	...done.

--------------------------------------------------------------
User input:
--------------------------------------------------------------
$molecule
0 2
C   -0.5326998    0.0025343    1.0230089
C   -0.9680984   -1.1061387    1.7802259
C   -1.8563514   -2.0070855    1.2371255
C   -2.3613366   -1.7976328   -0.0475639
C   -1.9848859   -0.6759702   -0.7817256
C   -1.0941961    0.2408942   -0.2544840
C   -0.6553643    1.4407344   -1.0471338
H    0.0088052    0.7990370    1.5126621
H   -0.6832735   -1.1059187    2.9281627
H   -2.1743327   -2.8689676    1.8069610
H   -3.0620138   -2.5040953   -0.4709462
H   -2.4004170   -0.5102611   -1.7676879
H   -1.3991399    1.6865072   -1.8048774
O    0.6226437    1.2217846   -1.6668667
H   -0.5244144    2.3000985   -0.3928305
H    0.5012626    0.5717335   -2.3685593
O    0.1766120   -2.2532039    1.1952170
H    0.9137405   -2.1794314    1.8257765
$end

$rem
BASIS = 6-311++G(2df,2p)
GUI = 2
JOB_TYPE = Frequency
METHOD = wB97M-V
SCF_ALGORITHM = DIIS_GDM
MAX_SCF_CYCLES = 400
SCF_CONVERGENCE = 6
THRESH = 11
SYMMETRY_IGNORE = 1
solvent_method = SMD
$end

--------------------------------------------------------------
 ----------------------------------------------------------------
             Standard Nuclear Orientation (Angstroms)
    I     Atom           X                Y                Z
 ----------------------------------------------------------------
    1      C      -0.5326998000     0.0025343000     1.0230089000
    2      C      -0.9680984000    -1.1061387000     1.7802259000
    3      C      -1.8563514000    -2.0070855000     1.2371255000
    4      C      -2.3613366000    -1.7976328000    -0.0475639000
    5      C      -1.9848859000    -0.6759702000    -0.7817256000
    6      C      -1.0941961000     0.2408942000    -0.2544840000
    7      C      -0.6553643000     1.4407344000    -1.0471338000
    8      H       0.0088052000     0.7990370000     1.5126621000
    9      H      -0.6832735000    -1.1059187000     2.9281627000
   10      H      -2.1743327000    -2.8689676000     1.8069610000
   11      H      -3.0620138000    -2.5040953000    -0.4709462000
   12      H      -2.4004170000    -0.5102611000    -1.7676879000
   13      H      -1.3991399000     1.6865072000    -1.8048774000
   14      O       0.6226437000     1.2217846000    -1.6668667000
   15      H      -0.5244144000     2.3000985000    -0.3928305000
   16      H       0.5012626000     0.5717335000    -2.3685593000
   17      O       0.1766120000    -2.2532039000     1.1952170000
   18      H       0.9137405000    -2.1794314000     1.8257765000
 ----------------------------------------------------------------
 Nuclear Repulsion Energy =         438.87963553 hartrees
 There are       34 alpha and       33 beta electrons
 Requested basis set is 6-311++G(2df,2p)
 There are 126 shells and 396 basis functions

 Total QAlloc Memory Limit 288000 MB
 Mega-Array Size       188 MB
 MEM_STATIC part       192 MB
 
 Citation of the SMD model:
 Marenich, A.V.; Cramer, C.J.; Truhlar, D.G.
 J. Phys. Chem. B 2009, 113, 6378-6396.
 iSolventCode=           1
 Solvent: water                                                           
 
 vradii
            1           2           3           4           5           6
    1   1.8500000   1.8500000   1.8500000   1.8500000   1.8500000   1.8500000
            7           8           9          10          11          12
    1   1.8500000   1.2000000   1.2000000   1.2000000   1.2000000   1.2000000
           13          14          15          16          17          18
    1   1.2000000   1.5200000   1.2000000   1.2000000   1.5200000   1.2000000
 Changing PCM_VDW_RADII to SMD_RADIUS
 Discretize the solute cavity surface with Lebedev spheres
	Using 110 Lebedev grid points for each H atom
	Using 194 Lebedev grid points for other atoms
	Atomic van der Waals radii will be scaled by 1.20
 Remove points where switching function is < 1.0e-08
 Keep 1305 surface tesserae and discard 1431 interior tesserae
 Molecular Surface Area = 155.424 Angst**2
 A cutoff of  1.0D-11 yielded   7116 shell pairs
 There are     70937 function pairs (     87909 Cartesian)
 Smallest overlap matrix eigenvalue = 9.05E-07

 Q-Chem warning in module stvman/mkSTV.C, line 323:

 Overlap eigenvalue is smaller than square root of threshold
 Use THRESH >= 12 to get rid of this warning

 Linear dependence detected in AO basis
 Tighter screening thresholds may be required for diffuse basis sets
 Use S2THRESH > 14 and THRESH = 14 in case of SCF convergence issues
 Number of orthogonalized atomic orbitals = 395
 Maximum deviation from orthogonality = 5.618E-11
 Guess from superposition of atomic densities
 Warning:  Energy on first SCF cycle will be non-variational
 SAD guess density has 67.000000 electrons

 -----------------------------------------------------------------------
  General SCF calculation program by
  Eric Jon Sundstrom, Paul Horn, Yuezhi Mao, Dmitri Zuev, Alec White,
  David Stuck, Shaama M.S., Shane Yost, Joonho Lee, David Small,
  Daniel Levine, Susi Lehtola, Hugh Burton, Evgeny Epifanovsky,
  Bang C. Huynh
 -----------------------------------------------------------------------
 Exchange:     0.1500 Hartree-Fock + 1.0000 wB97M-V + LR-HF
 Correlation:  1.0000 wB97M-V
 Using SG-2 standard quadrature grid
 Nonlocal Correlation:  VV10 with C = 0.0100 and b = 6.00 and scale = 1.00000
 Grid used for NLC:  SG-1 standard quadrature
 using 32 threads for integral computing
 -------------------------------------------------------
 OpenMP Integral computing Module                
 Release: version 1.0, May 2013, Q-Chem Inc. Pittsburgh 
 -------------------------------------------------------
 
 Citation of the SMD model:
 Marenich, A.V.; Cramer, C.J.; Truhlar, D.G.
 J. Phys. Chem. B 2009, 113, 6378-6396.
 iSolventCode=           1
 Solvent: water                                                           
 
 vradii
            1           2           3           4           5           6
    1   1.8500000   1.8500000   1.8500000   1.8500000   1.8500000   1.8500000
            7           8           9          10          11          12
    1   1.8500000   1.2000000   1.2000000   1.2000000   1.2000000   1.2000000
           13          14          15          16          17          18
    1   1.2000000   1.5200000   1.2000000   1.2000000   1.5200000   1.2000000
 -------------------------------------------------------
 OpenMP BLAS3 based DFT computing Module                
 Release: version 1.0, May 2013, Q-Chem Inc. Pittsburgh 
 -------------------------------------------------------
 A unrestricted SCF calculation will be
 performed using DIIS, GDM
 SCF converges when RMS gradient is below 1.0e-06
 ---------------------------------------
  Cycle       Energy         DIIS error
 ---------------------------------------
    1    -425.0478156973      1.27e-02  
    2    -422.3624841388      1.27e-03  Done DIIS. Switching to GDM
 ---------------------------------------
  Cycle       Energy        RMS Gradient
 ---------------------------------------
    1    -422.3624841388      6.28e-02   Descent step
    2    -422.4602543517      2.26e-02   Normal BFGS step
    3    -422.4726276849      1.65e-02   Normal BFGS step
    4    -422.4750322892      8.46e-03   Normal BFGS step
    5    -422.4756339934      5.47e-03   Normal BFGS step
    6    -422.4758632667      3.40e-03   Normal BFGS step
    7    -422.4759630126      1.37e-03   Normal BFGS step
    8    -422.4759775961      7.98e-04   Normal BFGS step
    9    -422.4759806888      5.86e-04   Normal BFGS step
   10    -422.4759820828      3.42e-04   Normal BFGS step
   11    -422.4759825233      1.52e-04   Normal BFGS step
   12    -422.4759826676      5.88e-05   Normal BFGS step
   13    -422.4759827109      3.74e-05   Normal BFGS step
   14    -422.4759827234      1.93e-05   Normal BFGS step
   15    -422.4759827262      6.61e-06   Normal BFGS step
   16    -422.4759827269      5.90e-06   Normal BFGS step
   17    -422.4759827270      3.25e-06   Normal BFGS step
   18    -422.4759827273      8.50e-07  Convergence criterion met
 ---------------------------------------
 SCF time:   CPU 2442.05s  wall 92.00s 
<S^2> =          0.795173959
(3)  G-ENP(liq) elect-nuc-pol free energy of system     -422.475982727 a.u.
(4)  G-CDS(liq) cavity-dispersion-solvent structure 
     free energy                                                3.5990 kcal/mol
(6)  G-S(liq) free energy of system                     -422.470247302 a.u.
 SCF   energy in the final basis set =     -422.4702473020
 Total energy in the final basis set =     -422.4702473020
 
 --------------------------------------------------------------
 
                    Orbital Energies (a.u.)
 --------------------------------------------------------------
 
 Alpha MOs
 -- Occupied --
-19.3360 -19.3279 -10.3973 -10.3844 -10.3609 -10.3521 -10.3503 -10.3493
-10.3389  -1.1507  -1.1178  -0.9874  -0.8975  -0.8755  -0.8018  -0.7341
 -0.7078  -0.6406  -0.6121  -0.5964  -0.5736  -0.5678  -0.5347  -0.5264
 -0.5213  -0.4883  -0.4745  -0.4449  -0.4363  -0.4318  -0.4208  -0.3900
 -0.3345  -0.2793
 -- Virtual --
  0.0236   0.0340   0.0365   0.0461   0.0548   0.0558   0.0584   0.0649
  0.0857   0.0859   0.0910   0.0969   0.1080   0.1293   0.1359   0.1425
  0.1441   0.1483   0.1513   0.1594   0.1623   0.1658   0.1665   0.1764
  0.1782   0.1802   0.1938   0.1965   0.2041   0.2128   0.2184   0.2201
  0.2301   0.2394   0.2457   0.2523   0.2553   0.2631   0.2752   0.2861
  0.2927   0.2940   0.3116   0.3201   0.3226   0.3335   0.3354   0.3420
  0.3507   0.3517   0.3547   0.3654   0.3693   0.3764   0.3809   0.4057
  0.4162   0.4270   0.4375   0.4472   0.4653   0.4731   0.5308   0.5349
  0.5477   0.5781   0.5832   0.5932   0.6000   0.6086   0.6127   0.6167
  0.6205   0.6318   0.6340   0.6438   0.6520   0.6743   0.6835   0.6940
  0.6968   0.7027   0.7185   0.7234   0.7238   0.7345   0.7386   0.7491
  0.7624   0.7658   0.7817   0.7949   0.8164   0.8292   0.8321   0.8378
  0.8426   0.8658   0.8735   0.8848   0.8925   0.9002   0.9088   0.9265
  0.9599   0.9920   0.9941   1.0247   1.0350   1.0576   1.0731   1.0844
  1.1043   1.1162   1.1276   1.1489   1.1652   1.1729   1.1771   1.1857
  1.1965   1.2110   1.2278   1.2388   1.2439   1.2681   1.2768   1.2836
  1.2964   1.3055   1.3229   1.3261   1.3417   1.3571   1.3846   1.3870
  1.3935   1.4144   1.4163   1.4314   1.4361   1.4440   1.4577   1.4673
  1.4823   1.4904   1.5102   1.5444   1.5487   1.5570   1.5685   1.5731
  1.5919   1.5984   1.6241   1.6739   1.6743   1.7202   1.7540   1.7857
  1.7971   1.8088   1.8310   1.8532   1.8782   1.9006   1.9373   1.9652
  2.0053   2.0262   2.0582   2.0863   2.0980   2.1069   2.1422   2.1531
  2.2056   2.2552   2.3415   2.3635   2.4074   2.5743   2.6105   2.6298
  2.6462   2.6739   2.7065   2.7132   2.7576   2.7686   2.7960   2.8024
  2.8229   2.8397   2.8480   2.8587   2.8735   2.8860   2.9067   2.9155
  2.9337   2.9409   2.9592   2.9717   2.9842   2.9936   3.0340   3.0523
  3.0646   3.0767   3.0787   3.1253   3.1500   3.1622   3.1660   3.1834
  3.1944   3.2290   3.2453   3.2649   3.2743   3.2848   3.2943   3.3076
  3.3165   3.3193   3.3507   3.3733   3.3846   3.4142   3.4172   3.4321
  3.4621   3.4680   3.4796   3.5108   3.5175   3.5447   3.5502   3.5632
  3.5716   3.5894   3.6159   3.6296   3.6345   3.6809   3.6992   3.7171
  3.7340   3.7445   3.7718   3.7752   3.8017   3.8102   3.8215   3.8306
  3.8427   3.8662   3.8962   3.9160   3.9195   3.9398   3.9522   3.9831
  3.9928   4.0083   4.0291   4.0445   4.0626   4.0927   4.1273   4.1486
  4.1772   4.1873   4.2033   4.2101   4.2419   4.2616   4.2815   4.3111
  4.3247   4.3483   4.3794   4.3859   4.3876   4.4074   4.4252   4.4349
  4.4609   4.4943   4.4985   4.5189   4.5462   4.5543   4.5736   4.5858
  4.6152   4.6212   4.6806   4.7143   4.7509   4.7910   4.8063   4.8652
  4.9434   5.0296   5.0757   5.1271   5.1711   5.1788   5.2091   5.2583
  5.2896   5.2934   5.3165   5.3243   5.3377   5.3455   5.4158   5.4606
  5.4658   5.4782   5.5167   5.5312   5.5913   5.6612   5.6820   5.6966
  5.7160   5.7372   5.7915   5.8318   5.8415   5.8987   5.9075   5.9387
  6.0184   6.1814   6.5648   6.5936   7.1033   7.1065   7.2116   7.2424
  7.2891   7.3082   7.3218   7.3592   7.5780   7.6335   7.7214   7.7869
 24.1983  24.7483  24.7991  24.8043  25.0018  25.0505  25.4750  50.5911
 50.6098
 
 Beta MOs
 -- Occupied --
-19.3362 -19.3176 -10.3980 -10.3843 -10.3559 -10.3516 -10.3469 -10.3455
-10.3412  -1.1512  -1.0975  -0.9806  -0.8929  -0.8690  -0.7979  -0.7280
 -0.7049  -0.6372  -0.6103  -0.5808  -0.5698  -0.5644  -0.5312  -0.5243
 -0.5158  -0.4764  -0.4624  -0.4425  -0.4313  -0.4086  -0.4056  -0.3887
 -0.3210
 -- Virtual --
 -0.0339   0.0232   0.0339   0.0368   0.0459   0.0552   0.0563   0.0656
  0.0740   0.0858   0.0874   0.0937   0.1038   0.1102   0.1300   0.1360
  0.1426   0.1451   0.1486   0.1513   0.1592   0.1620   0.1668   0.1680
  0.1764   0.1781   0.1815   0.1941   0.1963   0.2036   0.2119   0.2183
  0.2198   0.2300   0.2393   0.2453   0.2545   0.2578   0.2639   0.2746
  0.2863   0.2928   0.2952   0.3136   0.3210   0.3237   0.3342   0.3355
  0.3424   0.3516   0.3531   0.3557   0.3673   0.3696   0.3770   0.3801
  0.4061   0.4175   0.4290   0.4387   0.4484   0.4659   0.4743   0.5314
  0.5369   0.5508   0.5813   0.5862   0.5960   0.6036   0.6099   0.6163
  0.6202   0.6236   0.6346   0.6370   0.6455   0.6549   0.6761   0.6849
  0.6963   0.7008   0.7057   0.7200   0.7256   0.7265   0.7365   0.7413
  0.7506   0.7632   0.7699   0.7863   0.7974   0.8184   0.8297   0.8367
  0.8411   0.8460   0.8689   0.8760   0.8873   0.8947   0.9028   0.9125
  0.9284   0.9617   0.9951   0.9964   1.0262   1.0363   1.0588   1.0748
  1.0865   1.1059   1.1189   1.1286   1.1517   1.1670   1.1740   1.1790
  1.1904   1.1996   1.2139   1.2292   1.2399   1.2452   1.2702   1.2788
  1.2889   1.2978   1.3076   1.3247   1.3296   1.3440   1.3595   1.3885
  1.3900   1.3963   1.4169   1.4184   1.4338   1.4390   1.4478   1.4601
  1.4721   1.4853   1.4922   1.5147   1.5463   1.5521   1.5601   1.5704
  1.5779   1.5928   1.6020   1.6252   1.6772   1.6782   1.7243   1.7586
  1.7898   1.8034   1.8141   1.8372   1.8578   1.8828   1.9073   1.9418
  1.9701   2.0122   2.0286   2.0644   2.0903   2.1030   2.1123   2.1493
  2.1572   2.2071   2.2579   2.3421   2.3638   2.4125   2.5808   2.6145
  2.6360   2.6501   2.6799   2.7130   2.7215   2.7661   2.7783   2.8058
  2.8136   2.8284   2.8467   2.8540   2.8659   2.8828   2.8945   2.9140
  2.9257   2.9405   2.9472   2.9653   2.9823   2.9963   3.0033   3.0413
  3.0627   3.0711   3.0865   3.0926   3.1281   3.1542   3.1703   3.1745
  3.1858   3.2019   3.2362   3.2526   3.2727   3.2786   3.2898   3.2998
  3.3124   3.3221   3.3275   3.3621   3.3821   3.3903   3.4224   3.4270
  3.4390   3.4683   3.4777   3.4882   3.5163   3.5239   3.5503   3.5562
  3.5681   3.5816   3.5985   3.6200   3.6377   3.6451   3.6900   3.7007
  3.7234   3.7408   3.7516   3.7762   3.7842   3.8072   3.8158   3.8284
  3.8383   3.8476   3.8718   3.9025   3.9239   3.9242   3.9450   3.9581
  3.9906   3.9989   4.0173   4.0344   4.0504   4.0715   4.0992   4.1356
  4.1530   4.1830   4.1923   4.2093   4.2147   4.2436   4.2665   4.2865
  4.3140   4.3318   4.3525   4.3843   4.3899   4.3941   4.4125   4.4299
  4.4403   4.4687   4.5051   4.5101   4.5298   4.5557   4.5663   4.5823
  4.5948   4.6223   4.6284   4.6879   4.7194   4.7560   4.7996   4.8151
  4.8743   4.9528   5.0412   5.0862   5.1388   5.1854   5.1899   5.2198
  5.2672   5.2916   5.3035   5.3261   5.3309   5.3491   5.3562   5.4322
  5.4700   5.4735   5.4925   5.5276   5.5405   5.5918   5.6693   5.6824
  5.7055   5.7181   5.7514   5.7972   5.8523   5.8672   5.9049   5.9197
  5.9548   6.0191   6.1935   6.5703   6.5959   7.1031   7.1262   7.2470
  7.2705   7.3070   7.3159   7.3217   7.3588   7.6056   7.6334   7.7557
  7.7863  24.1996  24.7496  24.7992  24.8057  25.0037  25.0532  25.4774
 50.5911  50.6181
 --------------------------------------------------------------
 
          Ground-State Mulliken Net Atomic Charges

     Atom                 Charge (a.u.)    Spin (a.u.)
  --------------------------------------------------------
      1 C                    -0.223773       0.366279
      2 C                    -0.067666      -0.037034
      3 C                    -0.469031       0.346772
      4 C                    -0.408440      -0.138712
      5 C                    -0.243933       0.322296
      6 C                     0.237003      -0.146709
      7 C                    -0.468249       0.011991
      8 H                     0.283776      -0.006568
      9 H                     0.318140       0.016665
     10 H                     0.303558      -0.006104
     11 H                     0.283383       0.004423
     12 H                     0.283849      -0.006073
     13 H                     0.196290      -0.000055
     14 O                    -0.409236      -0.003312
     15 H                     0.206284      -0.002061
     16 H                     0.331958       0.000015
     17 O                    -0.470359       0.263282
     18 H                     0.316446       0.014905
  --------------------------------------------------------
  Sum of atomic charges =     0.000000
  Sum of spin   charges =     1.000000

 -----------------------------------------------------------------
                    Cartesian Multipole Moments
 -----------------------------------------------------------------
    Charge (ESU x 10^10)
                 0.0000
    Dipole Moment (Debye)
         X      -2.5521      Y       0.6255      Z       1.5246
       Tot       3.0380
    Quadrupole Moments (Debye-Ang)
        XX     -53.0543     XY      -0.0127     YY     -59.4369
        XZ       5.3184     YZ      -0.6882     ZZ     -40.1052
    Octopole Moments (Debye-Ang^2)
       XXX     153.6611    XXY      13.3676    XYY      36.8158
       YYY     101.0086    XXZ     -11.3263    XYZ       5.2272
       YYZ       1.6883    XZZ      45.3915    YZZ      12.7816
       ZZZ     -16.3717
    Hexadecapole Moments (Debye-Ang^3)
      XXXX    -689.0313   XXXY    -153.2499   XXYY    -201.0239
      XYYY    -151.5029   YYYY    -802.3621   XXXZ      68.1823
      XXYZ      59.1600   XYYZ      18.7987   YYYZ     199.3585
      XXZZ    -187.2313   XYZZ     -62.3006   YYZZ    -207.7122
      XZZZ      45.9444   YZZZ     164.2557   ZZZZ    -444.2253
 -----------------------------------------------------------------
 Calculating analytic gradient of the SCF energy
 Gradient of CDS energy
            1           2           3           4           5           6
    1   0.0001310  -0.0000594  -0.0000552  -0.0002827  -0.0001509   0.0002844
    2   0.0002052  -0.0000552  -0.0002328  -0.0003350   0.0001930  -0.0001618
    3   0.0000763   0.0001146   0.0002684  -0.0001415  -0.0002409  -0.0000880
            7           8           9          10          11          12
    1  -0.0002745   0.0000682   0.0000704  -0.0000331  -0.0001335  -0.0000617
    2   0.0011132   0.0001543   0.0000169  -0.0001787  -0.0001347   0.0000746
    3  -0.0002380   0.0000732   0.0002984   0.0001150  -0.0000807  -0.0001643
           13          14          15          16          17          18
    1  -0.0000843  -0.0001068   0.0001876   0.0003234  -0.0002612   0.0004384
    2  -0.0002429  -0.0001157  -0.0000632  -0.0001718   0.0001681  -0.0002335
    3  -0.0001310   0.0002158   0.0002359  -0.0003820  -0.0000526   0.0001213
 Gradient of SCF Energy
            1           2           3           4           5           6
    1   0.0355063  -0.0815426   0.0833929   0.0046180   0.0063970  -0.0269133
    2  -0.0445295   0.0085422   0.0170256   0.0121510   0.0013774  -0.0050879
    3   0.0221927  -0.0638909   0.0271847  -0.0192096   0.0142652  -0.0265234
            7           8           9          10          11          12
    1   0.0024436  -0.0053019   0.0243176  -0.0033264  -0.0038466  -0.0021334
    2  -0.0011706   0.0064217   0.0001757  -0.0034934  -0.0008899   0.0015973
    3   0.0003542   0.0051824   0.0580574   0.0029396  -0.0021931  -0.0071338
           13          14          15          16          17          18
    1  -0.0036179   0.0086557  -0.0021050  -0.0053493  -0.0373703   0.0061756
    2   0.0000090   0.0053946   0.0021697  -0.0057844   0.0032349   0.0028567
    3  -0.0044180   0.0082665   0.0031289  -0.0083734  -0.0195071   0.0096776
 Max gradient component =       8.339E-02
 RMS gradient           =       2.405E-02
 Computing fast CPCM-SWIG gradient
 Updating gradient with PCM contributions...
 -- total gradient after adding PCM contribution --
---------------------------------------------------
  Atom         X              Y              Z     
---------------------------------------------------
   1       0.036602      -0.043381       0.027277
   2      -0.074681       0.005088      -0.056985
   3       0.085607       0.015669       0.032929
   4      -0.000628       0.010874      -0.021779
   5       0.004192       0.003809       0.006197
   6      -0.025370      -0.004259      -0.028139
   7      -0.002277       0.002198      -0.000755
   8      -0.007476       0.002647       0.001715
   9       0.020505      -0.000130       0.047930
  10      -0.001252      -0.001194      -0.000002
  11      -0.001228       0.001165      -0.000556
  12       0.000599      -0.000182       0.000033
  13       0.000556      -0.000515       0.000202
  14       0.001066      -0.001175       0.001390
  15      -0.000188      -0.000195       0.000335
  16      -0.000104      -0.000113      -0.001166
  17      -0.038139       0.009936      -0.010011
  18       0.002215      -0.000243       0.001383
---------------------------------------------------
 Number of fixed atoms: 0
 Gradient time:  CPU 326.38 s  wall 16.16 s
 ######################################################
 ######################################################
 # Starting finite difference calculation for IDERIV  #
 Finite diff step size:  1.88973e-03 a.u.
 ----------------------------------------------------------------
             Standard Nuclear Orientation (Angstroms)
    I     Atom           X                Y                Z
 ----------------------------------------------------------------
    1      C      -0.5316998000     0.0025343000     1.0230089000
    2      C      -0.9680984000    -1.1061387000     1.7802259000
    3      C      -1.8563514000    -2.0070855000     1.2371255000
    4      C      -2.3613366000    -1.7976328000    -0.0475639000
    5      C      -1.9848859000    -0.6759702000    -0.7817256000
    6      C      -1.0941961000     0.2408942000    -0.2544840000
    7      C      -0.6553643000     1.4407344000    -1.0471338000
    8      H       0.0088052000     0.7990370000     1.5126621000
    9      H      -0.6832735000    -1.1059187000     2.9281627000
   10      H      -2.1743327000    -2.8689676000     1.8069610000
   11      H      -3.0620138000    -2.5040953000    -0.4709462000
   12      H      -2.4004170000    -0.5102611000    -1.7676879000
   13      H      -1.3991399000     1.6865072000    -1.8048774000
   14      O       0.6226437000     1.2217846000    -1.6668667000
   15      H      -0.5244144000     2.3000985000    -0.3928305000
   16      H       0.5012626000     0.5717335000    -2.3685593000
   17      O       0.1766120000    -2.2532039000     1.1952170000
   18      H       0.9137405000    -2.1794314000     1.8257765000
 ----------------------------------------------------------------
 Nuclear Repulsion Energy =         438.87078092 hartrees
 There are       34 alpha and       33 beta electrons
 Discretize the solute cavity surface with Lebedev spheres
	Using 110 Lebedev grid points for each H atom
	Using 194 Lebedev grid points for other atoms
	Atomic van der Waals radii will be scaled by 1.20
 Remove points where switching function is < 1.0e-08
 Keep 1306 surface tesserae and discard 1430 interior tesserae
 Molecular Surface Area = 155.424 Angst**2
 Requested basis set is 6-311++G(2df,2p)
 There are 126 shells and 396 basis functions
 A cutoff of  1.0D-11 yielded   7116 shell pairs
 There are     70937 function pairs (     87909 Cartesian)
 Smallest overlap matrix eigenvalue = 9.08E-07

 Q-Chem warning in module stvman/mkSTV.C, line 323:

 Overlap eigenvalue is smaller than square root of threshold
 Use THRESH >= 12 to get rid of this warning

 Linear dependence detected in AO basis
 Tighter screening thresholds may be required for diffuse basis sets
 Use S2THRESH > 14 and THRESH = 14 in case of SCF convergence issues
 Number of orthogonalized atomic orbitals = 395
 Maximum deviation from orthogonality = 6.100E-11
 Guess MOs from SCF MO coefficient file

 -----------------------------------------------------------------------
  General SCF calculation program by
  Eric Jon Sundstrom, Paul Horn, Yuezhi Mao, Dmitri Zuev, Alec White,
  David Stuck, Shaama M.S., Shane Yost, Joonho Lee, David Small,
  Daniel Levine, Susi Lehtola, Hugh Burton, Evgeny Epifanovsky,
  Bang C. Huynh
 -----------------------------------------------------------------------
 Exchange:     0.1500 Hartree-Fock + 1.0000 wB97M-V + LR-HF
 Correlation:  1.0000 wB97M-V
 Using SG-2 standard quadrature grid
 Nonlocal Correlation:  VV10 with C = 0.0100 and b = 6.00 and scale = 1.00000
 Grid used for NLC:  SG-1 standard quadrature
 
 Citation of the SMD model:
 Marenich, A.V.; Cramer, C.J.; Truhlar, D.G.
 J. Phys. Chem. B 2009, 113, 6378-6396.
 iSolventCode=           1
 Solvent: water                                                           
 
 vradii
            1           2           3           4           5           6
    1   1.8500000   1.8500000   1.8500000   1.8500000   1.8500000   1.8500000
            7           8           9          10          11          12
    1   1.8500000   1.2000000   1.2000000   1.2000000   1.2000000   1.2000000
           13          14          15          16          17          18
    1   1.2000000   1.5200000   1.2000000   1.2000000   1.5200000   1.2000000
 -------------------------------------------------------
 OpenMP BLAS3 based DFT computing Module                
 Release: version 1.0, May 2013, Q-Chem Inc. Pittsburgh 
 -------------------------------------------------------
 A unrestricted SCF calculation will be
 performed using Roothaan-Hall, DIIS, GDM
 SCF converges when RMS gradient is below 1.0e-06
 ---------------------------------------
  Cycle       Energy         DIIS error
 ---------------------------------------
    1    -422.4415498574      2.23e-04  Roothaan Step
 ---------------------------------------
  Cycle       Energy         DIIS error
 ---------------------------------------
    1    -422.4677800080      2.67e-04  
    2    -422.4722203100      2.57e-04  Done DIIS. Switching to GDM
 ---------------------------------------
  Cycle       Energy        RMS Gradient
 ---------------------------------------
    1    -422.4722203100      1.33e-02   Normal BFGS step
    2    -422.4711012791      2.31e-02  Line search: overstep
    3    -422.4756926056      3.64e-03   Normal BFGS step
    4    -422.4758575620      8.56e-04   Normal BFGS step
    5    -422.4759077944      7.40e-04   Normal BFGS step
    6    -422.4759110601      3.80e-04   Normal BFGS step
    7    -422.4759127216      2.36e-04   Normal BFGS step
    8    -422.4759131111      9.47e-05   Normal BFGS step
    9    -422.4759132208      3.65e-05   Normal BFGS step
   10    -422.4759132368      2.37e-05   Normal BFGS step
   11    -422.4759132406      1.71e-05   Normal BFGS step
   12    -422.4759132417      9.81e-06   Normal BFGS step
   13    -422.4759132421      5.24e-06   Normal BFGS step
   14    -422.4759132423      2.64e-06   Normal BFGS step
   15    -422.4759132423      1.09e-06   Normal BFGS step
   16    -422.4759132419      4.51e-07  Convergence criterion met
 ---------------------------------------
 SCF time:   CPU 2309.86s  wall 87.00s 
<S^2> =          0.795243494
(3)  G-ENP(liq) elect-nuc-pol free energy of system     -422.475913242 a.u.
(4)  G-CDS(liq) cavity-dispersion-solvent structure 
     free energy                                                3.5992 kcal/mol
(6)  G-S(liq) free energy of system                     -422.470177568 a.u.
 SCF   energy in the final basis set =     -422.4701775678
 Total energy in the final basis set =     -422.4701775678
 
 --------------------------------------------------------------
 
                    Orbital Energies (a.u.)
 --------------------------------------------------------------
 
 Alpha MOs
 -- Occupied --
-19.3360 -19.3279 -10.3973 -10.3844 -10.3609 -10.3521 -10.3503 -10.3493
-10.3389  -1.1507  -1.1178  -0.9873  -0.8975  -0.8755  -0.8018  -0.7341
 -0.7078  -0.6406  -0.6121  -0.5963  -0.5736  -0.5679  -0.5347  -0.5264
 -0.5213  -0.4883  -0.4745  -0.4449  -0.4363  -0.4318  -0.4208  -0.3900
 -0.3344  -0.2793
 -- Virtual --
  0.0236   0.0341   0.0365   0.0461   0.0548   0.0558   0.0584   0.0649
  0.0857   0.0859   0.0910   0.0969   0.1080   0.1293   0.1359   0.1425
  0.1441   0.1483   0.1513   0.1594   0.1623   0.1658   0.1665   0.1764
  0.1782   0.1802   0.1938   0.1965   0.2041   0.2128   0.2184   0.2201
  0.2301   0.2393   0.2455   0.2523   0.2553   0.2631   0.2752   0.2861
  0.2927   0.2940   0.3116   0.3201   0.3225   0.3336   0.3354   0.3420
  0.3507   0.3517   0.3547   0.3654   0.3693   0.3764   0.3809   0.4057
  0.4161   0.4269   0.4374   0.4472   0.4653   0.4731   0.5308   0.5348
  0.5476   0.5780   0.5832   0.5932   0.6000   0.6086   0.6127   0.6166
  0.6205   0.6318   0.6340   0.6438   0.6520   0.6743   0.6834   0.6940
  0.6967   0.7027   0.7186   0.7234   0.7238   0.7345   0.7386   0.7490
  0.7624   0.7658   0.7816   0.7949   0.8164   0.8291   0.8320   0.8378
  0.8426   0.8658   0.8735   0.8848   0.8925   0.9002   0.9087   0.9265
  0.9599   0.9920   0.9941   1.0247   1.0350   1.0576   1.0731   1.0844
  1.1043   1.1162   1.1276   1.1489   1.1652   1.1729   1.1771   1.1858
  1.1964   1.2110   1.2278   1.2388   1.2439   1.2681   1.2769   1.2835
  1.2963   1.3056   1.3229   1.3261   1.3417   1.3571   1.3845   1.3869
  1.3934   1.4144   1.4162   1.4314   1.4360   1.4440   1.4576   1.4673
  1.4823   1.4904   1.5102   1.5443   1.5487   1.5570   1.5684   1.5731
  1.5919   1.5985   1.6242   1.6739   1.6743   1.7201   1.7540   1.7855
  1.7970   1.8088   1.8309   1.8531   1.8781   1.9007   1.9372   1.9650
  2.0053   2.0262   2.0582   2.0863   2.0980   2.1068   2.1420   2.1531
  2.2056   2.2548   2.3415   2.3635   2.4074   2.5745   2.6105   2.6295
  2.6461   2.6739   2.7064   2.7132   2.7577   2.7685   2.7960   2.8023
  2.8230   2.8398   2.8480   2.8587   2.8734   2.8858   2.9067   2.9155
  2.9338   2.9409   2.9592   2.9720   2.9842   2.9937   3.0338   3.0524
  3.0646   3.0766   3.0786   3.1253   3.1500   3.1621   3.1658   3.1834
  3.1944   3.2291   3.2455   3.2649   3.2742   3.2846   3.2943   3.3075
  3.3166   3.3193   3.3507   3.3733   3.3846   3.4143   3.4172   3.4320
  3.4620   3.4679   3.4796   3.5107   3.5173   3.5446   3.5503   3.5632
  3.5716   3.5893   3.6161   3.6294   3.6346   3.6807   3.6993   3.7172
  3.7339   3.7445   3.7717   3.7750   3.8016   3.8102   3.8214   3.8305
  3.8427   3.8662   3.8960   3.9159   3.9195   3.9396   3.9522   3.9830
  3.9927   4.0081   4.0289   4.0443   4.0623   4.0928   4.1272   4.1486
  4.1772   4.1873   4.2033   4.2103   4.2418   4.2615   4.2814   4.3110
  4.3247   4.3483   4.3794   4.3858   4.3874   4.4074   4.4251   4.4354
  4.4608   4.4943   4.4983   4.5184   4.5459   4.5543   4.5736   4.5858
  4.6152   4.6213   4.6805   4.7141   4.7509   4.7910   4.8061   4.8651
  4.9433   5.0294   5.0758   5.1270   5.1709   5.1786   5.2091   5.2582
  5.2896   5.2933   5.3166   5.3243   5.3377   5.3454   5.4157   5.4604
  5.4657   5.4783   5.5166   5.5311   5.5913   5.6610   5.6820   5.6965
  5.7159   5.7372   5.7914   5.8315   5.8423   5.8984   5.9075   5.9387
  6.0185   6.1812   6.5641   6.5934   7.1033   7.1065   7.2116   7.2425
  7.2890   7.3082   7.3218   7.3592   7.5780   7.6335   7.7215   7.7869
 24.1985  24.7479  24.7990  24.8043  25.0011  25.0504  25.4745  50.5911
 50.6099
 
 Beta MOs
 -- Occupied --
-19.3362 -19.3176 -10.3980 -10.3843 -10.3559 -10.3516 -10.3469 -10.3455
-10.3412  -1.1512  -1.0975  -0.9806  -0.8928  -0.8690  -0.7978  -0.7280
 -0.7048  -0.6372  -0.6102  -0.5808  -0.5698  -0.5644  -0.5312  -0.5243
 -0.5158  -0.4764  -0.4623  -0.4425  -0.4313  -0.4086  -0.4056  -0.3886
 -0.3209
 -- Virtual --
 -0.0339   0.0232   0.0339   0.0368   0.0459   0.0552   0.0563   0.0656
  0.0739   0.0858   0.0874   0.0937   0.1038   0.1102   0.1300   0.1360
  0.1426   0.1451   0.1486   0.1513   0.1592   0.1620   0.1668   0.1680
  0.1764   0.1781   0.1815   0.1941   0.1963   0.2036   0.2119   0.2183
  0.2198   0.2300   0.2393   0.2452   0.2545   0.2578   0.2639   0.2746
  0.2863   0.2927   0.2953   0.3136   0.3210   0.3237   0.3342   0.3355
  0.3424   0.3517   0.3530   0.3557   0.3673   0.3696   0.3770   0.3801
  0.4061   0.4174   0.4289   0.4386   0.4484   0.4659   0.4743   0.5313
  0.5369   0.5508   0.5812   0.5862   0.5960   0.6036   0.6099   0.6163
  0.6203   0.6235   0.6346   0.6370   0.6455   0.6549   0.6761   0.6849
  0.6963   0.7008   0.7056   0.7200   0.7256   0.7265   0.7365   0.7413
  0.7506   0.7632   0.7699   0.7862   0.7973   0.8183   0.8297   0.8367
  0.8410   0.8460   0.8689   0.8760   0.8873   0.8947   0.9028   0.9124
  0.9284   0.9617   0.9951   0.9965   1.0262   1.0362   1.0588   1.0748
  1.0865   1.1059   1.1189   1.1286   1.1516   1.1670   1.1739   1.1790
  1.1904   1.1995   1.2139   1.2292   1.2400   1.2452   1.2703   1.2789
  1.2888   1.2978   1.3076   1.3247   1.3295   1.3441   1.3594   1.3885
  1.3900   1.3963   1.4170   1.4183   1.4338   1.4389   1.4478   1.4600
  1.4721   1.4853   1.4922   1.5147   1.5462   1.5521   1.5601   1.5704
  1.5779   1.5928   1.6022   1.6253   1.6771   1.6782   1.7242   1.7586
  1.7897   1.8033   1.8140   1.8371   1.8577   1.8827   1.9074   1.9418
  1.9698   2.0122   2.0286   2.0644   2.0902   2.1029   2.1122   2.1491
  2.1572   2.2070   2.2575   2.3421   2.3637   2.4125   2.5810   2.6144
  2.6357   2.6501   2.6799   2.7129   2.7215   2.7661   2.7782   2.8058
  2.8135   2.8285   2.8468   2.8539   2.8659   2.8827   2.8943   2.9139
  2.9257   2.9405   2.9473   2.9653   2.9826   2.9964   3.0034   3.0411
  3.0627   3.0711   3.0865   3.0925   3.1281   3.1542   3.1702   3.1743
  3.1858   3.2018   3.2363   3.2528   3.2728   3.2786   3.2896   3.2999
  3.3123   3.3221   3.3277   3.3621   3.3821   3.3902   3.4226   3.4271
  3.4388   3.4681   3.4777   3.4882   3.5163   3.5238   3.5502   3.5562
  3.5682   3.5815   3.5984   3.6202   3.6375   3.6452   3.6898   3.7008
  3.7235   3.7407   3.7516   3.7761   3.7841   3.8072   3.8157   3.8283
  3.8383   3.8476   3.8719   3.9023   3.9238   3.9242   3.9449   3.9581
  3.9905   3.9987   4.0171   4.0342   4.0501   4.0712   4.0992   4.1355
  4.1530   4.1830   4.1922   4.2094   4.2149   4.2435   4.2665   4.2864
  4.3140   4.3318   4.3524   4.3843   4.3898   4.3940   4.4125   4.4298
  4.4407   4.4686   4.5051   4.5099   4.5293   4.5554   4.5663   4.5823
  4.5948   4.6222   4.6285   4.6879   4.7191   4.7561   4.7996   4.8149
  4.8743   4.9527   5.0410   5.0863   5.1387   5.1853   5.1896   5.2198
  5.2671   5.2915   5.3034   5.3261   5.3309   5.3491   5.3562   5.4321
  5.4700   5.4733   5.4925   5.5276   5.5404   5.5918   5.6690   5.6823
  5.7054   5.7180   5.7514   5.7971   5.8521   5.8680   5.9046   5.9197
  5.9548   6.0191   6.1933   6.5697   6.5955   7.1031   7.1262   7.2470
  7.2706   7.3070   7.3159   7.3217   7.3588   7.6056   7.6334   7.7557
  7.7862  24.1999  24.7492  24.7990  24.8058  25.0030  25.0530  25.4769
 50.5911  50.6181
 --------------------------------------------------------------
 
          Ground-State Mulliken Net Atomic Charges

     Atom                 Charge (a.u.)    Spin (a.u.)
  --------------------------------------------------------
      1 C                    -0.224384       0.366833
      2 C                    -0.067195      -0.037054
      3 C                    -0.469156       0.346736
      4 C                    -0.408727      -0.138781
      5 C                    -0.243732       0.322184
      6 C                     0.237207      -0.146927
      7 C                    -0.468158       0.011975
      8 H                     0.283767      -0.006547
      9 H                     0.318148       0.016657
     10 H                     0.303575      -0.006101
     11 H                     0.283347       0.004422
     12 H                     0.283891      -0.006074
     13 H                     0.196241      -0.000055
     14 O                    -0.409272      -0.003321
     15 H                     0.206348      -0.002064
     16 H                     0.331958       0.000017
     17 O                    -0.470314       0.263208
     18 H                     0.316455       0.014894
  --------------------------------------------------------
  Sum of atomic charges =     0.000000
  Sum of spin   charges =     1.000000

 -----------------------------------------------------------------
                    Cartesian Multipole Moments
 -----------------------------------------------------------------
    Charge (ESU x 10^10)
                 0.0000
    Dipole Moment (Debye)
         X      -2.5525      Y       0.6253      Z       1.5259
       Tot       3.0388
    Quadrupole Moments (Debye-Ang)
        XX     -53.0546     XY      -0.0116     YY     -59.4366
        XZ       5.3180     YZ      -0.6860     ZZ     -40.1051
    Octopole Moments (Debye-Ang^2)
       XXX     153.6445    XXY      13.3648    XYY      36.8092
       YYY     101.0058    XXZ     -11.3259    XYZ       5.2256
       YYZ       1.6915    XZZ      45.3851    YZZ      12.7828
       ZZZ     -16.3696
    Hexadecapole Moments (Debye-Ang^3)
      XXXX    -688.9983   XXXY    -153.2428   XXYY    -201.0157
      XYYY    -151.4955   YYYY    -802.3587   XXXZ      68.1681
      XXYZ      59.1643   XYYZ      18.7909   YYYZ     199.3639
      XXZZ    -187.2237   XYZZ     -62.2991   YYZZ    -207.7110
      XZZZ      45.9294   YZZZ     164.2704   ZZZZ    -444.2330
 -----------------------------------------------------------------
 Calculating analytic gradient of the SCF energy
 Gradient of CDS energy
            1           2           3           4           5           6
    1   0.0001324  -0.0000598  -0.0000552  -0.0002827  -0.0001510   0.0002840
    2   0.0002057  -0.0000554  -0.0002328  -0.0003350   0.0001930  -0.0001618
    3   0.0000769   0.0001148   0.0002684  -0.0001415  -0.0002409  -0.0000882
            7           8           9          10          11          12
    1  -0.0002746   0.0000678   0.0000704  -0.0000331  -0.0001335  -0.0000617
    2   0.0011132   0.0001541   0.0000169  -0.0001787  -0.0001347   0.0000746
    3  -0.0002381   0.0000727   0.0002984   0.0001150  -0.0000807  -0.0001643
           13          14          15          16          17          18
    1  -0.0000843  -0.0001069   0.0001876   0.0003234  -0.0002611   0.0004383
    2  -0.0002429  -0.0001157  -0.0000632  -0.0001717   0.0001681  -0.0002337
    3  -0.0001310   0.0002158   0.0002359  -0.0003820  -0.0000525   0.0001213
 Gradient of SCF Energy
            1           2           3           4           5           6
    1   0.0361277  -0.0817503   0.0834055   0.0046170   0.0063405  -0.0271096
    2  -0.0441135   0.0083979   0.0169843   0.0121712   0.0013204  -0.0050705
    3   0.0224243  -0.0638313   0.0272269  -0.0192408   0.0142208  -0.0266289
            7           8           9          10          11          12
    1   0.0024640  -0.0055093   0.0243285  -0.0033273  -0.0038481  -0.0021310
    2  -0.0011670   0.0061977   0.0001855  -0.0035005  -0.0008885   0.0015876
    3   0.0003665   0.0050409   0.0580477   0.0029344  -0.0021929  -0.0071374
           13          14          15          16          17          18
    1  -0.0036157   0.0086526  -0.0021055  -0.0053485  -0.0373646   0.0061742
    2   0.0000046   0.0053894   0.0021673  -0.0057822   0.0032610   0.0028555
    3  -0.0044134   0.0082658   0.0031307  -0.0083722  -0.0195218   0.0096806
 Max gradient component =       8.341E-02
 RMS gradient           =       2.407E-02
 Computing fast CPCM-SWIG gradient
 Updating gradient with PCM contributions...
 -- total gradient after adding PCM contribution --
---------------------------------------------------
  Atom         X              Y              Z     
---------------------------------------------------
   1       0.037202      -0.042952       0.027531
   2      -0.074877       0.004940      -0.056933
   3       0.085621       0.015625       0.032976
   4      -0.000633       0.010903      -0.021812
   5       0.004146       0.003753       0.006148
   6      -0.025558      -0.004254      -0.028254
   7      -0.002260       0.002201      -0.000741
   8      -0.007682       0.002418       0.001571
   9       0.020516      -0.000122       0.047920
  10      -0.001252      -0.001200      -0.000007
  11      -0.001229       0.001167      -0.000555
  12       0.000601      -0.000191       0.000029
  13       0.000556      -0.000518       0.000204
  14       0.001061      -0.001178       0.001393
  15      -0.000189      -0.000196       0.000337
  16      -0.000104      -0.000112      -0.001166
  17      -0.038132       0.009962      -0.010026
  18       0.002213      -0.000244       0.001385
---------------------------------------------------
 Number of fixed atoms: 0
 Gradient time:  CPU 322.96 s  wall 15.47 s
 ----------------------------------------------------------------
             Standard Nuclear Orientation (Angstroms)
    I     Atom           X                Y                Z
 ----------------------------------------------------------------
    1      C      -0.5336998000     0.0025343000     1.0230089000
    2      C      -0.9680984000    -1.1061387000     1.7802259000
    3      C      -1.8563514000    -2.0070855000     1.2371255000
    4      C      -2.3613366000    -1.7976328000    -0.0475639000
    5      C      -1.9848859000    -0.6759702000    -0.7817256000
    6      C      -1.0941961000     0.2408942000    -0.2544840000
    7      C      -0.6553643000     1.4407344000    -1.0471338000
    8      H       0.0088052000     0.7990370000     1.5126621000
    9      H      -0.6832735000    -1.1059187000     2.9281627000
   10      H      -2.1743327000    -2.8689676000     1.8069610000
   11      H      -3.0620138000    -2.5040953000    -0.4709462000
   12      H      -2.4004170000    -0.5102611000    -1.7676879000
   13      H      -1.3991399000     1.6865072000    -1.8048774000
   14      O       0.6226437000     1.2217846000    -1.6668667000
   15      H      -0.5244144000     2.3000985000    -0.3928305000
   16      H       0.5012626000     0.5717335000    -2.3685593000
   17      O       0.1766120000    -2.2532039000     1.1952170000
   18      H       0.9137405000    -2.1794314000     1.8257765000
 ----------------------------------------------------------------
 Nuclear Repulsion Energy =         438.88847773 hartrees
 There are       34 alpha and       33 beta electrons
 Discretize the solute cavity surface with Lebedev spheres
	Using 110 Lebedev grid points for each H atom
	Using 194 Lebedev grid points for other atoms
	Atomic van der Waals radii will be scaled by 1.20
 Remove points where switching function is < 1.0e-08
 Keep 1305 surface tesserae and discard 1431 interior tesserae
 Molecular Surface Area = 155.424 Angst**2
 Requested basis set is 6-311++G(2df,2p)
 There are 126 shells and 396 basis functions
 A cutoff of  1.0D-11 yielded   7116 shell pairs
 There are     70937 function pairs (     87909 Cartesian)
 Smallest overlap matrix eigenvalue = 9.03E-07

 Q-Chem warning in module stvman/mkSTV.C, line 323:

 Overlap eigenvalue is smaller than square root of threshold
 Use THRESH >= 12 to get rid of this warning

 Linear dependence detected in AO basis
 Tighter screening thresholds may be required for diffuse basis sets
 Use S2THRESH > 14 and THRESH = 14 in case of SCF convergence issues
 Number of orthogonalized atomic orbitals = 395
 Maximum deviation from orthogonality = 3.148E-11
 Guess MOs from SCF MO coefficient file

 -----------------------------------------------------------------------
  General SCF calculation program by
  Eric Jon Sundstrom, Paul Horn, Yuezhi Mao, Dmitri Zuev, Alec White,
  David Stuck, Shaama M.S., Shane Yost, Joonho Lee, David Small,
  Daniel Levine, Susi Lehtola, Hugh Burton, Evgeny Epifanovsky,
  Bang C. Huynh
 -----------------------------------------------------------------------
 Exchange:     0.1500 Hartree-Fock + 1.0000 wB97M-V + LR-HF
 Correlation:  1.0000 wB97M-V
 Using SG-2 standard quadrature grid
 Nonlocal Correlation:  VV10 with C = 0.0100 and b = 6.00 and scale = 1.00000
 Grid used for NLC:  SG-1 standard quadrature
 
 Citation of the SMD model:
 Marenich, A.V.; Cramer, C.J.; Truhlar, D.G.
 J. Phys. Chem. B 2009, 113, 6378-6396.
 iSolventCode=           1
 Solvent: water                                                           
 
 vradii
            1           2           3           4           5           6
    1   1.8500000   1.8500000   1.8500000   1.8500000   1.8500000   1.8500000
            7           8           9          10          11          12
    1   1.8500000   1.2000000   1.2000000   1.2000000   1.2000000   1.2000000
           13          14          15          16          17          18
    1   1.2000000   1.5200000   1.2000000   1.2000000   1.5200000   1.2000000
 -------------------------------------------------------
 OpenMP BLAS3 based DFT computing Module                
 Release: version 1.0, May 2013, Q-Chem Inc. Pittsburgh 
 -------------------------------------------------------
 A unrestricted SCF calculation will be
 performed using Roothaan-Hall, DIIS, GDM
 SCF converges when RMS gradient is below 1.0e-06
 ---------------------------------------
  Cycle       Energy         DIIS error
 ---------------------------------------
    1    -422.4416901700      2.23e-04  Roothaan Step
 ---------------------------------------
  Cycle       Energy         DIIS error
 ---------------------------------------
    1    -422.4679258994      2.67e-04  
    2    -422.4723580072      2.57e-04  Done DIIS. Switching to GDM
 ---------------------------------------
  Cycle       Energy        RMS Gradient
 ---------------------------------------
    1    -422.4723580072      1.33e-02   Normal BFGS step
    2    -422.4712366607      2.31e-02  Line search: overstep
    3    -422.4758305164      3.62e-03   Normal BFGS step
    4    -422.4759954062      8.55e-04   Normal BFGS step
    5    -422.4760455724      7.32e-04   Normal BFGS step
    6    -422.4760488618      3.78e-04   Normal BFGS step
    7    -422.4760505369      2.34e-04   Normal BFGS step
    8    -422.4760509390      9.48e-05   Normal BFGS step
    9    -422.4760510549      5.08e-05   Normal BFGS step
   10    -422.4760510731      3.25e-05   Normal BFGS step
   11    -422.4760510779      2.27e-05   Normal BFGS step
   12    -422.4760510796      1.20e-05   Normal BFGS step
   13    -422.4760510802      5.44e-06   Normal BFGS step
   14    -422.4760510805      2.58e-06   Normal BFGS step
   15    -422.4760510805      1.20e-06   Normal BFGS step
   16    -422.4760510800      4.37e-07  Convergence criterion met
 ---------------------------------------
 SCF time:   CPU 2324.29s  wall 88.00s 
<S^2> =          0.795105472
(3)  G-ENP(liq) elect-nuc-pol free energy of system     -422.476051080 a.u.
(4)  G-CDS(liq) cavity-dispersion-solvent structure 
     free energy                                                3.5989 kcal/mol
(6)  G-S(liq) free energy of system                     -422.470315901 a.u.
 SCF   energy in the final basis set =     -422.4703159010
 Total energy in the final basis set =     -422.4703159010
 
 --------------------------------------------------------------
 
                    Orbital Energies (a.u.)
 --------------------------------------------------------------
 
 Alpha MOs
 -- Occupied --
-19.3360 -19.3279 -10.3972 -10.3844 -10.3609 -10.3521 -10.3503 -10.3493
-10.3389  -1.1507  -1.1178  -0.9874  -0.8976  -0.8755  -0.8018  -0.7341
 -0.7079  -0.6406  -0.6121  -0.5964  -0.5736  -0.5678  -0.5347  -0.5265
 -0.5213  -0.4883  -0.4745  -0.4449  -0.4363  -0.4318  -0.4208  -0.3900
 -0.3345  -0.2793
 -- Virtual --
  0.0236   0.0340   0.0365   0.0461   0.0548   0.0558   0.0584   0.0649
  0.0857   0.0859   0.0910   0.0969   0.1080   0.1293   0.1359   0.1425
  0.1441   0.1483   0.1513   0.1594   0.1623   0.1658   0.1665   0.1764
  0.1782   0.1802   0.1938   0.1965   0.2041   0.2129   0.2184   0.2201
  0.2301   0.2394   0.2458   0.2524   0.2553   0.2631   0.2752   0.2861
  0.2927   0.2941   0.3116   0.3202   0.3226   0.3335   0.3355   0.3420
  0.3507   0.3517   0.3547   0.3654   0.3693   0.3763   0.3809   0.4057
  0.4162   0.4270   0.4375   0.4472   0.4653   0.4731   0.5309   0.5349
  0.5477   0.5782   0.5832   0.5932   0.6000   0.6086   0.6126   0.6167
  0.6205   0.6319   0.6340   0.6437   0.6520   0.6743   0.6835   0.6940
  0.6968   0.7028   0.7185   0.7235   0.7238   0.7345   0.7386   0.7491
  0.7624   0.7658   0.7818   0.7950   0.8165   0.8292   0.8321   0.8378
  0.8426   0.8659   0.8736   0.8849   0.8926   0.9002   0.9088   0.9265
  0.9600   0.9920   0.9940   1.0247   1.0351   1.0576   1.0731   1.0845
  1.1043   1.1162   1.1276   1.1490   1.1652   1.1730   1.1770   1.1857
  1.1966   1.2110   1.2278   1.2388   1.2440   1.2681   1.2768   1.2836
  1.2964   1.3055   1.3229   1.3261   1.3417   1.3571   1.3847   1.3871
  1.3935   1.4144   1.4163   1.4315   1.4362   1.4440   1.4577   1.4674
  1.4823   1.4904   1.5102   1.5444   1.5487   1.5571   1.5685   1.5731
  1.5919   1.5983   1.6241   1.6740   1.6743   1.7203   1.7540   1.7858
  1.7973   1.8089   1.8311   1.8533   1.8783   1.9006   1.9373   1.9654
  2.0053   2.0262   2.0581   2.0864   2.0980   2.1070   2.1424   2.1531
  2.2057   2.2556   2.3415   2.3635   2.4074   2.5741   2.6105   2.6301
  2.6462   2.6739   2.7065   2.7131   2.7576   2.7686   2.7961   2.8025
  2.8229   2.8396   2.8481   2.8587   2.8736   2.8861   2.9068   2.9154
  2.9337   2.9408   2.9592   2.9714   2.9842   2.9934   3.0342   3.0523
  3.0646   3.0767   3.0787   3.1253   3.1500   3.1624   3.1662   3.1833
  3.1945   3.2289   3.2451   3.2649   3.2744   3.2850   3.2943   3.3076
  3.3164   3.3192   3.3508   3.3734   3.3847   3.4140   3.4172   3.4322
  3.4623   3.4680   3.4795   3.5108   3.5176   3.5448   3.5501   3.5632
  3.5716   3.5895   3.6157   3.6298   3.6343   3.6810   3.6991   3.7171
  3.7341   3.7445   3.7719   3.7753   3.8017   3.8102   3.8216   3.8306
  3.8427   3.8661   3.8964   3.9160   3.9195   3.9399   3.9522   3.9832
  3.9930   4.0084   4.0293   4.0448   4.0629   4.0926   4.1273   4.1486
  4.1771   4.1873   4.2033   4.2099   4.2420   4.2616   4.2816   4.3111
  4.3248   4.3484   4.3794   4.3860   4.3877   4.4075   4.4254   4.4345
  4.4610   4.4943   4.4987   4.5195   4.5465   4.5543   4.5736   4.5858
  4.6153   4.6212   4.6807   4.7146   4.7509   4.7910   4.8066   4.8652
  4.9435   5.0298   5.0756   5.1272   5.1712   5.1790   5.2092   5.2584
  5.2896   5.2934   5.3165   5.3243   5.3377   5.3456   5.4159   5.4607
  5.4658   5.4782   5.5167   5.5313   5.5914   5.6615   5.6820   5.6968
  5.7161   5.7373   5.7916   5.8320   5.8408   5.8989   5.9076   5.9387
  6.0184   6.1815   6.5654   6.5939   7.1033   7.1065   7.2116   7.2423
  7.2891   7.3082   7.3218   7.3592   7.5780   7.6335   7.7214   7.7869
 24.1981  24.7487  24.7993  24.8042  25.0025  25.0507  25.4755  50.5911
 50.6098
 
 Beta MOs
 -- Occupied --
-19.3362 -19.3176 -10.3979 -10.3843 -10.3559 -10.3516 -10.3469 -10.3455
-10.3412  -1.1512  -1.0975  -0.9807  -0.8929  -0.8690  -0.7979  -0.7280
 -0.7049  -0.6372  -0.6103  -0.5808  -0.5698  -0.5644  -0.5312  -0.5243
 -0.5158  -0.4763  -0.4624  -0.4425  -0.4313  -0.4085  -0.4056  -0.3887
 -0.3210
 -- Virtual --
 -0.0339   0.0231   0.0339   0.0368   0.0459   0.0552   0.0563   0.0656
  0.0740   0.0858   0.0874   0.0937   0.1038   0.1102   0.1300   0.1360
  0.1426   0.1451   0.1486   0.1513   0.1592   0.1620   0.1668   0.1680
  0.1764   0.1781   0.1815   0.1940   0.1963   0.2036   0.2119   0.2183
  0.2198   0.2300   0.2393   0.2454   0.2545   0.2579   0.2639   0.2746
  0.2863   0.2928   0.2952   0.3136   0.3210   0.3237   0.3341   0.3355
  0.3423   0.3516   0.3531   0.3557   0.3673   0.3696   0.3769   0.3801
  0.4061   0.4175   0.4291   0.4387   0.4484   0.4659   0.4743   0.5315
  0.5369   0.5509   0.5814   0.5862   0.5960   0.6036   0.6099   0.6163
  0.6202   0.6236   0.6347   0.6370   0.6455   0.6549   0.6761   0.6850
  0.6963   0.7008   0.7057   0.7200   0.7256   0.7266   0.7365   0.7412
  0.7507   0.7632   0.7699   0.7864   0.7974   0.8185   0.8297   0.8368
  0.8411   0.8460   0.8689   0.8761   0.8873   0.8948   0.9028   0.9126
  0.9284   0.9618   0.9951   0.9963   1.0263   1.0363   1.0587   1.0748
  1.0866   1.1059   1.1189   1.1287   1.1517   1.1670   1.1740   1.1790
  1.1904   1.1997   1.2139   1.2292   1.2399   1.2452   1.2702   1.2788
  1.2889   1.2978   1.3075   1.3247   1.3296   1.3440   1.3595   1.3886
  1.3901   1.3963   1.4169   1.4185   1.4338   1.4391   1.4478   1.4601
  1.4721   1.4853   1.4922   1.5147   1.5463   1.5521   1.5602   1.5705
  1.5779   1.5928   1.6019   1.6252   1.6772   1.6783   1.7244   1.7586
  1.7899   1.8036   1.8142   1.8373   1.8579   1.8828   1.9073   1.9418
  1.9703   2.0122   2.0286   2.0643   2.0903   2.1030   2.1123   2.1495
  2.1572   2.2071   2.2584   2.3421   2.3638   2.4125   2.5806   2.6145
  2.6363   2.6502   2.6799   2.7131   2.7214   2.7660   2.7783   2.8059
  2.8137   2.8284   2.8466   2.8540   2.8660   2.8829   2.8947   2.9140
  2.9257   2.9404   2.9471   2.9652   2.9820   2.9962   3.0032   3.0415
  3.0627   3.0711   3.0866   3.0926   3.1281   3.1542   3.1704   3.1748
  3.1857   3.2020   3.2362   3.2524   3.2727   3.2787   3.2900   3.2998
  3.3124   3.3220   3.3274   3.3622   3.3821   3.3904   3.4223   3.4270
  3.4391   3.4684   3.4778   3.4882   3.5164   3.5240   3.5504   3.5561
  3.5681   3.5816   3.5986   3.6198   3.6379   3.6450   3.6901   3.7006
  3.7234   3.7408   3.7516   3.7764   3.7844   3.8072   3.8158   3.8284
  3.8384   3.8475   3.8718   3.9027   3.9240   3.9242   3.9451   3.9581
  3.9907   3.9991   4.0175   4.0346   4.0506   4.0718   4.0991   4.1356
  4.1529   4.1829   4.1923   4.2092   4.2145   4.2437   4.2666   4.2866
  4.3141   4.3318   4.3525   4.3843   4.3900   4.3942   4.4126   4.4301
  4.4398   4.4689   4.5051   4.5104   4.5303   4.5560   4.5663   4.5823
  4.5948   4.6224   4.6283   4.6880   4.7197   4.7560   4.7997   4.8152
  4.8744   4.9529   5.0413   5.0861   5.1389   5.1854   5.1902   5.2199
  5.2673   5.2916   5.3036   5.3260   5.3309   5.3492   5.3563   5.4323
  5.4700   5.4737   5.4925   5.5275   5.5406   5.5918   5.6696   5.6824
  5.7056   5.7182   5.7514   5.7972   5.8525   5.8664   5.9052   5.9198
  5.9549   6.0191   6.1936   6.5708   6.5962   7.1031   7.1261   7.2470
  7.2704   7.3070   7.3159   7.3217   7.3588   7.6056   7.6334   7.7556
  7.7863  24.1994  24.7501  24.7993  24.8057  25.0044  25.0533  25.4779
 50.5910  50.6180
 --------------------------------------------------------------
 
          Ground-State Mulliken Net Atomic Charges

     Atom                 Charge (a.u.)    Spin (a.u.)
  --------------------------------------------------------
      1 C                    -0.223165       0.365727
      2 C                    -0.068140      -0.037015
      3 C                    -0.468903       0.346808
      4 C                    -0.408151      -0.138644
      5 C                    -0.244133       0.322408
      6 C                     0.236802      -0.146492
      7 C                    -0.468344       0.012007
      8 H                     0.283784      -0.006588
      9 H                     0.318131       0.016674
     10 H                     0.303542      -0.006107
     11 H                     0.283419       0.004423
     12 H                     0.283807      -0.006073
     13 H                     0.196340      -0.000054
     14 O                    -0.409199      -0.003304
     15 H                     0.206220      -0.002057
     16 H                     0.331959       0.000013
     17 O                    -0.470404       0.263357
     18 H                     0.316437       0.014916
  --------------------------------------------------------
  Sum of atomic charges =     0.000000
  Sum of spin   charges =     1.000000

 -----------------------------------------------------------------
                    Cartesian Multipole Moments
 -----------------------------------------------------------------
    Charge (ESU x 10^10)
                 0.0000
    Dipole Moment (Debye)
         X      -2.5518      Y       0.6258      Z       1.5234
       Tot       3.0371
    Quadrupole Moments (Debye-Ang)
        XX     -53.0541     XY      -0.0138     YY     -59.4372
        XZ       5.3188     YZ      -0.6904     ZZ     -40.1053
    Octopole Moments (Debye-Ang^2)
       XXX     153.6776    XXY      13.3704    XYY      36.8223
       YYY     101.0114    XXZ     -11.3267    XYZ       5.2287
       YYZ       1.6851    XZZ      45.3980    YZZ      12.7805
       ZZZ     -16.3738
    Hexadecapole Moments (Debye-Ang^3)
      XXXX    -689.0642   XXXY    -153.2571   XXYY    -201.0320
      XYYY    -151.5102   YYYY    -802.3655   XXXZ      68.1965
      XXYZ      59.1558   XYYZ      18.8066   YYYZ     199.3530
      XXZZ    -187.2389   XYZZ     -62.3023   YYZZ    -207.7133
      XZZZ      45.9595   YZZZ     164.2412   ZZZZ    -444.2176
 -----------------------------------------------------------------
 Calculating analytic gradient of the SCF energy
 Gradient of CDS energy
            1           2           3           4           5           6
    1   0.0001296  -0.0000590  -0.0000552  -0.0002827  -0.0001509   0.0002848
    2   0.0002048  -0.0000551  -0.0002327  -0.0003350   0.0001931  -0.0001619
    3   0.0000757   0.0001144   0.0002685  -0.0001415  -0.0002408  -0.0000877
            7           8           9          10          11          12
    1  -0.0002745   0.0000686   0.0000704  -0.0000331  -0.0001335  -0.0000617
    2   0.0011131   0.0001546   0.0000170  -0.0001787  -0.0001347   0.0000746
    3  -0.0002379   0.0000738   0.0002984   0.0001150  -0.0000807  -0.0001643
           13          14          15          16          17          18
    1  -0.0000843  -0.0001068   0.0001876   0.0003234  -0.0002612   0.0004384
    2  -0.0002429  -0.0001158  -0.0000632  -0.0001718   0.0001680  -0.0002334
    3  -0.0001310   0.0002158   0.0002358  -0.0003820  -0.0000527   0.0001213
 Gradient of SCF Energy
            1           2           3           4           5           6
    1   0.0348843  -0.0813348   0.0833804   0.0046190   0.0064537  -0.0267168
    2  -0.0449450   0.0086865   0.0170670   0.0121309   0.0014347  -0.0051054
    3   0.0219610  -0.0639507   0.0271430  -0.0191785   0.0143096  -0.0264173
            7           8           9          10          11          12
    1   0.0024232  -0.0050945   0.0243067  -0.0033256  -0.0038452  -0.0021358
    2  -0.0011743   0.0066449   0.0001659  -0.0034862  -0.0008914   0.0016070
    3   0.0003419   0.0053233   0.0580671   0.0029446  -0.0021933  -0.0071302
           13          14          15          16          17          18
    1  -0.0036200   0.0086589  -0.0021045  -0.0053501  -0.0373761   0.0061771
    2   0.0000135   0.0053998   0.0021721  -0.0057866   0.0032088   0.0028577
    3  -0.0044225   0.0082671   0.0031271  -0.0083747  -0.0194922   0.0096746
 Max gradient component =       8.338E-02
 RMS gradient           =       2.402E-02
 Computing fast CPCM-SWIG gradient
 Updating gradient with PCM contributions...
 -- total gradient after adding PCM contribution --
---------------------------------------------------
  Atom         X              Y              Z     
---------------------------------------------------
   1       0.036001      -0.043810       0.027023
   2      -0.074484       0.005236      -0.057038
   3       0.085594       0.015713       0.032882
   4      -0.000623       0.010845      -0.021745
   5       0.004237       0.003866       0.006246
   6      -0.025181      -0.004263      -0.028024
   7      -0.002294       0.002195      -0.000769
   8      -0.007269       0.002875       0.001860
   9       0.020495      -0.000138       0.047940
  10      -0.001251      -0.001188       0.000004
  11      -0.001227       0.001163      -0.000556
  12       0.000597      -0.000173       0.000038
  13       0.000556      -0.000511       0.000200
  14       0.001070      -0.001172       0.001387
  15      -0.000187      -0.000193       0.000334
  16      -0.000105      -0.000113      -0.001165
  17      -0.038145       0.009911      -0.009997
  18       0.002217      -0.000242       0.001380
---------------------------------------------------
 Number of fixed atoms: 0
 Gradient time:  CPU 323.45 s  wall 15.47 s
 ----------------------------------------------------------------
             Standard Nuclear Orientation (Angstroms)
    I     Atom           X                Y                Z
 ----------------------------------------------------------------
    1      C      -0.5326998000     0.0035343000     1.0230089000
    2      C      -0.9680984000    -1.1061387000     1.7802259000
    3      C      -1.8563514000    -2.0070855000     1.2371255000
    4      C      -2.3613366000    -1.7976328000    -0.0475639000
    5      C      -1.9848859000    -0.6759702000    -0.7817256000
    6      C      -1.0941961000     0.2408942000    -0.2544840000
    7      C      -0.6553643000     1.4407344000    -1.0471338000
    8      H       0.0088052000     0.7990370000     1.5126621000
    9      H      -0.6832735000    -1.1059187000     2.9281627000
   10      H      -2.1743327000    -2.8689676000     1.8069610000
   11      H      -3.0620138000    -2.5040953000    -0.4709462000
   12      H      -2.4004170000    -0.5102611000    -1.7676879000
   13      H      -1.3991399000     1.6865072000    -1.8048774000
   14      O       0.6226437000     1.2217846000    -1.6668667000
   15      H      -0.5244144000     2.3000985000    -0.3928305000
   16      H       0.5012626000     0.5717335000    -2.3685593000
   17      O       0.1766120000    -2.2532039000     1.1952170000
   18      H       0.9137405000    -2.1794314000     1.8257765000
 ----------------------------------------------------------------
 Nuclear Repulsion Energy =         438.86834847 hartrees
 There are       34 alpha and       33 beta electrons
 Discretize the solute cavity surface with Lebedev spheres
	Using 110 Lebedev grid points for each H atom
	Using 194 Lebedev grid points for other atoms
	Atomic van der Waals radii will be scaled by 1.20
 Remove points where switching function is < 1.0e-08
 Keep 1305 surface tesserae and discard 1431 interior tesserae
 Molecular Surface Area = 155.427 Angst**2
 Requested basis set is 6-311++G(2df,2p)
 There are 126 shells and 396 basis functions
 A cutoff of  1.0D-11 yielded   7116 shell pairs
 There are     70937 function pairs (     87909 Cartesian)
 Smallest overlap matrix eigenvalue = 9.06E-07

 Q-Chem warning in module stvman/mkSTV.C, line 323:

 Overlap eigenvalue is smaller than square root of threshold
 Use THRESH >= 12 to get rid of this warning

 Linear dependence detected in AO basis
 Tighter screening thresholds may be required for diffuse basis sets
 Use S2THRESH > 14 and THRESH = 14 in case of SCF convergence issues
 Number of orthogonalized atomic orbitals = 395
 Maximum deviation from orthogonality = 6.139E-11
 Guess MOs from SCF MO coefficient file

 -----------------------------------------------------------------------
  General SCF calculation program by
  Eric Jon Sundstrom, Paul Horn, Yuezhi Mao, Dmitri Zuev, Alec White,
  David Stuck, Shaama M.S., Shane Yost, Joonho Lee, David Small,
  Daniel Levine, Susi Lehtola, Hugh Burton, Evgeny Epifanovsky,
  Bang C. Huynh
 -----------------------------------------------------------------------
 Exchange:     0.1500 Hartree-Fock + 1.0000 wB97M-V + LR-HF
 Correlation:  1.0000 wB97M-V
 Using SG-2 standard quadrature grid
 Nonlocal Correlation:  VV10 with C = 0.0100 and b = 6.00 and scale = 1.00000
 Grid used for NLC:  SG-1 standard quadrature
 
 Citation of the SMD model:
 Marenich, A.V.; Cramer, C.J.; Truhlar, D.G.
 J. Phys. Chem. B 2009, 113, 6378-6396.
 iSolventCode=           1
 Solvent: water                                                           
 
 vradii
            1           2           3           4           5           6
    1   1.8500000   1.8500000   1.8500000   1.8500000   1.8500000   1.8500000
            7           8           9          10          11          12
    1   1.8500000   1.2000000   1.2000000   1.2000000   1.2000000   1.2000000
           13          14          15          16          17          18
    1   1.2000000   1.5200000   1.2000000   1.2000000   1.5200000   1.2000000
 -------------------------------------------------------
 OpenMP BLAS3 based DFT computing Module                
 Release: version 1.0, May 2013, Q-Chem Inc. Pittsburgh 
 -------------------------------------------------------
 A unrestricted SCF calculation will be
 performed using Roothaan-Hall, DIIS, GDM
 SCF converges when RMS gradient is below 1.0e-06
 ---------------------------------------
  Cycle       Energy         DIIS error
 ---------------------------------------
    1    -422.4417039000      2.23e-04  Roothaan Step
 ---------------------------------------
  Cycle       Energy         DIIS error
 ---------------------------------------
    1    -422.4679363914      2.67e-04  
    2    -422.4723794604      2.57e-04  Done DIIS. Switching to GDM
 ---------------------------------------
  Cycle       Energy        RMS Gradient
 ---------------------------------------
    1    -422.4723794604      1.32e-02   Normal BFGS step
    2    -422.4712666433      2.31e-02  Line search: overstep
    3    -422.4758432625      3.65e-03   Normal BFGS step
    4    -422.4760082844      8.56e-04   Normal BFGS step
    5    -422.4760585270      7.44e-04   Normal BFGS step
    6    -422.4760618247      3.84e-04   Normal BFGS step
    7    -422.4760635026      2.38e-04   Normal BFGS step
    8    -422.4760639027      9.42e-05   Normal BFGS step
    9    -422.4760640150      3.97e-05   Normal BFGS step
   10    -422.4760640316      2.58e-05   Normal BFGS step
   11    -422.4760640356      1.85e-05   Normal BFGS step
   12    -422.4760640369      1.05e-05   Normal BFGS step
   13    -422.4760640373      5.36e-06   Normal BFGS step
   14    -422.4760640375      2.57e-06   Normal BFGS step
   15    -422.4760640375      1.04e-06   Normal BFGS step
   16    -422.4760640370      4.52e-07  Convergence criterion met
 ---------------------------------------
 SCF time:   CPU 2316.48s  wall 88.00s 
<S^2> =          0.795187088
(3)  G-ENP(liq) elect-nuc-pol free energy of system     -422.476064037 a.u.
(4)  G-CDS(liq) cavity-dispersion-solvent structure 
     free energy                                                3.5993 kcal/mol
(6)  G-S(liq) free energy of system                     -422.470328223 a.u.
 SCF   energy in the final basis set =     -422.4703282225
 Total energy in the final basis set =     -422.4703282225
 
 --------------------------------------------------------------
 
                    Orbital Energies (a.u.)
 --------------------------------------------------------------
 
 Alpha MOs
 -- Occupied --
-19.3360 -19.3279 -10.3973 -10.3844 -10.3609 -10.3521 -10.3503 -10.3493
-10.3389  -1.1507  -1.1178  -0.9873  -0.8975  -0.8755  -0.8018  -0.7341
 -0.7078  -0.6406  -0.6121  -0.5963  -0.5736  -0.5679  -0.5347  -0.5264
 -0.5213  -0.4883  -0.4745  -0.4449  -0.4363  -0.4319  -0.4208  -0.3899
 -0.3345  -0.2793
 -- Virtual --
  0.0236   0.0341   0.0365   0.0461   0.0548   0.0558   0.0584   0.0649
  0.0857   0.0859   0.0910   0.0969   0.1080   0.1293   0.1359   0.1425
  0.1441   0.1483   0.1513   0.1594   0.1623   0.1658   0.1665   0.1764
  0.1782   0.1802   0.1938   0.1965   0.2041   0.2128   0.2185   0.2201
  0.2301   0.2394   0.2457   0.2523   0.2553   0.2631   0.2752   0.2860
  0.2927   0.2940   0.3116   0.3202   0.3226   0.3335   0.3354   0.3420
  0.3507   0.3517   0.3547   0.3654   0.3693   0.3763   0.3809   0.4057
  0.4162   0.4269   0.4375   0.4472   0.4652   0.4731   0.5308   0.5349
  0.5477   0.5781   0.5832   0.5932   0.6000   0.6086   0.6126   0.6166
  0.6205   0.6318   0.6340   0.6438   0.6520   0.6743   0.6835   0.6940
  0.6968   0.7027   0.7185   0.7234   0.7239   0.7345   0.7386   0.7491
  0.7624   0.7657   0.7817   0.7950   0.8164   0.8292   0.8320   0.8378
  0.8426   0.8658   0.8735   0.8848   0.8925   0.9002   0.9087   0.9265
  0.9599   0.9920   0.9940   1.0247   1.0350   1.0576   1.0730   1.0844
  1.1044   1.1162   1.1276   1.1489   1.1652   1.1730   1.1771   1.1857
  1.1966   1.2110   1.2278   1.2388   1.2439   1.2681   1.2768   1.2836
  1.2964   1.3055   1.3229   1.3261   1.3417   1.3571   1.3846   1.3870
  1.3935   1.4143   1.4162   1.4315   1.4360   1.4439   1.4577   1.4673
  1.4823   1.4904   1.5102   1.5444   1.5488   1.5571   1.5685   1.5731
  1.5919   1.5985   1.6241   1.6739   1.6744   1.7201   1.7540   1.7856
  1.7971   1.8089   1.8310   1.8531   1.8782   1.9008   1.9373   1.9653
  2.0051   2.0263   2.0580   2.0862   2.0980   2.1068   2.1422   2.1531
  2.2057   2.2550   2.3414   2.3635   2.4074   2.5741   2.6105   2.6298
  2.6461   2.6738   2.7065   2.7132   2.7576   2.7684   2.7960   2.8025
  2.8230   2.8397   2.8480   2.8586   2.8735   2.8860   2.9067   2.9154
  2.9339   2.9409   2.9592   2.9716   2.9841   2.9936   3.0341   3.0522
  3.0645   3.0766   3.0786   3.1254   3.1499   3.1621   3.1660   3.1834
  3.1943   3.2290   3.2452   3.2649   3.2742   3.2847   3.2943   3.3076
  3.3165   3.3191   3.3508   3.3733   3.3846   3.4142   3.4174   3.4321
  3.4620   3.4679   3.4797   3.5107   3.5174   3.5447   3.5501   3.5632
  3.5715   3.5894   3.6160   3.6296   3.6344   3.6808   3.6992   3.7171
  3.7341   3.7445   3.7718   3.7750   3.8017   3.8102   3.8214   3.8305
  3.8427   3.8662   3.8961   3.9159   3.9194   3.9397   3.9523   3.9831
  3.9927   4.0080   4.0289   4.0446   4.0626   4.0928   4.1273   4.1488
  4.1772   4.1874   4.2032   4.2101   4.2420   4.2616   4.2815   4.3111
  4.3247   4.3483   4.3795   4.3859   4.3876   4.4076   4.4253   4.4352
  4.4609   4.4944   4.4982   4.5186   4.5459   4.5540   4.5735   4.5856
  4.6153   4.6212   4.6806   4.7143   4.7509   4.7910   4.8062   4.8650
  4.9432   5.0294   5.0758   5.1270   5.1713   5.1788   5.2092   5.2583
  5.2896   5.2933   5.3165   5.3244   5.3376   5.3455   5.4157   5.4605
  5.4659   5.4782   5.5166   5.5313   5.5913   5.6609   5.6820   5.6966
  5.7161   5.7372   5.7915   5.8316   5.8426   5.8987   5.9075   5.9387
  6.0184   6.1816   6.5646   6.5935   7.1033   7.1065   7.2116   7.2423
  7.2891   7.3082   7.3218   7.3593   7.5780   7.6335   7.7214   7.7869
 24.1985  24.7478  24.7991  24.8045  25.0014  25.0503  25.4748  50.5912
 50.6098
 
 Beta MOs
 -- Occupied --
-19.3362 -19.3176 -10.3980 -10.3843 -10.3559 -10.3516 -10.3469 -10.3455
-10.3412  -1.1512  -1.0975  -0.9806  -0.8929  -0.8689  -0.7978  -0.7281
 -0.7048  -0.6372  -0.6102  -0.5808  -0.5698  -0.5644  -0.5312  -0.5243
 -0.5158  -0.4764  -0.4624  -0.4425  -0.4313  -0.4085  -0.4056  -0.3886
 -0.3210
 -- Virtual --
 -0.0339   0.0232   0.0339   0.0368   0.0459   0.0552   0.0563   0.0656
  0.0740   0.0858   0.0874   0.0937   0.1038   0.1102   0.1300   0.1360
  0.1426   0.1451   0.1486   0.1513   0.1592   0.1620   0.1668   0.1680
  0.1764   0.1781   0.1814   0.1940   0.1963   0.2036   0.2119   0.2183
  0.2198   0.2300   0.2393   0.2454   0.2545   0.2579   0.2640   0.2746
  0.2863   0.2928   0.2952   0.3135   0.3210   0.3237   0.3341   0.3355
  0.3424   0.3517   0.3531   0.3557   0.3673   0.3696   0.3769   0.3801
  0.4061   0.4175   0.4289   0.4387   0.4484   0.4659   0.4743   0.5314
  0.5369   0.5509   0.5814   0.5862   0.5960   0.6036   0.6099   0.6163
  0.6202   0.6235   0.6346   0.6370   0.6455   0.6549   0.6761   0.6850
  0.6963   0.7008   0.7056   0.7199   0.7256   0.7265   0.7365   0.7413
  0.7507   0.7631   0.7699   0.7863   0.7974   0.8184   0.8297   0.8367
  0.8411   0.8460   0.8688   0.8760   0.8873   0.8947   0.9028   0.9125
  0.9284   0.9617   0.9951   0.9964   1.0263   1.0362   1.0588   1.0748
  1.0865   1.1059   1.1189   1.1286   1.1517   1.1670   1.1740   1.1790
  1.1904   1.1997   1.2139   1.2292   1.2399   1.2452   1.2703   1.2788
  1.2889   1.2978   1.3075   1.3247   1.3296   1.3440   1.3594   1.3886
  1.3900   1.3964   1.4169   1.4183   1.4338   1.4390   1.4478   1.4601
  1.4720   1.4853   1.4922   1.5147   1.5463   1.5521   1.5602   1.5704
  1.5779   1.5929   1.6022   1.6252   1.6772   1.6783   1.7242   1.7586
  1.7897   1.8034   1.8141   1.8372   1.8576   1.8827   1.9074   1.9419
  1.9702   2.0120   2.0286   2.0643   2.0902   2.1029   2.1122   2.1493
  2.1573   2.2071   2.2577   2.3420   2.3638   2.4125   2.5806   2.6145
  2.6360   2.6501   2.6798   2.7130   2.7215   2.7660   2.7781   2.8058
  2.8137   2.8284   2.8466   2.8540   2.8659   2.8828   2.8945   2.9139
  2.9257   2.9406   2.9471   2.9653   2.9822   2.9963   3.0033   3.0414
  3.0626   3.0710   3.0864   3.0926   3.1283   3.1541   3.1702   3.1745
[...]
 -----------------------------------------------------------------
    Charge (ESU x 10^10)
                 0.0000
    Dipole Moment (Debye)
         X      -3.4336      Y       1.9616      Z      -0.2770
       Tot       3.9642
    Quadrupole Moments (Debye-Ang)
        XX     -49.9936     XY       3.7315     YY     -63.7773
        XZ       4.2256     YZ       4.2817     ZZ     -45.3871
    Octopole Moments (Debye-Ang^2)
       XXX     146.1423    XXY      10.8897    XYY      25.0235
       YYY     117.0247    XXZ     -13.5705    XYZ      10.5238
       YYZ     -13.0663    XZZ      43.0011    YZZ      24.5442
       ZZZ     -30.1927
    Hexadecapole Moments (Debye-Ang^3)
      XXXX    -740.8119   XXXY    -130.5088   XXYY    -210.9369
      XYYY    -115.7908   YYYY    -819.8982   XXXZ      69.2572
      XXYZ      61.5077   XYYZ      -0.0921   YYYZ     228.0806
      XXZZ    -196.9212   XYZZ     -47.5713   YYZZ    -229.7653
      XZZZ      37.2620   YZZZ     191.4722   ZZZZ    -470.2630
 -----------------------------------------------------------------
 Calculating analytic gradient of the SCF energy
 Gradient of CDS energy
            1           2           3           4           5           6
    1  -0.0000589   0.0000477  -0.0000969  -0.0003290  -0.0001246   0.0002955
    2   0.0002318   0.0000123  -0.0002854  -0.0003216   0.0001939  -0.0001432
    3   0.0000866   0.0002475   0.0002858  -0.0001539  -0.0002637  -0.0000241
            7           8           9          10          11          12
    1  -0.0002546   0.0000978   0.0000938  -0.0000665  -0.0001421  -0.0000482
    2   0.0010696   0.0001412  -0.0000608  -0.0001605  -0.0001260   0.0000806
    3  -0.0004045   0.0000405   0.0001769   0.0001100  -0.0000826  -0.0001668
           13          14          15          16          17          18
    1  -0.0001152  -0.0001115   0.0001762   0.0003794  -0.0002453   0.0005024
    2  -0.0002150  -0.0000885  -0.0000502  -0.0002264  -0.0000214  -0.0000306
    3  -0.0000715   0.0002329   0.0002534  -0.0003085  -0.0000298   0.0000717
 Gradient of SCF Energy
            1           2           3           4           5           6
    1  -0.0052596  -0.0012775  -0.0010556   0.0059623   0.0041279  -0.0003985
    2  -0.0011109  -0.0056739   0.0057870   0.0017974  -0.0041105   0.0035506
    3  -0.0036053  -0.0031754  -0.0014161   0.0048528   0.0074329  -0.0011063
            7           8           9          10          11          12
    1   0.0056657   0.0049899   0.0008892  -0.0024752  -0.0050654  -0.0037825
    2  -0.0076243   0.0048648   0.0016048  -0.0026912  -0.0038516   0.0022287
    3   0.0012612   0.0040997   0.0058895   0.0023426  -0.0030747  -0.0101375
           13          14          15          16          17          18
    1  -0.0052112   0.0058323  -0.0020297  -0.0040504  -0.0001749   0.0033132
    2   0.0006924   0.0091771   0.0042720  -0.0076672  -0.0078959   0.0066508
    3  -0.0059187   0.0069122   0.0038674  -0.0073670  -0.0046120   0.0037547
 Max gradient component =       1.014E-02
 RMS gradient           =       4.758E-03
 Computing fast CPCM-SWIG gradient
 Updating gradient with PCM contributions...
 -- total gradient after adding PCM contribution --
---------------------------------------------------
  Atom         X              Y              Z     
---------------------------------------------------
   1       0.000002      -0.000022      -0.000016
   2       0.000000       0.000010       0.000084
   3       0.000000       0.000004       0.000018
   4      -0.000010       0.000032      -0.000062
   5       0.000001      -0.000020      -0.000010
   6       0.000009      -0.000001       0.000041
   7       0.000009       0.000015       0.000014
   8      -0.000019      -0.000008       0.000014
   9      -0.000051      -0.000005      -0.000098
  10      -0.000021       0.000000      -0.000019
  11       0.000000       0.000006      -0.000023
  12       0.000018       0.000005      -0.000013
  13       0.000020       0.000004       0.000005
  14       0.000022      -0.000016       0.000009
  15       0.000001       0.000003       0.000014
  16       0.000029       0.000007       0.000013
  17      -0.000005      -0.000019       0.000018
  18      -0.000007       0.000003       0.000013
---------------------------------------------------
 Number of fixed atoms: 0
 Gradient time:  CPU 350.33 s  wall 16.52 s
 Geometry Optimization Parameters
   NAtoms,    NIC,     NZ,  NCons,   NDum,   NFix, NCnnct, MaxDiis
       18     123       0       0       0       0       0       0

 Cartesian Hessian Update
 Hessian updated using Powell/Murtagh-Sargent update
  Mixing factors:     0.998309 Powell                      0.001691 Murtagh-Sargent


** GEOMETRY OPTIMIZATION IN DELOCALIZED INTERNAL COORDINATES **
   Searching for a Transition State

   Optimization Cycle:  46

                       Coordinates (Angstroms)
     ATOM                X               Y               Z
      1  C        -0.6411881012   -0.0101075728    1.0489514734
      2  C        -1.0346597111   -1.1547508318    1.7693899992
      3  C        -2.0250633091   -2.0050314638    1.2265041788
      4  C        -2.5115185535   -1.7682552935   -0.0369448441
      5  C        -2.0541500683   -0.6666930911   -0.7675822904
      6  C        -1.1273663425    0.2216207777   -0.2275274805
      7  C        -0.6336544767    1.3980170794   -1.0250442952
      8  H         0.0654821727    0.6795736414    1.4933973518
      9  H        -0.7783221983   -1.2379061542    2.8145913205
     10  H        -2.3745554803   -2.8488206263    1.8047655931
     11  H        -3.2533955969   -2.4259301596   -0.4680355845
     12  H        -2.4400195712   -0.4868080569   -1.7634583434
     13  H        -1.3284308249    1.6193146241   -1.8366464549
     14  O         0.6817215639    1.1759004557   -1.5466697793
     15  H        -0.5539035092    2.2782303185   -0.3902331882
     16  H         0.6353344314    0.4320854843   -2.1573181599
     17  O         0.6280053071   -2.3135247108    1.2624109380
     18  H         1.2722244682   -1.6322959202    1.5059138657
   Point Group: c1    Number of degrees of freedom:    48


   Energy is   -422.500131062

 Hessian updated using Powell/Murtagh-Sargent update
  Mixing factors:     0.999523 Powell                      0.000477 Murtagh-Sargent

 48 Hessian modes will be used to form the next step
  Hessian Eigenvalues:
    -0.047680    0.000271    0.001734    0.003499    0.010111    0.014775
     0.015413    0.016920    0.020432    0.023847    0.025475    0.026167
     0.054548    0.057165    0.062063    0.072707    0.088712    0.101409
     0.104544    0.107452    0.114654    0.117557    0.123295    0.127206
     0.132131    0.149683    0.167974    0.174367    0.186394    0.196519
     0.219785    0.248063    0.285022    0.306476    0.331609    0.340061
     0.358039    0.360809    0.363264    0.364230    0.369092    0.385472
     0.405730    0.426111    0.470634    0.492787    0.517151    0.523845

 Transition state search - taking P-RFO step
 Searching for Lamda that Maximizes Along the Lowest mode
 Value Taken    Lamda =   0.00000000
 Searching for Lamda that Minimizes Along All other modes
 Value Taken    Lamda =  -0.00000062
 Step Taken.  Stepsize is  0.044758

                             Maximum     Tolerance    Cnvgd?
         Gradient           0.000051      0.000300     YES
         Displacement       0.022324      0.001200      NO
         Energy change     -0.000001      0.000001     YES

 Final energy is   -422.500131061675     


 ******************************
 **  OPTIMIZATION CONVERGED  **
 ******************************

                       Coordinates (Angstroms)
     ATOM                X               Y               Z
      1  C        -0.6411881012   -0.0101075728    1.0489514734
      2  C        -1.0346597111   -1.1547508318    1.7693899992
      3  C        -2.0250633091   -2.0050314638    1.2265041788
      4  C        -2.5115185535   -1.7682552935   -0.0369448441
      5  C        -2.0541500683   -0.6666930911   -0.7675822904
      6  C        -1.1273663425    0.2216207777   -0.2275274805
      7  C        -0.6336544767    1.3980170794   -1.0250442952
      8  H         0.0654821727    0.6795736414    1.4933973518
      9  H        -0.7783221983   -1.2379061542    2.8145913205
     10  H        -2.3745554803   -2.8488206263    1.8047655931
     11  H        -3.2533955969   -2.4259301596   -0.4680355845
     12  H        -2.4400195712   -0.4868080569   -1.7634583434
     13  H        -1.3284308249    1.6193146241   -1.8366464549
     14  O         0.6817215639    1.1759004557   -1.5466697793
     15  H        -0.5539035092    2.2782303185   -0.3902331882
     16  H         0.6353344314    0.4320854843   -2.1573181599
     17  O         0.6280053071   -2.3135247108    1.2624109380
     18  H         1.2722244682   -1.6322959202    1.5059138657

Z-matrix Print:
$molecule
0 2
C 
C  1 1.385448
H  2 1.082855 1 120.042131
C  1 1.392727 2 118.953782 3 -178.824117 0
H  4 1.083062 1 119.189499 2 179.733151 0
C  4 1.398734 1 121.154813 2 0.974558 0
H  6 1.081091 4 119.682470 1 178.166286 0
C  6 1.374411 4 120.008263 1 -1.368662 0
H  8 1.080977 6 120.783628 4 179.594355 0
C  2 1.408567 1 120.606192 3 -178.590650 0
H  10 1.079384 2 119.441652 1 -169.994140 0
C  1 1.504557 2 120.265152 3 2.599203 0
H  12 1.088173 1 110.321326 2 -41.889985 0
H  12 1.091048 1 110.116662 2 -161.569376 0
O  12 1.432356 1 111.908972 2 75.493357 0
H  15 0.963485 12 107.837109 1 63.232202 0
O  10 2.089076 2 95.987043 1 96.396711 0
H  17 0.968703 10 94.485871 2 50.036904 0
$end

 
 --------------------------------------------------------------
 
                    Orbital Energies (a.u.)
 --------------------------------------------------------------
 
 Alpha MOs
 -- Occupied --
-19.3425 -19.3378 -10.3866 -10.3744 -10.3592 -10.3590 -10.3558 -10.3544
-10.3485  -1.1540  -1.0971  -0.9958  -0.8985  -0.8802  -0.8010  -0.7349
 -0.7109  -0.6411  -0.6104  -0.5800  -0.5668  -0.5571  -0.5439  -0.5327
 -0.5257  -0.5090  -0.4729  -0.4545  -0.4432  -0.4331  -0.4170  -0.3933
 -0.3541  -0.3240
 -- Virtual --
  0.0233   0.0350   0.0363   0.0449   0.0516   0.0550   0.0586   0.0597
  0.0717   0.0853   0.0879   0.0951   0.1094   0.1273   0.1365   0.1432
  0.1460   0.1495   0.1563   0.1597   0.1604   0.1627   0.1702   0.1760
  0.1783   0.1792   0.1923   0.1975   0.2056   0.2130   0.2146   0.2173
  0.2325   0.2378   0.2478   0.2553   0.2575   0.2625   0.2721   0.2757
  0.2968   0.2997   0.3118   0.3210   0.3240   0.3249   0.3395   0.3462
  0.3503   0.3536   0.3575   0.3596   0.3661   0.3804   0.3822   0.4009
  0.4222   0.4266   0.4312   0.4441   0.4558   0.4656   0.5296   0.5375
  0.5458   0.5755   0.5934   0.5969   0.5998   0.6045   0.6082   0.6141
  0.6198   0.6315   0.6351   0.6431   0.6550   0.6726   0.6813   0.6893
  0.6962   0.7059   0.7165   0.7207   0.7283   0.7342   0.7403   0.7444
  0.7551   0.7597   0.7679   0.7928   0.8046   0.8189   0.8284   0.8354
  0.8432   0.8545   0.8676   0.8716   0.8870   0.8950   0.9033   0.9190
  0.9364   0.9621   0.9947   1.0092   1.0284   1.0473   1.0560   1.0594
  1.0814   1.1135   1.1238   1.1377   1.1429   1.1649   1.1703   1.1838
  1.2012   1.2123   1.2186   1.2255   1.2427   1.2469   1.2570   1.2765
  1.2964   1.3010   1.3091   1.3282   1.3330   1.3509   1.3730   1.3891
  1.4041   1.4093   1.4179   1.4300   1.4370   1.4470   1.4593   1.4660
  1.4755   1.5042   1.5301   1.5315   1.5428   1.5545   1.5658   1.5741
  1.5827   1.6046   1.6234   1.6580   1.6804   1.7178   1.7334   1.7645
  1.7812   1.7923   1.8157   1.8559   1.8716   1.8823   1.8920   1.9277
  1.9726   1.9950   2.0361   2.0419   2.0786   2.0884   2.1343   2.1420
  2.1890   2.2550   2.3439   2.3588   2.3783   2.5575   2.6093   2.6378
  2.6408   2.6591   2.6913   2.7185   2.7279   2.7771   2.8014   2.8077
  2.8133   2.8278   2.8408   2.8543   2.8741   2.8862   2.8893   2.9120
  2.9188   2.9244   2.9415   2.9571   2.9716   2.9870   2.9964   3.0302
  3.0538   3.0597   3.0855   3.1320   3.1546   3.1624   3.1687   3.1776
  3.1924   3.2091   3.2327   3.2496   3.2612   3.2647   3.2739   3.2906
  3.2926   3.3152   3.3408   3.3590   3.3722   3.3837   3.3922   3.4125
  3.4406   3.4487   3.4676   3.4778   3.5023   3.5171   3.5262   3.5441
  3.5563   3.5725   3.5953   3.5976   3.6184   3.6473   3.6704   3.6880
  3.7177   3.7368   3.7615   3.7718   3.8032   3.8069   3.8222   3.8294
  3.8448   3.8585   3.8798   3.8810   3.9139   3.9177   3.9350   3.9581
  3.9676   3.9792   4.0079   4.0373   4.0876   4.0964   4.1257   4.1510
  4.1660   4.1775   4.2009   4.2127   4.2498   4.2809   4.2856   4.3109
  4.3190   4.3386   4.3638   4.3845   4.4085   4.4269   4.4273   4.4409
  4.4647   4.4892   4.5007   4.5419   4.5451   4.5731   4.5789   4.5861
  4.6161   4.6434   4.6824   4.7396   4.7689   4.7935   4.8324   4.8784
  4.9438   5.0368   5.1121   5.1171   5.1652   5.1776   5.1872   5.2021
  5.2172   5.2526   5.2577   5.2794   5.2872   5.3098   5.3149   5.3403
  5.3957   5.4217   5.4642   5.5106   5.5335   5.6042   5.6667   5.6773
  5.6861   5.7184   5.7650   5.8151   5.8411   5.8560   5.9156   5.9321
  6.0293   6.2256   6.5822   6.6097   6.9944   7.0363   7.0978   7.1011
  7.1640   7.2975   7.3097   7.3244   7.3594   7.5798   7.6393   7.7857
 24.1909  24.7401  24.8083  24.8139  25.0046  25.0573  25.4858  50.5063
 50.5908
 
 Beta MOs
 -- Occupied --
-19.3380 -19.3249 -10.3865 -10.3743 -10.3563 -10.3560 -10.3556 -10.3533
-10.3498  -1.1543  -1.0565  -0.9912  -0.8969  -0.8749  -0.7988  -0.7319
 -0.7089  -0.6397  -0.6092  -0.5769  -0.5648  -0.5471  -0.5373  -0.5274
 -0.5234  -0.4811  -0.4690  -0.4512  -0.4324  -0.3967  -0.3938  -0.3684
 -0.3454
 -- Virtual --
 -0.0622   0.0235   0.0353   0.0367   0.0450   0.0549   0.0563   0.0629
  0.0710   0.0787   0.0854   0.0891   0.0952   0.1092   0.1272   0.1373
  0.1439   0.1464   0.1499   0.1567   0.1603   0.1605   0.1630   0.1718
  0.1764   0.1786   0.1794   0.1937   0.1975   0.2059   0.2130   0.2150
  0.2175   0.2334   0.2375   0.2500   0.2563   0.2598   0.2636   0.2722
  0.2764   0.2979   0.3005   0.3138   0.3221   0.3250   0.3267   0.3406
  0.3471   0.3511   0.3541   0.3588   0.3610   0.3665   0.3807   0.3830
  0.4016   0.4237   0.4280   0.4321   0.4451   0.4570   0.4665   0.5309
  0.5381   0.5475   0.5787   0.5956   0.6004   0.6024   0.6056   0.6091
  0.6162   0.6246   0.6340   0.6378   0.6444   0.6580   0.6767   0.6826
  0.6909   0.6977   0.7079   0.7189   0.7226   0.7293   0.7352   0.7415
  0.7459   0.7565   0.7609   0.7696   0.7944   0.8062   0.8210   0.8303
  0.8361   0.8454   0.8562   0.8687   0.8733   0.8897   0.8976   0.9044
  0.9215   0.9393   0.9646   0.9964   1.0128   1.0295   1.0481   1.0579
  1.0621   1.0825   1.1158   1.1257   1.1398   1.1446   1.1668   1.1717
  1.1850   1.2079   1.2146   1.2217   1.2278   1.2460   1.2507   1.2575
  1.2829   1.2968   1.3053   1.3186   1.3313   1.3351   1.3537   1.3794
  1.3904   1.4057   1.4119   1.4201   1.4320   1.4397   1.4498   1.4612
  1.4682   1.4777   1.5062   1.5318   1.5360   1.5449   1.5574   1.5683
  1.5768   1.5849   1.6058   1.6240   1.6617   1.6867   1.7197   1.7444
  1.7697   1.7873   1.7990   1.8200   1.8625   1.8749   1.8902   1.9024
  1.9363   1.9755   2.0091   2.0440   2.0538   2.0815   2.0918   2.1396
  2.1452   2.1897   2.2561   2.3443   2.3596   2.3839   2.5615   2.6120
  2.6414   2.6447   2.6622   2.6959   2.7232   2.7325   2.7862   2.8076
  2.8130   2.8149   2.8322   2.8478   2.8616   2.8797   2.8899   2.8939
  2.9176   2.9235   2.9290   2.9464   2.9608   2.9804   2.9939   3.0020
  3.0355   3.0581   3.0656   3.0878   3.1320   3.1583   3.1670   3.1711
  3.1821   3.1973   3.2132   3.2358   3.2517   3.2670   3.2691   3.2781
  3.2950   3.2963   3.3196   3.3438   3.3629   3.3787   3.3907   3.3948
  3.4164   3.4442   3.4544   3.4743   3.4812   3.5070   3.5222   3.5309
  3.5480   3.5592   3.5756   3.5983   3.6091   3.6233   3.6477   3.6737
  3.6918   3.7205   3.7397   3.7656   3.7767   3.8075   3.8109   3.8256
  3.8316   3.8499   3.8625   3.8835   3.8853   3.9177   3.9231   3.9375
  3.9631   3.9708   3.9846   4.0134   4.0397   4.0941   4.1006   4.1309
  4.1542   4.1692   4.1808   4.2026   4.2153   4.2518   4.2859   4.2899
  4.3166   4.3215   4.3416   4.3676   4.3873   4.4129   4.4300   4.4315
  4.4436   4.4684   4.4932   4.5094   4.5489   4.5514   4.5784   4.5849
  4.5924   4.6196   4.6464   4.6869   4.7412   4.7749   4.7985   4.8383
  4.8834   4.9505   5.0440   5.1240   5.1346   5.1854   5.1974   5.2230
  5.2275   5.2390   5.2652   5.2802   5.2939   5.3121   5.3173   5.3478
  5.3812   5.4019   5.4565   5.4662   5.5145   5.5378   5.6043   5.6797
  5.6830   5.7178   5.7249   5.7674   5.8216   5.8534   5.8639   5.9210
  5.9335   6.0295   6.2315   6.5858   6.6107   7.0573   7.0781   7.0991
  7.1815   7.2243   7.3092   7.3242   7.3402   7.3591   7.6308   7.6397
  7.7853  24.1917  24.7411  24.8088  24.8144  25.0065  25.0581  25.4871
 50.5189  50.5907
 --------------------------------------------------------------
 
          Ground-State Mulliken Net Atomic Charges

     Atom                 Charge (a.u.)    Spin (a.u.)
  --------------------------------------------------------
      1 C                    -0.153252       0.203962
      2 C                    -0.182972      -0.027914
      3 C                    -0.364982       0.175566
      4 C                    -0.393234      -0.082628
      5 C                    -0.271644       0.208206
      6 C                     0.229253      -0.091822
      7 C                    -0.522390       0.006090
      8 H                     0.301686      -0.003722
      9 H                     0.365331       0.010458
     10 H                     0.284559      -0.003558
     11 H                     0.288280       0.002099
     12 H                     0.278506      -0.003571
     13 H                     0.201388      -0.000163
     14 O                    -0.397533      -0.002374
     15 H                     0.205250      -0.001386
     16 H                     0.328587       0.000463
     17 O                    -0.506606       0.620206
     18 H                     0.309773      -0.009912
  --------------------------------------------------------
  Sum of atomic charges =    -0.000000
  Sum of spin   charges =     1.000000

 -----------------------------------------------------------------
                    Cartesian Multipole Moments
 -----------------------------------------------------------------
    Charge (ESU x 10^10)
                 0.0000
    Dipole Moment (Debye)
         X      -3.4336      Y       1.9616      Z      -0.2770
       Tot       3.9642
    Quadrupole Moments (Debye-Ang)
        XX     -49.9936     XY       3.7315     YY     -63.7773
        XZ       4.2256     YZ       4.2817     ZZ     -45.3871
    Octopole Moments (Debye-Ang^2)
       XXX     146.1423    XXY      10.8897    XYY      25.0235
       YYY     117.0247    XXZ     -13.5705    XYZ      10.5238
       YYZ     -13.0663    XZZ      43.0011    YZZ      24.5442
       ZZZ     -30.1927
    Hexadecapole Moments (Debye-Ang^3)
      XXXX    -740.8119   XXXY    -130.5088   XXYY    -210.9369
      XYYY    -115.7908   YYYY    -819.8982   XXXZ      69.2572
      XXYZ      61.5077   XYYZ      -0.0921   YYYZ     228.0806
      XXZZ    -196.9212   XYZZ     -47.5713   YYZZ    -229.7653
      XZZZ      37.2620   YZZZ     191.4722   ZZZZ    -470.2630
 -----------------------------------------------------------------
 Total job time:  5940.36s(wall), 152549.39s(cpu) 
 Thu Oct 26 03:05:41 2023

        *************************************************************
        *                                                           *
        *  Thank you very much for using Q-Chem.  Have a nice day.  *
        *                                                           *
        *************************************************************


