
Running Job 1 of 1 Q_in.in
qchem Q_in.in_121320.0 /scratch/ari.fischer/qChem2074261.hpc-mn1/qchem121320/ 0
/usr/local/qchem-5.4.1/exe/qcprog.exe_s Q_in.in_121320.0 /scratch/ari.fischer/qChem2074261.hpc-mn1/qchem121320/
                  Welcome to Q-Chem
     A Quantum Leap Into The Future Of Chemistry


 Q-Chem 5.4, Q-Chem, Inc., Pleasanton, CA (2021)

 License issued to: Nanyang Technological University (site)

 E. Epifanovsky,  A. T. B. Gilbert,  Xintian Feng,  Joonho Lee,  Yuezhi Mao,  
 N. Mardirossian,  P. Pokhilko,  A. White,  M. Wormit,  M. P. Coons,  
 A. L. Dempwolff,  Zhengting Gan,  D. Hait,  P. R. Horn,  L. D. Jacobson,  
 I. Kaliman,  J. Kussmann,  A. W. Lange,  Ka Un Lao,  D. S. Levine,  Jie Liu,  
 S. C. McKenzie,  A. F. Morrison,  K. Nanda,  F. Plasser,  D. R. Rehn,  
 M. L. Vidal,  Zhi-Qiang You,  Ying Zhu,  B. Alam,  B. Albrecht,  
 A. Aldossary,  E. Alguire,  J. H. Andersen,  D. Barton,  K. Begam,  A. Behn,  
 Y. A. Bernard,  E. J. Berquist,  H. Burton,  A. Carreras,  K. Carter-Fenk,  
 R. Chakraborty,  A. D. Chien,  K. D. Closser,  V. Cofer-Shabica,  
 S. Dasgupta,  Jia Deng,  M. de Wergifosse,  M. Diedenhofen,  Hainam Do,  
 S. Ehlert,  Po-Tung Fang,  S. Fatehi,  Qingguo Feng,  T. Friedhoff,  
 J. Gayvert,  Qinghui Ge,  G. Gidofalvi,  M. Goldey,  J. Gomes,  
 C. Gonzalez-Espinoza,  S. Gulania,  A. Gunina,  M. W. D. Hanson-Heine,  
 P. H. P. Harbach,  A. W. Hauser,  M. F. Herbst,  M. Hernandez Vera,  
 M. Hodecker,  Z. C. Holden,  S. Houck,  Xunkun Huang,  Kerwin Hui,  
 B. C. Huynh,  M. Ivanov,  Hyunjun Ji,  Hanjie Jiang,  B. Kaduk,  S. Kaehler,  
 K. Khistyaev,  Jaehoon Kim,  P. Klunzinger,  Z. Koczor-Benda,  
 Joong Hoon Koh,  D. Kosenkov,  L. Koulias,  T. Kowalczyk,  C. M. Krauter,  
 K. Kue,  A. Kunitsa,  T. Kus,  A. Landau,  K. V. Lawler,  D. Lefrancois,  
 S. Lehtola,  Rain Li,  Yi-Pei Li,  Jiashu Liang,  M. Liebenthal,  
 Hung-Hsuan Lin,  You-Sheng Lin,  Fenglai Liu,  Kuan-Yu Liu,  
 M. Loipersberger,  A. Luenser,  A. Manjanath,  P. Manohar,  E. Mansoor,  
 S. F. Manzer,  Shan-Ping Mao,  A. V. Marenich,  T. Markovich,  S. Mason,  
 S. A. Maurer,  P. F. McLaughlin,  M. F. S. J. Menger,  J.-M. Mewes,  
 S. A. Mewes,  P. Morgante,  J. W. Mullinax,  K. J. Oosterbaan,  G. Paran,  
 Alexander C. Paul,  Suranjan K. Paul,  F. Pavosevic,  Zheng Pei,  S. Prager,  
 E. I. Proynov,  E. Ramos,  B. Rana,  A. E. Rask,  A. Rettig,  R. M. Richard,  
 F. Rob,  E. Rossomme,  T. Scheele,  M. Scheurer,  M. Schneider,  
 N. Sergueev,  S. M. Sharada,  W. Skomorowski,  D. W. Small,  C. J. Stein,  
 Yu-Chuan Su,  E. J. Sundstrom,  Zhen Tao,  J. Thirman,  T. Tsuchimochi,  
 N. M. Tubman,  S. P. Veccham,  O. Vydrov,  J. Wenzel,  J. Witte,  A. Yamada,  
 Kun Yao,  S. Yeganeh,  S. R. Yost,  A. Zech,  Igor Ying Zhang,  Xing Zhang,  
 Yu Zhang,  D. Zuev,  A. Aspuru-Guzik,  A. T. Bell,  N. A. Besley,  
 K. B. Bravaya,  B. R. Brooks,  D. Casanova,  Jeng-Da Chai,  S. Coriani,  
 C. J. Cramer,  A. E. DePrince, III,  R. A. DiStasio Jr.,  A. Dreuw,  
 B. D. Dunietz,  T. R. Furlani,  W. A. Goddard III,  S. Grimme,  
 S. Hammes-Schiffer,  T. Head-Gordon,  W. J. Hehre,  Chao-Ping Hsu,  
 T.-C. Jagau,  Yousung Jung,  A. Klamt,  Jing Kong,  D. S. Lambrecht,  
 WanZhen Liang,  N. J. Mayhall,  C. W. McCurdy,  J. B. Neaton,  
 C. Ochsenfeld,  J. A. Parkhill,  R. Peverati,  V. A. Rassolov,  Yihan Shao,  
 L. V. Slipchenko,  T. Stauch,  R. P. Steele,  J. E. Subotnik,  
 A. J. W. Thom,  A. Tkatchenko,  D. G. Truhlar,  T. Van Voorhis,  
 T. A. Wesolowski,  K. B. Whaley,  H. L. Woodcock III,  P. M. Zimmerman,  
 S. Faraji,  P. M. W. Gill,  M. Head-Gordon,  J. M. Herbert,  A. I. Krylov

 Additional authors for Version 5.4.1: 
 S. Kotaru,  Shaozhi Li,  Xiangyuan Li,  F. Matz,  A. Molle,  Haisheng Ren,  
 Yingli Su,  Hung-Yi Tsai,  C. Utku,  Fang Wang

 Contributors to earlier versions of Q-Chem not listed above: 
 R. D. Adamson,  B. Austin,  R. Baer,  J. Baker,  G. J. O. Beran,  
 K. Brandhorst,  S. T. Brown,  E. F. C. Byrd,  A. K. Chakraborty,  
 G. K. L. Chan,  Chun-Min Chang,  Yunqing Chen,  C.-L. Cheng,  
 Siu Hung Chien,  D. M. Chipman,  D. L. Crittenden,  H. Dachsel,  
 R. J. Doerksen,  A. D. Dutoi,  R. G. Edgar,  J. Fosso-Tande,  
 L. Fusti-Molnar,  D. Ghosh,  A. Ghysels,  A. Golubeva-Zadorozhnaya,  
 J. Gonthier,  M. S. Gordon,  S. R. Gwaltney,  G. Hawkins,  J. E. Herr,  
 A. Heyden,  S. Hirata,  E. G. Hohenstein,  G. Kedziora,  F. J. Keil,  
 C. Kelley,  Jihan Kim,  R. A. King,  R. Z. Khaliullin,  P. P. Korambath,  
 W. Kurlancheek,  A. Laurent,  A. M. Lee,  M. S. Lee,  S. V. Levchenko,  
 Ching Yeh Lin,  D. Liotard,  E. Livshits,  R. C. Lochan,  I. Lotan,  
 L. A. Martinez-Martinez,  P. E. Maslen,  N. Nair,  D. P. O'Neill,  
 D. Neuhauser,  E. Neuscamman,  C. M. Oana,  R. Olivares-Amaya,  R. Olson,  
 T. M. Perrine,  B. Peters,  P. A. Pieniazek,  A. Prociuk,  Y. M. Rhee,  
 J. Ritchie,  M. A. Rohrdanz,  E. Rosta,  N. J. Russ,  H. F. Schaefer III,  
 M. W. Schmidt,  N. E. Schultz,  S. Sharma,  N. Shenvi,  C. D. Sherrill,  
 A. C. Simmonett,  A. Sodt,  T. Stein,  D. Stuck,  K. S. Thanthiriwatte,  
 V. Vanovschi,  L. Vogt,  Tao Wang,  A. Warshel,  M. A. Watson,  
 C. F. Williams,  Q. Wu,  X. Xu,  Jun Yang,  W. Zhang,  Yan Zhao

 Please cite Q-Chem as follows:
 Y. Shao et al., Mol. Phys. 113, 184-215 (2015)
 DOI: 10.1080/00268976.2014.952696

 Q-Chem 5.4.1 for Intel X86 EM64T Linux

 Parts of Q-Chem use Armadillo 9.800.1 (Horizon Scraper).
 http://arma.sourceforge.net/

 Q-Chem begins on Tue Apr 23 18:42:15 2024  

 Host: 
0

     Scratch files written to /scratch/ari.fischer/qChem2074261.hpc-mn1/qchem121320//
 Aug1521 |scratch|qcdevops|jenkins|workspace|build_RNUM 8249   
 Processing $rem in /usr/local/qchem-5.4.1/config/preferences:
 Processing $rem in /home/ari.fischer/.qchemrc:
 Symmetry turned off for PCM/SM12/SMD calculation


!!********************************************.
!!******************Warning*******************.
!!Desired Analytical derivatives not available.
!!Finite difference job might take a long time.
!!********************************************.
!!********************************************.


 2-order derivative to be evaluated numerically with 1-order analytical derivatives

 Checking the input file for inconsistencies... 	...done.

--------------------------------------------------------------
User input:
--------------------------------------------------------------
$molecule
0 2
H         0.5975412937    1.4150050574    1.9989805386
C         0.0604941438    1.4039421775    1.0593498098
C        -1.3536991388    1.4015264431    1.0747726911
H        -1.8863848923    1.4130135969    2.0143839163
C        -2.0668689809    1.4014878971   -0.1463162618
H        -3.1491565101    1.4159383602   -0.1251550765
C        -1.4169942096    1.3879164563   -1.3369195954
H        -1.9669268719    1.3892305119   -2.2698903988
C         0.0741556603    1.3743426665   -1.4357581522
H         0.3901797928    0.4734727431   -1.9794642818
C         0.7517460851    1.3983753326   -0.1075171303
H         1.8341846057    1.4072254506   -0.1125565761
O         0.5555806387    2.5123782426   -2.1957484200
H         0.2859854838    2.3844946645   -3.1126202631
$end

$rem
BASIS = 6-311++G(2df,2p)
GUI = 2
JOB_TYPE = Frequency
METHOD = wB97M-V
SOLVENT_METHOD = SMD
SCF_ALGORITHM = DIIS_GDM
MAX_SCF_CYCLES = 400
SCF_CONVERGENCE = 7
THRESH = 12
$end
--------------------------------------------------------------
 ----------------------------------------------------------------
             Standard Nuclear Orientation (Angstroms)
    I     Atom           X                Y                Z
 ----------------------------------------------------------------
    1      H       0.5975412937     1.4150050574     1.9989805386
    2      C       0.0604941438     1.4039421775     1.0593498098
    3      C      -1.3536991388     1.4015264431     1.0747726911
    4      H      -1.8863848923     1.4130135969     2.0143839163
    5      C      -2.0668689809     1.4014878971    -0.1463162618
    6      H      -3.1491565101     1.4159383602    -0.1251550765
    7      C      -1.4169942096     1.3879164563    -1.3369195954
    8      H      -1.9669268719     1.3892305119    -2.2698903988
    9      C       0.0741556603     1.3743426665    -1.4357581522
   10      H       0.3901797928     0.4734727431    -1.9794642818
   11      C       0.7517460851     1.3983753326    -0.1075171303
   12      H       1.8341846057     1.4072254506    -0.1125565761
   13      O       0.5555806387     2.5123782426    -2.1957484200
   14      H       0.2859854838     2.3844946645    -3.1126202631
 ----------------------------------------------------------------
 Nuclear Repulsion Energy =         279.91062451 hartrees
 There are       26 alpha and       25 beta electrons
 Requested basis set is 6-311++G(2df,2p)
 There are 98 shells and 308 basis functions

 Total QAlloc Memory Limit 288000 MB
 Mega-Array Size       188 MB
 MEM_STATIC part       192 MB
 
 Citation of the SMD model:
 Marenich, A.V.; Cramer, C.J.; Truhlar, D.G.
 J. Phys. Chem. B 2009, 113, 6378-6396.
 iSolventCode=           1
 Solvent: water                                                           
 
 vradii
            1           2           3           4           5           6
    1   1.2000000   1.8500000   1.8500000   1.2000000   1.8500000   1.2000000
            7           8           9          10          11          12
    1   1.8500000   1.2000000   1.8500000   1.2000000   1.8500000   1.2000000
           13          14
    1   1.5200000   1.2000000
 Changing PCM_VDW_RADII to SMD_RADIUS
 Discretize the solute cavity surface with Lebedev spheres
	Using 110 Lebedev grid points for each H atom
	Using 194 Lebedev grid points for other atoms
	Atomic van der Waals radii will be scaled by 1.20
 Remove points where switching function is < 1.0e-08
 Keep 1036 surface tesserae and discard 1092 interior tesserae
 Molecular Surface Area = 125.521 Angst**2

                       Distance Matrix (Angstroms)
             H (  1)   C (  2)   C (  3)   H (  4)   C (  5)   H (  6)
   C (  2)  1.082334
   C (  3)  2.159093  1.414279
   H (  4)  2.483975  2.168527  1.080164
   C (  5)  3.420755  2.445263  1.414097  2.168256
   H (  6)  4.306936  3.421265  2.159560  2.484397  1.082591
   C (  7)  3.897091  2.815197  2.412561  3.384109  1.356487  2.114130
   H (  8)  4.980002  3.898011  3.400437  4.285097  2.125960  2.449137
   C (  9)  3.474625  2.495321  2.888299  3.968463  2.499477  3.479821
   H ( 10)  4.093593  3.195130  3.637411  4.692154  3.202926  4.105314
   C ( 11)  2.112200  1.356259  2.414688  3.385619  2.818884  3.900982
   H ( 12)  2.447026  2.125877  3.401821  4.285621  3.901204  4.983365
   O ( 13)  4.336097  3.474105  3.946600  4.989691  3.508774  4.383448
   H ( 14)  5.212048  4.291581  4.603157  5.652357  3.911673  4.654380
             C (  7)   H (  8)   C (  9)   H ( 10)   C ( 11)   H ( 12)
   H (  8)  1.082988
   C (  9)  1.494484  2.204998
   H ( 10)  2.124841  2.545371  1.098660
   C ( 11)  2.492985  3.473777  1.491285  2.119047
   H ( 12)  3.474133  4.370682  2.202191  2.538186  1.082486
   O ( 13)  2.427561  2.762246  1.450683  2.057006  2.374909  2.682514
   H ( 14)  2.654510  2.603144  1.969047  2.224164  3.196875  3.514592
             O ( 13)
   H ( 14)  0.964204
 
 A cutoff of  1.0D-12 yielded   4598 shell pairs
 There are     46203 function pairs (     57514 Cartesian)
 Smallest overlap matrix eigenvalue = 1.27E-06
 Guess from superposition of atomic densities
 Warning:  Energy on first SCF cycle will be non-variational
 SAD guess density has 51.000000 electrons

 -----------------------------------------------------------------------
  General SCF calculation program by
  Eric Jon Sundstrom, Paul Horn, Yuezhi Mao, Dmitri Zuev, Alec White,
  David Stuck, Shaama M.S., Shane Yost, Joonho Lee, David Small,
  Daniel Levine, Susi Lehtola, Hugh Burton, Evgeny Epifanovsky,
  Bang C. Huynh
 -----------------------------------------------------------------------
 Exchange:     0.1500 Hartree-Fock + 1.0000 wB97M-V + LR-HF
 Correlation:  1.0000 wB97M-V
 Using SG-2 standard quadrature grid
 Nonlocal Correlation:  VV10 with C = 0.0100 and b = 6.00 and scale = 1.00000
 Grid used for NLC:  SG-1 standard quadrature
 using 16 threads for integral computing
 -------------------------------------------------------
 OpenMP Integral computing Module                
 Release: version 1.0, May 2013, Q-Chem Inc. Pittsburgh 
 -------------------------------------------------------
 
 Citation of the SMD model:
 Marenich, A.V.; Cramer, C.J.; Truhlar, D.G.
 J. Phys. Chem. B 2009, 113, 6378-6396.
 iSolventCode=           1
 Solvent: water                                                           
 
 vradii
            1           2           3           4           5           6
    1   1.2000000   1.8500000   1.8500000   1.2000000   1.8500000   1.2000000
            7           8           9          10          11          12
    1   1.8500000   1.2000000   1.8500000   1.2000000   1.8500000   1.2000000
           13          14
    1   1.5200000   1.2000000
 -------------------------------------------------------
 OpenMP BLAS3 based DFT computing Module                
 Release: version 1.0, May 2013, Q-Chem Inc. Pittsburgh 
 -------------------------------------------------------
 A unrestricted SCF calculation will be
 performed using DIIS, GDM
 SCF converges when RMS gradient is below 1.0e-07
 ---------------------------------------
  Cycle       Energy         DIIS error
 ---------------------------------------
    1    -310.0621856460      1.44e-02  
    2    -307.9180039482      1.25e-03  Done DIIS. Switching to GDM
 ---------------------------------------
  Cycle       Energy        RMS Gradient
 ---------------------------------------
    1    -307.9180039482      3.85e-02   Descent step
    2    -307.9782367015      2.07e-02   Normal BFGS step
    3    -307.9896913609      1.03e-02   Normal BFGS step
    4    -307.9911768649      7.29e-03   Normal BFGS step
    5    -307.9917089097      4.57e-03   Normal BFGS step
    6    -307.9918528856      1.63e-03   Normal BFGS step
    7    -307.9918709688      6.64e-04   Normal BFGS step
    8    -307.9918742229      3.76e-04   Normal BFGS step
    9    -307.9918749807      2.15e-04   Normal BFGS step
   10    -307.9918752233      6.72e-05   Normal BFGS step
   11    -307.9918752621      3.53e-05   Normal BFGS step
   12    -307.9918752733      6.03e-06   Normal BFGS step
   13    -307.9918752739      1.64e-06   Normal BFGS step
   14    -307.9918752740      7.44e-07   Normal BFGS step
   15    -307.9918752740      6.74e-07   Normal BFGS step
   16    -307.9918752740      3.76e-07   Normal BFGS step
   17    -307.9918752739      2.61e-07   Normal BFGS step
   18    -307.9918752740      8.07e-08  Convergence criterion met
 ---------------------------------------
 SCF time:   CPU 1155.97s  wall 79.00s 
<S^2> =          0.789004304
(3)  G-ENP(liq) elect-nuc-pol free energy of system     -307.991875274 a.u.
(4)  G-CDS(liq) cavity-dispersion-solvent structure 
     free energy                                                2.9759 kcal/mol
(6)  G-S(liq) free energy of system                     -307.987132868 a.u.
 SCF   energy in the final basis set =     -307.9871328681
 Total energy in the final basis set =     -307.9871328681
 
 --------------------------------------------------------------
 
                    Orbital Energies (a.u.)
 --------------------------------------------------------------
 
 Alpha MOs
 -- Occupied --
-19.3377 -10.3985 -10.3509 -10.3468 -10.3463 -10.3423 -10.3420  -1.1538
 -0.9735  -0.8758  -0.8607  -0.7374  -0.7158  -0.6302  -0.6244  -0.5822
 -0.5641  -0.5248  -0.5185  -0.4901  -0.4649  -0.4524  -0.4246  -0.3965
 -0.3645  -0.2690
 -- Virtual --
  0.0245   0.0366   0.0378   0.0551   0.0567   0.0589   0.0659   0.0828
  0.1007   0.1117   0.1165   0.1304   0.1367   0.1478   0.1566   0.1595
  0.1613   0.1631   0.1644   0.1687   0.1716   0.1774   0.1845   0.1895
  0.1910   0.2095   0.2157   0.2254   0.2261   0.2355   0.2483   0.2631
  0.2781   0.2830   0.2891   0.3006   0.3142   0.3252   0.3356   0.3455
  0.3569   0.3689   0.3810   0.3908   0.4024   0.4102   0.4290   0.4368
  0.4483   0.5150   0.5266   0.5603   0.5774   0.5811   0.5888   0.6009
  0.6043   0.6066   0.6108   0.6153   0.6207   0.6426   0.6591   0.6868
  0.6897   0.7083   0.7115   0.7245   0.7267   0.7326   0.7347   0.7510
  0.7612   0.7624   0.8016   0.8138   0.8254   0.8299   0.8351   0.8358
  0.8541   0.8691   0.8765   0.8927   0.9021   0.9625   0.9899   1.0171
  1.0426   1.0648   1.0804   1.0898   1.1079   1.1156   1.1391   1.1528
  1.1649   1.2144   1.2173   1.2369   1.2469   1.2755   1.2813   1.3028
  1.3243   1.3462   1.3682   1.3794   1.3953   1.3988   1.4076   1.4110
  1.4324   1.4406   1.4543   1.4726   1.4851   1.5035   1.5201   1.5308
  1.5680   1.5731   1.5780   1.5997   1.6763   1.7071   1.7175   1.7744
  1.8044   1.8151   1.8377   1.8495   1.9404   1.9843   2.0468   2.0516
  2.0700   2.0994   2.1215   2.2595   2.3567   2.4294   2.5584   2.5791
  2.5978   2.6310   2.6434   2.6772   2.7664   2.7912   2.7942   2.8057
  2.8196   2.8294   2.8353   2.8379   2.8703   2.8739   2.8879   2.9089
  2.9175   2.9226   2.9416   2.9429   2.9764   2.9954   3.0230   3.0491
  3.0820   3.0874   3.1675   3.1857   3.1885   3.2223   3.2418   3.2447
  3.2547   3.2707   3.2850   3.3149   3.3253   3.3414   3.3516   3.4021
  3.4110   3.4355   3.4630   3.4676   3.4798   3.4916   3.4960   3.5174
  3.5369   3.5566   3.5863   3.6176   3.6268   3.6785   3.7127   3.7328
  3.7424   3.7640   3.7916   3.8183   3.8319   3.8406   3.8596   3.8720
  3.8858   3.9029   3.9131   3.9699   3.9841   3.9952   4.0075   4.0148
  4.0720   4.0811   4.1410   4.1522   4.1543   4.1964   4.2608   4.2662
  4.2751   4.3125   4.3405   4.3540   4.3769   4.3978   4.4483   4.4746
  4.4957   4.5057   4.5163   4.5242   4.6038   4.6232   4.6527   4.6665
  4.6965   4.7435   4.7569   4.8148   4.9534   5.0189   5.0344   5.1319
  5.1465   5.1949   5.2373   5.2820   5.3046   5.3551   5.4074   5.4851
  5.5265   5.5626   5.6243   5.6759   5.6922   5.7596   5.8330   5.8810
  5.9259   5.9890   6.1811   6.4431   6.5529   7.1236   7.3125   7.3307
  7.3839   7.6429   7.7949  24.2130  24.5956  24.7875  24.8529  25.0806
 25.3928  50.5991
 
 Beta MOs
 -- Occupied --
-19.3361 -10.3992 -10.3449 -10.3446 -10.3432 -10.3415 -10.3409  -1.1502
 -0.9666  -0.8707  -0.8507  -0.7278  -0.7108  -0.6269  -0.6181  -0.5755
 -0.5590  -0.5225  -0.5143  -0.4830  -0.4600  -0.4315  -0.4156  -0.3901
 -0.3470
 -- Virtual --
 -0.0221   0.0241   0.0364   0.0376   0.0547   0.0566   0.0591   0.0802
  0.0830   0.1007   0.1104   0.1165   0.1333   0.1390   0.1485   0.1572
  0.1589   0.1609   0.1630   0.1647   0.1700   0.1746   0.1801   0.1836
  0.1894   0.1909   0.2090   0.2241   0.2255   0.2262   0.2365   0.2472
  0.2635   0.2782   0.2826   0.2884   0.3018   0.3185   0.3269   0.3411
  0.3486   0.3595   0.3727   0.3828   0.3923   0.4050   0.4124   0.4308
  0.4382   0.4511   0.5168   0.5296   0.5647   0.5801   0.5857   0.5926
  0.6071   0.6093   0.6120   0.6143   0.6177   0.6237   0.6469   0.6676
  0.6904   0.6941   0.7109   0.7172   0.7293   0.7322   0.7357   0.7391
  0.7544   0.7630   0.7665   0.8069   0.8188   0.8303   0.8330   0.8345
  0.8420   0.8591   0.8725   0.8785   0.8967   0.9055   0.9647   0.9922
  1.0193   1.0441   1.0669   1.0823   1.0910   1.1091   1.1167   1.1421
  1.1590   1.1697   1.2155   1.2190   1.2384   1.2475   1.2769   1.2841
  1.3062   1.3269   1.3495   1.3723   1.3849   1.3994   1.4042   1.4129
  1.4148   1.4380   1.4463   1.4578   1.4775   1.4887   1.5080   1.5244
  1.5346   1.5720   1.5792   1.5814   1.6034   1.6799   1.7133   1.7224
  1.7799   1.8077   1.8244   1.8441   1.8538   1.9438   1.9901   2.0510
  2.0588   2.0747   2.1039   2.1258   2.2624   2.3587   2.4311   2.5698
  2.5861   2.6100   2.6368   2.6535   2.6879   2.7778   2.7977   2.8114
  2.8198   2.8269   2.8404   2.8480   2.8554   2.8780   2.8833   2.8987
  2.9215   2.9313   2.9423   2.9584   2.9609   2.9907   3.0154   3.0399
  3.0725   3.0966   3.1003   3.1770   3.1956   3.1996   3.2327   3.2560
  3.2602   3.2648   3.2753   3.2967   3.3206   3.3318   3.3501   3.3698
  3.4147   3.4220   3.4412   3.4737   3.4837   3.4898   3.4987   3.5004
  3.5334   3.5470   3.5746   3.6183   3.6300   3.6392   3.6893   3.7216
  3.7426   3.7514   3.7708   3.7937   3.8242   3.8434   3.8557   3.8761
  3.8841   3.8920   3.9124   3.9224   3.9830   3.9920   4.0076   4.0181
  4.0244   4.0814   4.0901   4.1504   4.1607   4.1621   4.2004   4.2687
  4.2785   4.2870   4.3188   4.3468   4.3646   4.3919   4.4085   4.4612
  4.4874   4.5078   4.5153   4.5289   4.5410   4.6162   4.6382   4.6688
  4.6769   4.7043   4.7559   4.7675   4.8278   4.9684   5.0336   5.0484
  5.1445   5.1599   5.2089   5.2480   5.2892   5.3096   5.3586   5.4148
  5.4912   5.5323   5.5718   5.6376   5.6862   5.6982   5.7684   5.8452
  5.8973   5.9372   5.9946   6.1932   6.4536   6.5576   7.1262   7.3155
  7.3353   7.3887   7.6464   7.8004  24.2148  24.5974  24.7887  24.8576
 25.0821  25.3954  50.6005
 --------------------------------------------------------------
 
          Ground-State Mulliken Net Atomic Charges

     Atom                 Charge (a.u.)    Spin (a.u.)
  --------------------------------------------------------
      1 H                     0.291383       0.005418
      2 C                    -0.292127      -0.139230
      3 C                    -0.317857       0.508562
      4 H                     0.287495      -0.010772
      5 C                    -0.317551      -0.139659
      6 H                     0.291579       0.005645
      7 C                    -0.028836       0.353139
      8 H                     0.290605      -0.009553
      9 C                    -0.638325       0.017941
     10 H                     0.174343       0.042957
     11 C                     0.060149       0.353031
     12 H                     0.290554      -0.009322
     13 O                    -0.419099       0.018660
     14 H                     0.327687       0.003182
  --------------------------------------------------------
  Sum of atomic charges =    -0.000000
  Sum of spin   charges =     1.000000

 -----------------------------------------------------------------
                    Cartesian Multipole Moments
 -----------------------------------------------------------------
    Charge (ESU x 10^10)
                -0.0000
    Dipole Moment (Debye)
         X      -1.2755      Y      -2.0182      Z      -0.7605
       Tot       2.5057
    Quadrupole Moments (Debye-Ang)
        XX     -39.2177     XY      -3.6448     YY     -54.5475
        XZ       2.1849     YZ       1.8135     ZZ     -31.1200
    Octopole Moments (Debye-Ang^2)
       XXX      50.2577    XXY     -62.8428    XYY      14.1949
       YYY    -241.9216    XXZ      22.9130    XYZ       6.5476
       YYZ      28.9713    XZZ      12.2001    YZZ     -50.2485
       ZZZ      26.5654
    Hexadecapole Moments (Debye-Ang^3)
      XXXX    -378.8461   XXXY      56.6727   XXYY    -199.6127
      XYYY      63.5515   YYYY    -851.6215   XXXZ      14.1375
      XXYZ      50.5750   XYYZ      19.6002   YYYZ     161.7560
      XXZZ    -150.2742   XYZZ       7.3810   YYZZ    -189.1118
      XZZZ      19.7104   YZZZ      62.6498   ZZZZ    -352.4426
 -----------------------------------------------------------------
 Calculating analytic gradient of the SCF energy
 Gradient of CDS energy
            1           2           3           4           5           6
    1   0.0001036   0.0003094  -0.0002844  -0.0000991  -0.0004873  -0.0002091
    2   0.0000021   0.0000019  -0.0000034   0.0000021   0.0000039   0.0000028
    3   0.0001813   0.0003790   0.0005022   0.0001749  -0.0000676   0.0000041
            7           8           9          10          11          12
    1  -0.0001754  -0.0000936   0.0002081   0.0000668   0.0003930   0.0002103
    2  -0.0000220  -0.0000027   0.0001042  -0.0001641  -0.0000058   0.0000259
    3  -0.0003550  -0.0001516  -0.0002297  -0.0001050  -0.0000406  -0.0000530
           13          14
    1  -0.0000456   0.0001032
    2  -0.0001460   0.0002011
    3   0.0002237  -0.0004627
 Gradient of SCF Energy
            1           2           3           4           5           6
    1   0.0015640  -0.0006972   0.0036663  -0.0024841   0.0040326  -0.0050652
    2  -0.0002127   0.0003567   0.0004119  -0.0000887   0.0002438  -0.0001544
    3   0.0033530  -0.0049018  -0.0054339   0.0042817   0.0017113   0.0001013
            7           8           9          10          11          12
    1   0.0034042  -0.0026748  -0.0001632   0.0009831  -0.0045965   0.0010583
    2  -0.0020926  -0.0004578   0.0082332  -0.0042460  -0.0027211  -0.0010663
    3   0.0045388  -0.0069469   0.0068368  -0.0036823  -0.0005432   0.0002374
           13          14
    1   0.0057591  -0.0047866
    2   0.0070038  -0.0052097
    3   0.0120509  -0.0116030
 Max gradient component =       1.205E-02
 RMS gradient           =       4.455E-03
 Computing fast CPCM-SWIG gradient
 Updating gradient with PCM contributions...
 -- total gradient after adding PCM contribution --
---------------------------------------------------
  Atom         X              Y              Z     
---------------------------------------------------
   1      -0.000004      -0.000002       0.000019
   2      -0.000008      -0.000027       0.000027
   3      -0.000044       0.000002       0.000063
   4      -0.000019      -0.000013       0.000004
   5      -0.000027      -0.000029       0.000002
   6      -0.000019      -0.000001      -0.000013
   7      -0.000005      -0.000002      -0.000054
   8       0.000015       0.000019      -0.000016
   9       0.000069       0.000180      -0.000087
  10       0.000002      -0.000046       0.000017
  11       0.000046       0.000016      -0.000036
  12       0.000007       0.000018       0.000003
  13      -0.000065      -0.000140      -0.000022
  14       0.000052       0.000027       0.000094
---------------------------------------------------
 Number of fixed atoms: 0
 Gradient time:  CPU 167.44 s  wall 14.21 s
 ######################################################
 ######################################################
 # Starting finite difference calculation for IDERIV  #
 Finite diff step size:  1.88973e-03 a.u.
 ----------------------------------------------------------------
             Standard Nuclear Orientation (Angstroms)
    I     Atom           X                Y                Z
 ----------------------------------------------------------------
    1      H       0.5985412937     1.4150050574     1.9989805386
    2      C       0.0604941438     1.4039421775     1.0593498098
    3      C      -1.3536991388     1.4015264431     1.0747726911
    4      H      -1.8863848923     1.4130135969     2.0143839163
    5      C      -2.0668689809     1.4014878971    -0.1463162618
    6      H      -3.1491565101     1.4159383602    -0.1251550765
    7      C      -1.4169942096     1.3879164563    -1.3369195954
    8      H      -1.9669268719     1.3892305119    -2.2698903988
    9      C       0.0741556603     1.3743426665    -1.4357581522
   10      H       0.3901797928     0.4734727431    -1.9794642818
   11      C       0.7517460851     1.3983753326    -0.1075171303
   12      H       1.8341846057     1.4072254506    -0.1125565761
   13      O       0.5555806387     2.5123782426    -2.1957484200
   14      H       0.2859854838     2.3844946645    -3.1126202631
 ----------------------------------------------------------------
 Nuclear Repulsion Energy =         279.90827492 hartrees
 There are       26 alpha and       25 beta electrons
 Discretize the solute cavity surface with Lebedev spheres
	Using 110 Lebedev grid points for each H atom
	Using 194 Lebedev grid points for other atoms
	Atomic van der Waals radii will be scaled by 1.20
 Remove points where switching function is < 1.0e-08
 Keep 1036 surface tesserae and discard 1092 interior tesserae
 Molecular Surface Area = 125.523 Angst**2

                       Distance Matrix (Angstroms)
             H (  1)   C (  2)   C (  3)   H (  4)   C (  5)   H (  6)
   C (  2)  1.082831
   C (  3)  2.159996  1.414279
   H (  4)  2.484975  2.168527  1.080164
   C (  5)  3.421534  2.445263  1.414097  2.168256
   H (  6)  4.307806  3.421265  2.159560  2.484397  1.082591
   C (  7)  3.897608  2.815197  2.412561  3.384109  1.356487  2.114130
   H (  8)  4.980517  3.898011  3.400437  4.285097  2.125960  2.449137
   C (  9)  3.474775  2.495321  2.888299  3.968463  2.499477  3.479821
   H ( 10)  4.093644  3.195130  3.637411  4.692154  3.202926  4.105314
   C ( 11)  2.112127  1.356259  2.414688  3.385619  2.818884  3.900982
   H ( 12)  2.446521  2.125877  3.401821  4.285621  3.901204  4.983365
   O ( 13)  4.336107  3.474105  3.946600  4.989691  3.508774  4.383448
   H ( 14)  5.212107  4.291581  4.603157  5.652357  3.911673  4.654380
             C (  7)   H (  8)   C (  9)   H ( 10)   C ( 11)   H ( 12)
   H (  8)  1.082988
   C (  9)  1.494484  2.204998
   H ( 10)  2.124841  2.545371  1.098660
   C ( 11)  2.492985  3.473777  1.491285  2.119047
   H ( 12)  3.474133  4.370682  2.202191  2.538186  1.082486
   O ( 13)  2.427561  2.762246  1.450683  2.057006  2.374909  2.682514
   H ( 14)  2.654510  2.603144  1.969047  2.224164  3.196875  3.514592
             O ( 13)
   H ( 14)  0.964204
 
 Requested basis set is 6-311++G(2df,2p)
 There are 98 shells and 308 basis functions
 A cutoff of  1.0D-12 yielded   4598 shell pairs
 There are     46203 function pairs (     57514 Cartesian)
 Smallest overlap matrix eigenvalue = 1.27E-06
 Guess MOs from SCF MO coefficient file

 -----------------------------------------------------------------------
  General SCF calculation program by
  Eric Jon Sundstrom, Paul Horn, Yuezhi Mao, Dmitri Zuev, Alec White,
  David Stuck, Shaama M.S., Shane Yost, Joonho Lee, David Small,
  Daniel Levine, Susi Lehtola, Hugh Burton, Evgeny Epifanovsky,
  Bang C. Huynh
 -----------------------------------------------------------------------
 Exchange:     0.1500 Hartree-Fock + 1.0000 wB97M-V + LR-HF
 Correlation:  1.0000 wB97M-V
 Using SG-2 standard quadrature grid
 Nonlocal Correlation:  VV10 with C = 0.0100 and b = 6.00 and scale = 1.00000
 Grid used for NLC:  SG-1 standard quadrature
 
 Citation of the SMD model:
 Marenich, A.V.; Cramer, C.J.; Truhlar, D.G.
 J. Phys. Chem. B 2009, 113, 6378-6396.
 iSolventCode=           1
 Solvent: water                                                           
 
 vradii
            1           2           3           4           5           6
    1   1.2000000   1.8500000   1.8500000   1.2000000   1.8500000   1.2000000
            7           8           9          10          11          12
    1   1.8500000   1.2000000   1.8500000   1.2000000   1.8500000   1.2000000
           13          14
    1   1.5200000   1.2000000
 -------------------------------------------------------
 OpenMP BLAS3 based DFT computing Module                
 Release: version 1.0, May 2013, Q-Chem Inc. Pittsburgh 
 -------------------------------------------------------
 A unrestricted SCF calculation will be
 performed using Roothaan-Hall, DIIS, GDM
 SCF converges when RMS gradient is below 1.0e-07
 ---------------------------------------
  Cycle       Energy         DIIS error
 ---------------------------------------
    1    -307.9723404254      2.12e-04  Roothaan Step
 ---------------------------------------
  Cycle       Energy         DIIS error
 ---------------------------------------
    1    -307.9876773706      2.43e-04  
    2    -307.9906725655      1.82e-04  Done DIIS. Switching to GDM
 ---------------------------------------
  Cycle       Energy        RMS Gradient
 ---------------------------------------
    1    -307.9906725655      5.97e-03   Normal BFGS step
    2    -307.9908946833      5.84e-03   Normal BFGS step
    3    -307.9918556296      7.19e-04   Normal BFGS step
    4    -307.9918677461      7.02e-04   Normal BFGS step
    5    -307.9918749108      1.74e-04   Normal BFGS step
    6    -307.9918751774      5.66e-05   Normal BFGS step
    7    -307.9918752253      6.19e-05   Normal BFGS step
    8    -307.9918752389      3.21e-05   Normal BFGS step
    9    -307.9918752426      7.50e-06   Normal BFGS step
   10    -307.9918752431      5.15e-06   Normal BFGS step
   11    -307.9918752433      4.69e-06   Normal BFGS step
   12    -307.9918752434      2.35e-06   Normal BFGS step
   13    -307.9918752434      5.44e-07   Normal BFGS step
   14    -307.9918752434      3.20e-07   Normal BFGS step
   15    -307.9918752434      1.74e-07   Normal BFGS step
   16    -307.9918752434      7.94e-08  Convergence criterion met
 ---------------------------------------
 SCF time:   CPU 1102.37s  wall 74.00s 
<S^2> =          0.789003152
(3)  G-ENP(liq) elect-nuc-pol free energy of system     -307.991875243 a.u.
(4)  G-CDS(liq) cavity-dispersion-solvent structure 
     free energy                                                2.9760 kcal/mol
(6)  G-S(liq) free energy of system                     -307.987132641 a.u.
 SCF   energy in the final basis set =     -307.9871326413
 Total energy in the final basis set =     -307.9871326413
 
 --------------------------------------------------------------
 
                    Orbital Energies (a.u.)
 --------------------------------------------------------------
 
 Alpha MOs
 -- Occupied --
-19.3377 -10.3985 -10.3509 -10.3468 -10.3463 -10.3423 -10.3420  -1.1538
 -0.9735  -0.8758  -0.8607  -0.7374  -0.7158  -0.6302  -0.6244  -0.5822
 -0.5641  -0.5248  -0.5185  -0.4901  -0.4649  -0.4524  -0.4246  -0.3965
 -0.3645  -0.2690
 -- Virtual --
  0.0245   0.0366   0.0378   0.0551   0.0567   0.0589   0.0659   0.0829
  0.1007   0.1117   0.1165   0.1304   0.1367   0.1478   0.1566   0.1595
  0.1613   0.1631   0.1644   0.1687   0.1716   0.1774   0.1845   0.1895
  0.1910   0.2095   0.2157   0.2254   0.2261   0.2355   0.2483   0.2631
  0.2781   0.2830   0.2891   0.3006   0.3142   0.3252   0.3355   0.3455
  0.3569   0.3689   0.3810   0.3908   0.4024   0.4102   0.4290   0.4368
  0.4483   0.5150   0.5266   0.5603   0.5774   0.5811   0.5888   0.6009
  0.6043   0.6066   0.6108   0.6152   0.6207   0.6426   0.6591   0.6868
  0.6897   0.7083   0.7115   0.7245   0.7267   0.7326   0.7346   0.7510
  0.7612   0.7624   0.8016   0.8138   0.8253   0.8299   0.8351   0.8358
  0.8541   0.8691   0.8765   0.8927   0.9021   0.9625   0.9899   1.0171
  1.0425   1.0648   1.0804   1.0898   1.1080   1.1156   1.1391   1.1528
  1.1649   1.2144   1.2173   1.2369   1.2468   1.2754   1.2813   1.3028
  1.3243   1.3462   1.3682   1.3794   1.3953   1.3988   1.4076   1.4111
  1.4324   1.4406   1.4542   1.4725   1.4851   1.5035   1.5201   1.5308
  1.5679   1.5731   1.5778   1.5996   1.6763   1.7071   1.7175   1.7744
  1.8044   1.8151   1.8376   1.8496   1.9404   1.9842   2.0469   2.0516
  2.0700   2.0991   2.1215   2.2596   2.3567   2.4294   2.5584   2.5792
  2.5979   2.6311   2.6434   2.6772   2.7664   2.7911   2.7941   2.8058
  2.8196   2.8294   2.8353   2.8379   2.8704   2.8738   2.8879   2.9089
  2.9175   2.9226   2.9416   2.9429   2.9763   2.9954   3.0230   3.0491
  3.0820   3.0874   3.1675   3.1857   3.1884   3.2223   3.2419   3.2447
  3.2547   3.2707   3.2850   3.3149   3.3253   3.3413   3.3515   3.4020
  3.4111   3.4354   3.4630   3.4675   3.4798   3.4916   3.4960   3.5173
  3.5369   3.5565   3.5863   3.6176   3.6267   3.6785   3.7128   3.7327
  3.7425   3.7639   3.7916   3.8183   3.8319   3.8406   3.8597   3.8719
  3.8857   3.9029   3.9130   3.9699   3.9842   3.9952   4.0074   4.0148
  4.0720   4.0812   4.1409   4.1521   4.1541   4.1963   4.2607   4.2662
  4.2750   4.3125   4.3403   4.3540   4.3769   4.3978   4.4481   4.4746
  4.4956   4.5059   4.5163   4.5242   4.6037   4.6230   4.6526   4.6664
  4.6962   4.7434   4.7568   4.8148   4.9534   5.0189   5.0343   5.1317
  5.1463   5.1946   5.2373   5.2818   5.3046   5.3552   5.4072   5.4850
  5.5264   5.5625   5.6242   5.6758   5.6922   5.7596   5.8328   5.8806
  5.9256   5.9889   6.1807   6.4430   6.5528   7.1236   7.3125   7.3307
  7.3839   7.6429   7.7949  24.2128  24.5954  24.7875  24.8529  25.0805
 25.3927  50.5991
 
 Beta MOs
 -- Occupied --
-19.3361 -10.3992 -10.3449 -10.3446 -10.3432 -10.3415 -10.3409  -1.1502
 -0.9666  -0.8707  -0.8507  -0.7278  -0.7108  -0.6269  -0.6181  -0.5755
 -0.5590  -0.5224  -0.5142  -0.4830  -0.4600  -0.4315  -0.4156  -0.3901
 -0.3470
 -- Virtual --
 -0.0221   0.0241   0.0364   0.0376   0.0547   0.0566   0.0591   0.0802
  0.0830   0.1007   0.1104   0.1165   0.1333   0.1390   0.1485   0.1572
  0.1589   0.1609   0.1630   0.1647   0.1700   0.1746   0.1801   0.1836
  0.1894   0.1909   0.2090   0.2241   0.2255   0.2262   0.2365   0.2472
  0.2635   0.2782   0.2826   0.2884   0.3018   0.3185   0.3269   0.3410
  0.3486   0.3595   0.3726   0.3828   0.3923   0.4050   0.4124   0.4307
  0.4382   0.4511   0.5168   0.5296   0.5647   0.5801   0.5857   0.5926
  0.6070   0.6093   0.6120   0.6143   0.6177   0.6237   0.6469   0.6676
  0.6904   0.6941   0.7109   0.7172   0.7293   0.7322   0.7357   0.7391
  0.7544   0.7630   0.7665   0.8069   0.8188   0.8303   0.8331   0.8345
  0.8420   0.8591   0.8725   0.8784   0.8967   0.9055   0.9647   0.9922
  1.0193   1.0441   1.0668   1.0823   1.0910   1.1091   1.1166   1.1422
  1.1590   1.1696   1.2155   1.2190   1.2384   1.2474   1.2769   1.2840
  1.3062   1.3269   1.3495   1.3723   1.3849   1.3994   1.4042   1.4129
  1.4148   1.4380   1.4463   1.4577   1.4774   1.4887   1.5080   1.5244
  1.5346   1.5720   1.5791   1.5813   1.6033   1.6799   1.7133   1.7224
  1.7798   1.8076   1.8244   1.8441   1.8538   1.9438   1.9900   2.0511
  2.0588   2.0747   2.1037   2.1258   2.2624   2.3588   2.4311   2.5698
  2.5862   2.6100   2.6369   2.6535   2.6879   2.7778   2.7976   2.8115
  2.8198   2.8269   2.8404   2.8480   2.8554   2.8780   2.8833   2.8987
  2.9215   2.9313   2.9422   2.9584   2.9609   2.9907   3.0154   3.0399
  3.0725   3.0966   3.1002   3.1770   3.1956   3.1996   3.2328   3.2560
  3.2602   3.2648   3.2753   3.2967   3.3206   3.3317   3.3501   3.3697
  3.4146   3.4220   3.4412   3.4737   3.4836   3.4898   3.4986   3.5004
  3.5334   3.5470   3.5746   3.6184   3.6299   3.6391   3.6892   3.7217
  3.7425   3.7514   3.7708   3.7937   3.8242   3.8433   3.8557   3.8762
  3.8840   3.8919   3.9124   3.9224   3.9830   3.9920   4.0076   4.0181
  4.0243   4.0814   4.0902   4.1503   4.1606   4.1618   4.2002   4.2685
  4.2785   4.2869   4.3188   4.3467   4.3646   4.3919   4.4085   4.4611
  4.4874   4.5077   4.5154   4.5289   4.5410   4.6161   4.6380   4.6688
  4.6767   4.7040   4.7558   4.7674   4.8277   4.9684   5.0336   5.0483
  5.1443   5.1598   5.2085   5.2480   5.2890   5.3096   5.3586   5.4146
  5.4911   5.5321   5.5717   5.6376   5.6861   5.6981   5.7684   5.8450
  5.8970   5.9370   5.9945   6.1928   6.4535   6.5576   7.1262   7.3155
  7.3353   7.3887   7.6464   7.8004  24.2146  24.5972  24.7887  24.8576
 25.0819  25.3953  50.6005
 --------------------------------------------------------------
 
          Ground-State Mulliken Net Atomic Charges

     Atom                 Charge (a.u.)    Spin (a.u.)
  --------------------------------------------------------
      1 H                     0.291270       0.005419
      2 C                    -0.291620      -0.139221
      3 C                    -0.318527       0.508549
      4 H                     0.287496      -0.010773
      5 C                    -0.317376      -0.139655
      6 H                     0.291589       0.005646
      7 C                    -0.028946       0.353148
      8 H                     0.290606      -0.009553
      9 C                    -0.638162       0.017943
     10 H                     0.174339       0.042956
     11 C                     0.060177       0.353019
     12 H                     0.290569      -0.009319
     13 O                    -0.419103       0.018661
     14 H                     0.327688       0.003181
  --------------------------------------------------------
  Sum of atomic charges =     0.000000
  Sum of spin   charges =     1.000000

 -----------------------------------------------------------------
                    Cartesian Multipole Moments
 -----------------------------------------------------------------
    Charge (ESU x 10^10)
                 0.0000
    Dipole Moment (Debye)
         X      -1.2753      Y      -2.0182      Z      -0.7610
       Tot       2.5057
    Quadrupole Moments (Debye-Ang)
        XX     -39.2158     XY      -3.6445     YY     -54.5481
        XZ       2.1863     YZ       1.8127     ZZ     -31.1221
    Octopole Moments (Debye-Ang^2)
       XXX      50.2531    XXY     -62.8402    XYY      14.1940
       YYY    -241.9241    XXZ      22.9144    XYZ       6.5497
       YYZ      28.9689    XZZ      12.2018    YZZ     -50.2515
       ZZZ      26.5582
    Hexadecapole Moments (Debye-Ang^3)
      XXXX    -378.8401   XXXY      56.6663   XXYY    -199.6097
      XYYY      63.5466   YYYY    -851.6293   XXXZ      14.1352
      XXYZ      50.5769   XYYZ      19.6010   YYYZ     161.7487
      XXZZ    -150.2705   XYZZ       7.3833   YYZZ    -189.1191
      XZZZ      19.7117   YZZZ      62.6398   ZZZZ    -352.4660
 -----------------------------------------------------------------
 Calculating analytic gradient of the SCF energy
 Gradient of CDS energy
            1           2           3           4           5           6
    1   0.0001041   0.0003089  -0.0002843  -0.0000991  -0.0004873  -0.0002091
    2   0.0000021   0.0000019  -0.0000034   0.0000021   0.0000039   0.0000028
    3   0.0001818   0.0003785   0.0005022   0.0001749  -0.0000676   0.0000041
            7           8           9          10          11          12
    1  -0.0001754  -0.0000936   0.0002081   0.0000668   0.0003929   0.0002103
    2  -0.0000220  -0.0000027   0.0001042  -0.0001641  -0.0000058   0.0000259
    3  -0.0003550  -0.0001516  -0.0002297  -0.0001050  -0.0000406  -0.0000530
           13          14
    1  -0.0000456   0.0001032
    2  -0.0001460   0.0002011
    3   0.0002237  -0.0004627
 Gradient of SCF Energy
            1           2           3           4           5           6
    1   0.0018170  -0.0009462   0.0036492  -0.0024810   0.0040217  -0.0050675
    2  -0.0002097   0.0003543   0.0004118  -0.0000888   0.0002438  -0.0001543
    3   0.0035945  -0.0051285  -0.0054857   0.0042800   0.0017153   0.0000985
            7           8           9          10          11          12
    1   0.0034051  -0.0026749  -0.0001658   0.0009836  -0.0045754   0.0010614
    2  -0.0020927  -0.0004579   0.0082330  -0.0042458  -0.0027211  -0.0010663
    3   0.0045397  -0.0069478   0.0068405  -0.0036820  -0.0005106   0.0002370
           13          14
    1   0.0057595  -0.0047868
    2   0.0070038  -0.0052101
    3   0.0120522  -0.0116031
 Max gradient component =       1.205E-02
 RMS gradient           =       4.469E-03
 Computing fast CPCM-SWIG gradient
 Updating gradient with PCM contributions...
 -- total gradient after adding PCM contribution --
---------------------------------------------------
  Atom         X              Y              Z     
---------------------------------------------------
   1       0.000244       0.000001       0.000264
   2      -0.000251      -0.000029      -0.000202
   3      -0.000063       0.000001       0.000010
   4      -0.000016      -0.000013       0.000005
   5      -0.000037      -0.000029       0.000004
   6      -0.000020      -0.000001      -0.000015
   7      -0.000005      -0.000002      -0.000053
   8       0.000016       0.000019      -0.000017
   9       0.000066       0.000179      -0.000083
  10       0.000002      -0.000046       0.000018
  11       0.000068       0.000016      -0.000006
  12       0.000008       0.000018       0.000002
  13      -0.000064      -0.000140      -0.000021
  14       0.000052       0.000026       0.000094
---------------------------------------------------
 Number of fixed atoms: 0
 Gradient time:  CPU 168.62 s  wall 13.66 s
 ----------------------------------------------------------------
             Standard Nuclear Orientation (Angstroms)
    I     Atom           X                Y                Z
 ----------------------------------------------------------------
    1      H       0.5965412937     1.4150050574     1.9989805386
    2      C       0.0604941438     1.4039421775     1.0593498098
    3      C      -1.3536991388     1.4015264431     1.0747726911
    4      H      -1.8863848923     1.4130135969     2.0143839163
    5      C      -2.0668689809     1.4014878971    -0.1463162618
    6      H      -3.1491565101     1.4159383602    -0.1251550765
    7      C      -1.4169942096     1.3879164563    -1.3369195954
    8      H      -1.9669268719     1.3892305119    -2.2698903988
    9      C       0.0741556603     1.3743426665    -1.4357581522
   10      H       0.3901797928     0.4734727431    -1.9794642818
   11      C       0.7517460851     1.3983753326    -0.1075171303
   12      H       1.8341846057     1.4072254506    -0.1125565761
   13      O       0.5555806387     2.5123782426    -2.1957484200
   14      H       0.2859854838     2.3844946645    -3.1126202631
 ----------------------------------------------------------------
 Nuclear Repulsion Energy =         279.91297356 hartrees
 There are       26 alpha and       25 beta electrons
 Discretize the solute cavity surface with Lebedev spheres
	Using 110 Lebedev grid points for each H atom
	Using 194 Lebedev grid points for other atoms
	Atomic van der Waals radii will be scaled by 1.20
 Remove points where switching function is < 1.0e-08
 Keep 1036 surface tesserae and discard 1092 interior tesserae
 Molecular Surface Area = 125.518 Angst**2

                       Distance Matrix (Angstroms)
             H (  1)   C (  2)   C (  3)   H (  4)   C (  5)   H (  6)
   C (  2)  1.081839
   C (  3)  2.158189  1.414279
   H (  4)  2.482975  2.168527  1.080164
   C (  5)  3.419976  2.445263  1.414097  2.168256
   H (  6)  4.306066  3.421265  2.159560  2.484397  1.082591
   C (  7)  3.896574  2.815197  2.412561  3.384109  1.356487  2.114130
   H (  8)  4.979487  3.898011  3.400437  4.285097  2.125960  2.449137
   C (  9)  3.474474  2.495321  2.888299  3.968463  2.499477  3.479821
   H ( 10)  4.093543  3.195130  3.637411  4.692154  3.202926  4.105314
   C ( 11)  2.112273  1.356259  2.414688  3.385619  2.818884  3.900982
   H ( 12)  2.447532  2.125877  3.401821  4.285621  3.901204  4.983365
   O ( 13)  4.336088  3.474105  3.946600  4.989691  3.508774  4.383448
   H ( 14)  5.211988  4.291581  4.603157  5.652357  3.911673  4.654380
             C (  7)   H (  8)   C (  9)   H ( 10)   C ( 11)   H ( 12)
   H (  8)  1.082988
   C (  9)  1.494484  2.204998
   H ( 10)  2.124841  2.545371  1.098660
   C ( 11)  2.492985  3.473777  1.491285  2.119047
   H ( 12)  3.474133  4.370682  2.202191  2.538186  1.082486
   O ( 13)  2.427561  2.762246  1.450683  2.057006  2.374909  2.682514
   H ( 14)  2.654510  2.603144  1.969047  2.224164  3.196875  3.514592
             O ( 13)
   H ( 14)  0.964204
 
 Requested basis set is 6-311++G(2df,2p)
 There are 98 shells and 308 basis functions
 A cutoff of  1.0D-12 yielded   4598 shell pairs
 There are     46203 function pairs (     57514 Cartesian)
 Smallest overlap matrix eigenvalue = 1.27E-06
 Guess MOs from SCF MO coefficient file

 -----------------------------------------------------------------------
  General SCF calculation program by
  Eric Jon Sundstrom, Paul Horn, Yuezhi Mao, Dmitri Zuev, Alec White,
  David Stuck, Shaama M.S., Shane Yost, Joonho Lee, David Small,
  Daniel Levine, Susi Lehtola, Hugh Burton, Evgeny Epifanovsky,
  Bang C. Huynh
 -----------------------------------------------------------------------
 Exchange:     0.1500 Hartree-Fock + 1.0000 wB97M-V + LR-HF
 Correlation:  1.0000 wB97M-V
 Using SG-2 standard quadrature grid
 Nonlocal Correlation:  VV10 with C = 0.0100 and b = 6.00 and scale = 1.00000
 Grid used for NLC:  SG-1 standard quadrature
 
 Citation of the SMD model:
 Marenich, A.V.; Cramer, C.J.; Truhlar, D.G.
 J. Phys. Chem. B 2009, 113, 6378-6396.
 iSolventCode=           1
 Solvent: water                                                           
 
 vradii
            1           2           3           4           5           6
    1   1.2000000   1.8500000   1.8500000   1.2000000   1.8500000   1.2000000
            7           8           9          10          11          12
    1   1.8500000   1.2000000   1.8500000   1.2000000   1.8500000   1.2000000
           13          14
    1   1.5200000   1.2000000
 -------------------------------------------------------
 OpenMP BLAS3 based DFT computing Module                
 Release: version 1.0, May 2013, Q-Chem Inc. Pittsburgh 
 -------------------------------------------------------
 A unrestricted SCF calculation will be
 performed using Roothaan-Hall, DIIS, GDM
 SCF converges when RMS gradient is below 1.0e-07
 ---------------------------------------
  Cycle       Energy         DIIS error
 ---------------------------------------
    1    -307.9723432316      2.12e-04  Roothaan Step
 ---------------------------------------
  Cycle       Energy         DIIS error
 ---------------------------------------
    1    -307.9876777377      2.43e-04  
    2    -307.9906719478      1.82e-04  Done DIIS. Switching to GDM
 ---------------------------------------
  Cycle       Energy        RMS Gradient
 ---------------------------------------
    1    -307.9906719478      6.08e-03   Normal BFGS step
    2    -307.9908935266      5.84e-03   Normal BFGS step
    3    -307.9918552390      7.19e-04   Normal BFGS step
    4    -307.9918673501      7.00e-04   Normal BFGS step
    5    -307.9918745028      1.73e-04   Normal BFGS step
    6    -307.9918747693      5.71e-05   Normal BFGS step
    7    -307.9918748178      6.10e-05   Normal BFGS step
    8    -307.9918748313      3.18e-05   Normal BFGS step
    9    -307.9918748350      7.52e-06   Normal BFGS step
   10    -307.9918748355      5.21e-06   Normal BFGS step
   11    -307.9918748357      4.58e-06   Normal BFGS step
   12    -307.9918748357      2.32e-06   Normal BFGS step
   13    -307.9918748358      5.44e-07   Normal BFGS step
   14    -307.9918748358      3.15e-07   Normal BFGS step
   15    -307.9918748358      1.71e-07   Normal BFGS step
   16    -307.9918748358      8.10e-08  Convergence criterion met
 ---------------------------------------
 SCF time:   CPU 1100.66s  wall 74.00s 
<S^2> =          0.789005341
(3)  G-ENP(liq) elect-nuc-pol free energy of system     -307.991874836 a.u.
(4)  G-CDS(liq) cavity-dispersion-solvent structure 
     free energy                                                2.9758 kcal/mol
(6)  G-S(liq) free energy of system                     -307.987132625 a.u.
 SCF   energy in the final basis set =     -307.9871326252
 Total energy in the final basis set =     -307.9871326252
 
 --------------------------------------------------------------
 
                    Orbital Energies (a.u.)
 --------------------------------------------------------------
 
 Alpha MOs
 -- Occupied --
-19.3377 -10.3985 -10.3508 -10.3468 -10.3463 -10.3422 -10.3420  -1.1538
 -0.9735  -0.8758  -0.8607  -0.7374  -0.7158  -0.6302  -0.6244  -0.5822
 -0.5641  -0.5248  -0.5185  -0.4901  -0.4649  -0.4523  -0.4246  -0.3965
 -0.3645  -0.2690
 -- Virtual --
  0.0245   0.0366   0.0378   0.0551   0.0567   0.0589   0.0659   0.0828
  0.1007   0.1117   0.1165   0.1304   0.1367   0.1478   0.1566   0.1595
  0.1613   0.1631   0.1644   0.1687   0.1716   0.1774   0.1845   0.1895
  0.1910   0.2095   0.2157   0.2254   0.2262   0.2355   0.2483   0.2631
  0.2781   0.2830   0.2891   0.3006   0.3142   0.3251   0.3356   0.3455
  0.3569   0.3690   0.3809   0.3908   0.4024   0.4102   0.4290   0.4368
  0.4483   0.5150   0.5266   0.5603   0.5774   0.5810   0.5888   0.6009
  0.6043   0.6066   0.6108   0.6153   0.6208   0.6426   0.6591   0.6868
  0.6897   0.7083   0.7116   0.7245   0.7267   0.7326   0.7347   0.7510
  0.7612   0.7624   0.8016   0.8138   0.8254   0.8299   0.8351   0.8358
  0.8541   0.8691   0.8765   0.8927   0.9021   0.9624   0.9899   1.0171
  1.0426   1.0649   1.0804   1.0898   1.1079   1.1157   1.1390   1.1528
  1.1650   1.2144   1.2173   1.2369   1.2470   1.2756   1.2813   1.3028
  1.3243   1.3463   1.3682   1.3794   1.3953   1.3988   1.4076   1.4110
  1.4324   1.4407   1.4543   1.4727   1.4851   1.5036   1.5201   1.5308
  1.5680   1.5731   1.5781   1.5997   1.6763   1.7071   1.7176   1.7744
  1.8045   1.8151   1.8377   1.8495   1.9404   1.9844   2.0467   2.0517
  2.0699   2.0996   2.1215   2.2595   2.3566   2.4294   2.5584   2.5790
  2.5978   2.6309   2.6434   2.6772   2.7664   2.7913   2.7942   2.8056
  2.8197   2.8294   2.8354   2.8379   2.8703   2.8739   2.8879   2.9089
  2.9176   2.9226   2.9416   2.9430   2.9764   2.9954   3.0230   3.0491
  3.0820   3.0874   3.1675   3.1857   3.1885   3.2222   3.2418   3.2447
  3.2547   3.2707   3.2850   3.3149   3.3254   3.3414   3.3517   3.4021
  3.4110   3.4355   3.4630   3.4677   3.4798   3.4917   3.4961   3.5174
  3.5369   3.5566   3.5862   3.6176   3.6270   3.6786   3.7127   3.7328
  3.7424   3.7640   3.7916   3.8183   3.8320   3.8406   3.8596   3.8720
  3.8859   3.9029   3.9132   3.9699   3.9841   3.9951   4.0075   4.0149
  4.0720   4.0811   4.1411   4.1523   4.1545   4.1965   4.2610   4.2662
  4.2752   4.3125   4.3406   4.3540   4.3769   4.3978   4.4484   4.4746
  4.4958   4.5056   4.5163   4.5242   4.6038   4.6233   4.6527   4.6667
  4.6968   4.7436   4.7570   4.8148   4.9534   5.0189   5.0345   5.1320
  5.1467   5.1953   5.2373   5.2822   5.3047   5.3551   5.4075   5.4852
  5.5267   5.5626   5.6243   5.6760   5.6922   5.7596   5.8331   5.8815
  5.9261   5.9890   6.1815   6.4433   6.5529   7.1236   7.3125   7.3307
  7.3839   7.6429   7.7949  24.2132  24.5958  24.7875  24.8530  25.0808
 25.3930  50.5991
 
 Beta MOs
 -- Occupied --
-19.3361 -10.3992 -10.3448 -10.3446 -10.3432 -10.3415 -10.3409  -1.1502
 -0.9666  -0.8707  -0.8507  -0.7278  -0.7108  -0.6269  -0.6181  -0.5755
 -0.5590  -0.5225  -0.5143  -0.4830  -0.4600  -0.4315  -0.4156  -0.3901
 -0.3470
 -- Virtual --
 -0.0221   0.0241   0.0364   0.0376   0.0547   0.0566   0.0591   0.0802
  0.0830   0.1007   0.1105   0.1165   0.1333   0.1390   0.1485   0.1572
  0.1589   0.1609   0.1630   0.1647   0.1700   0.1746   0.1801   0.1836
  0.1894   0.1909   0.2090   0.2241   0.2255   0.2262   0.2365   0.2472
  0.2635   0.2782   0.2826   0.2884   0.3018   0.3185   0.3269   0.3411
  0.3486   0.3595   0.3727   0.3828   0.3923   0.4050   0.4124   0.4308
  0.4382   0.4511   0.5168   0.5296   0.5647   0.5801   0.5857   0.5926
  0.6071   0.6093   0.6120   0.6143   0.6178   0.6237   0.6468   0.6676
  0.6904   0.6941   0.7108   0.7172   0.7293   0.7322   0.7358   0.7391
  0.7545   0.7630   0.7665   0.8069   0.8188   0.8304   0.8330   0.8345
  0.8421   0.8591   0.8725   0.8785   0.8967   0.9054   0.9647   0.9922
  1.0193   1.0441   1.0669   1.0823   1.0910   1.1090   1.1167   1.1421
  1.1590   1.1697   1.2155   1.2190   1.2384   1.2477   1.2770   1.2841
  1.3062   1.3269   1.3495   1.3723   1.3849   1.3994   1.4042   1.4129
  1.4148   1.4380   1.4463   1.4579   1.4776   1.4887   1.5080   1.5244
  1.5346   1.5720   1.5792   1.5815   1.6034   1.6799   1.7132   1.7225
  1.7799   1.8077   1.8244   1.8441   1.8537   1.9438   1.9902   2.0509
  2.0589   2.0747   2.1041   2.1258   2.2623   2.3587   2.4311   2.5697
  2.5860   2.6099   2.6368   2.6535   2.6879   2.7778   2.7978   2.8114
  2.8198   2.8269   2.8405   2.8480   2.8554   2.8780   2.8833   2.8987
  2.9215   2.9314   2.9423   2.9584   2.9610   2.9907   3.0153   3.0399
  3.0725   3.0966   3.1003   3.1769   3.1956   3.1996   3.2327   3.2559
  3.2602   3.2649   3.2753   3.2967   3.3206   3.3319   3.3502   3.3699
  3.4147   3.4220   3.4412   3.4737   3.4838   3.4898   3.4987   3.5005
  3.5334   3.5470   3.5747   3.6183   3.6301   3.6394   3.6894   3.7216
  3.7427   3.7514   3.7709   3.7937   3.8242   3.8434   3.8557   3.8761
  3.8841   3.8922   3.9124   3.9224   3.9830   3.9920   4.0076   4.0181
  4.0244   4.0814   4.0901   4.1505   4.1607   4.1623   4.2005   4.2688
  4.2786   4.2870   4.3188   4.3470   4.3646   4.3920   4.4086   4.4613
  4.4874   4.5079   4.5151   4.5289   4.5410   4.6163   4.6383   4.6689
  4.6770   4.7046   4.7561   4.7675   4.8278   4.9684   5.0336   5.0485
  5.1446   5.1601   5.2092   5.2480   5.2894   5.3097   5.3586   5.4149
  5.4912   5.5325   5.5718   5.6377   5.6863   5.6982   5.7683   5.8454
  5.8977   5.9374   5.9946   6.1936   6.4537   6.5577   7.1262   7.3155
  7.3353   7.3887   7.6464   7.8004  24.2151  24.5976  24.7887  24.8577
 25.0822  25.3956  50.6005
 --------------------------------------------------------------
 
          Ground-State Mulliken Net Atomic Charges

     Atom                 Charge (a.u.)    Spin (a.u.)
  --------------------------------------------------------
      1 H                     0.291495       0.005418
      2 C                    -0.292634      -0.139238
      3 C                    -0.317187       0.508575
      4 H                     0.287495      -0.010772
      5 C                    -0.317727      -0.139662
      6 H                     0.291569       0.005645
      7 C                    -0.028726       0.353130
      8 H                     0.290603      -0.009553
      9 C                    -0.638488       0.017939
     10 H                     0.174347       0.042957
     11 C                     0.060122       0.353043
     12 H                     0.290540      -0.009324
     13 O                    -0.419095       0.018660
     14 H                     0.327686       0.003182
  --------------------------------------------------------
  Sum of atomic charges =    -0.000000
  Sum of spin   charges =     1.000000

 -----------------------------------------------------------------
                    Cartesian Multipole Moments
 -----------------------------------------------------------------
    Charge (ESU x 10^10)
                -0.0000
    Dipole Moment (Debye)
         X      -1.2757      Y      -2.0182      Z      -0.7599
       Tot       2.5056
    Quadrupole Moments (Debye-Ang)
        XX     -39.2195     XY      -3.6451     YY     -54.5470
        XZ       2.1835     YZ       1.8142     ZZ     -31.1179
    Octopole Moments (Debye-Ang^2)
       XXX      50.2622    XXY     -62.8454    XYY      14.1957
       YYY    -241.9192    XXZ      22.9116    XYZ       6.5456
       YYZ      28.9738    XZZ      12.1985    YZZ     -50.2455
       ZZZ      26.5726
    Hexadecapole Moments (Debye-Ang^3)
      XXXX    -378.8521   XXXY      56.6791   XXYY    -199.6157
      XYYY      63.5564   YYYY    -851.6137   XXXZ      14.1398
      XXYZ      50.5730   XYYZ      19.5994   YYYZ     161.7633
      XXZZ    -150.2778   XYZZ       7.3787   YYZZ    -189.1046
      XZZZ      19.7090   YZZZ      62.6599   ZZZZ    -352.4193
 -----------------------------------------------------------------
 Calculating analytic gradient of the SCF energy
 Gradient of CDS energy
            1           2           3           4           5           6
    1   0.0001031   0.0003099  -0.0002844  -0.0000991  -0.0004873  -0.0002091
    2   0.0000021   0.0000019  -0.0000034   0.0000021   0.0000039   0.0000028
    3   0.0001808   0.0003796   0.0005022   0.0001749  -0.0000676   0.0000041
            7           8           9          10          11          12
    1  -0.0001754  -0.0000936   0.0002081   0.0000668   0.0003930   0.0002103
    2  -0.0000220  -0.0000027   0.0001042  -0.0001641  -0.0000058   0.0000259
    3  -0.0003550  -0.0001516  -0.0002297  -0.0001050  -0.0000407  -0.0000530
           13          14
    1  -0.0000456   0.0001032
    2  -0.0001460   0.0002011
    3   0.0002237  -0.0004627
 Gradient of SCF Energy
            1           2           3           4           5           6
    1   0.0013110  -0.0004482   0.0036835  -0.0024872   0.0040435  -0.0050628
    2  -0.0002157   0.0003591   0.0004119  -0.0000886   0.0002438  -0.0001545
    3   0.0031108  -0.0046744  -0.0053820   0.0042833   0.0017074   0.0001040
            7           8           9          10          11          12
    1   0.0034034  -0.0026747  -0.0001605   0.0009827  -0.0046177   0.0010551
    2  -0.0020925  -0.0004577   0.0082335  -0.0042462  -0.0027212  -0.0010663
    3   0.0045379  -0.0069461   0.0068331  -0.0036827  -0.0005759   0.0002378
           13          14
    1   0.0057586  -0.0047865
    2   0.0070037  -0.0052094
    3   0.0120495  -0.0116029
 Max gradient component =       1.205E-02
 RMS gradient           =       4.442E-03
 Computing fast CPCM-SWIG gradient
 Updating gradient with PCM contributions...
 -- total gradient after adding PCM contribution --
---------------------------------------------------
  Atom         X              Y              Z     
---------------------------------------------------
   1      -0.000253      -0.000005      -0.000227
   2       0.000236      -0.000024       0.000257
   3      -0.000026       0.000003       0.000115
   4      -0.000022      -0.000013       0.000003
   5      -0.000017      -0.000030       0.000000
   6      -0.000017      -0.000002      -0.000010
   7      -0.000004      -0.000002      -0.000056
   8       0.000015       0.000020      -0.000016
   9       0.000072       0.000180      -0.000091
  10       0.000001      -0.000047       0.000017
  11       0.000023       0.000015      -0.000066
  12       0.000005       0.000018       0.000004
  13      -0.000065      -0.000140      -0.000023
  14       0.000052       0.000027       0.000094
---------------------------------------------------
 Number of fixed atoms: 0
 Gradient time:  CPU 168.19 s  wall 13.66 s
 ----------------------------------------------------------------
             Standard Nuclear Orientation (Angstroms)
    I     Atom           X                Y                Z
 ----------------------------------------------------------------
    1      H       0.5975412937     1.4160050574     1.9989805386
    2      C       0.0604941438     1.4039421775     1.0593498098
    3      C      -1.3536991388     1.4015264431     1.0747726911
    4      H      -1.8863848923     1.4130135969     2.0143839163
    5      C      -2.0668689809     1.4014878971    -0.1463162618
    6      H      -3.1491565101     1.4159383602    -0.1251550765
    7      C      -1.4169942096     1.3879164563    -1.3369195954
    8      H      -1.9669268719     1.3892305119    -2.2698903988
    9      C       0.0741556603     1.3743426665    -1.4357581522
   10      H       0.3901797928     0.4734727431    -1.9794642818
   11      C       0.7517460851     1.3983753326    -0.1075171303
   12      H       1.8341846057     1.4072254506    -0.1125565761
   13      O       0.5555806387     2.5123782426    -2.1957484200
   14      H       0.2859854838     2.3844946645    -3.1126202631
 ----------------------------------------------------------------
 Nuclear Repulsion Energy =         279.91063249 hartrees
 There are       26 alpha and       25 beta electrons
 Discretize the solute cavity surface with Lebedev spheres
	Using 110 Lebedev grid points for each H atom
	Using 194 Lebedev grid points for other atoms
	Atomic van der Waals radii will be scaled by 1.20
 Remove points where switching function is < 1.0e-08
 Keep 1036 surface tesserae and discard 1092 interior tesserae
 Molecular Surface Area = 125.521 Angst**2

                       Distance Matrix (Angstroms)
             H (  1)   C (  2)   C (  3)   H (  4)   C (  5)   H (  6)
   C (  2)  1.082345
   C (  3)  2.159099  1.414279
   H (  4)  2.483976  2.168527  1.080164
   C (  5)  3.420759  2.445263  1.414097  2.168256
   H (  6)  4.306936  3.421265  2.159560  2.484397  1.082591
   C (  7)  3.897098  2.815197  2.412561  3.384109  1.356487  2.114130
   H (  8)  4.980007  3.898011  3.400437  4.285097  2.125960  2.449137
   C (  9)  3.474636  2.495321  2.888299  3.968463  2.499477  3.479821
   H ( 10)  4.093823  3.195130  3.637411  4.692154  3.202926  4.105314
   C ( 11)  2.112208  1.356259  2.414688  3.385619  2.818884  3.900982
   H ( 12)  2.447029  2.125877  3.401821  4.285621  3.901204  4.983365
   O ( 13)  4.335844  3.474105  3.946600  4.989691  3.508774  4.383448
   H ( 14)  5.211862  4.291581  4.603157  5.652357  3.911673  4.654380
             C (  7)   H (  8)   C (  9)   H ( 10)   C ( 11)   H ( 12)
   H (  8)  1.082988
   C (  9)  1.494484  2.204998
   H ( 10)  2.124841  2.545371  1.098660
   C ( 11)  2.492985  3.473777  1.491285  2.119047
   H ( 12)  3.474133  4.370682  2.202191  2.538186  1.082486
   O ( 13)  2.427561  2.762246  1.450683  2.057006  2.374909  2.682514
   H ( 14)  2.654510  2.603144  1.969047  2.224164  3.196875  3.514592
             O ( 13)
   H ( 14)  0.964204
 
 Requested basis set is 6-311++G(2df,2p)
 There are 98 shells and 308 basis functions
 A cutoff of  1.0D-12 yielded   4598 shell pairs
 There are     46203 function pairs (     57514 Cartesian)
 Smallest overlap matrix eigenvalue = 1.27E-06
 Guess MOs from SCF MO coefficient file

 -----------------------------------------------------------------------
  General SCF calculation program by
  Eric Jon Sundstrom, Paul Horn, Yuezhi Mao, Dmitri Zuev, Alec White,
  David Stuck, Shaama M.S., Shane Yost, Joonho Lee, David Small,
  Daniel Levine, Susi Lehtola, Hugh Burton, Evgeny Epifanovsky,
  Bang C. Huynh
 -----------------------------------------------------------------------
 Exchange:     0.1500 Hartree-Fock + 1.0000 wB97M-V + LR-HF
 Correlation:  1.0000 wB97M-V
 Using SG-2 standard quadrature grid
 Nonlocal Correlation:  VV10 with C = 0.0100 and b = 6.00 and scale = 1.00000
 Grid used for NLC:  SG-1 standard quadrature
 
 Citation of the SMD model:
 Marenich, A.V.; Cramer, C.J.; Truhlar, D.G.
 J. Phys. Chem. B 2009, 113, 6378-6396.
 iSolventCode=           1
 Solvent: water                                                           
 
 vradii
            1           2           3           4           5           6
    1   1.2000000   1.8500000   1.8500000   1.2000000   1.8500000   1.2000000
            7           8           9          10          11          12
    1   1.8500000   1.2000000   1.8500000   1.2000000   1.8500000   1.2000000
           13          14
    1   1.5200000   1.2000000
 -------------------------------------------------------
 OpenMP BLAS3 based DFT computing Module                
 Release: version 1.0, May 2013, Q-Chem Inc. Pittsburgh 
 -------------------------------------------------------
 A unrestricted SCF calculation will be
 performed using Roothaan-Hall, DIIS, GDM
 SCF converges when RMS gradient is below 1.0e-07
 ---------------------------------------
  Cycle       Energy         DIIS error
 ---------------------------------------
    1    -307.9723409445      2.12e-04  Roothaan Step
 ---------------------------------------
  Cycle       Energy         DIIS error
 ---------------------------------------
    1    -307.9876779692      2.43e-04  
    2    -307.9906726336      1.82e-04  Done DIIS. Switching to GDM
 ---------------------------------------
  Cycle       Energy        RMS Gradient
 ---------------------------------------
    1    -307.9906726336      6.03e-03   Normal BFGS step
    2    -307.9908946750      5.85e-03   Normal BFGS step
    3    -307.9918556236      7.19e-04   Normal BFGS step
    4    -307.9918677377      7.02e-04   Normal BFGS step
    5    -307.9918749007      1.73e-04   Normal BFGS step
    6    -307.9918751673      5.67e-05   Normal BFGS step
    7    -307.9918752153      6.17e-05   Normal BFGS step
    8    -307.9918752289      3.20e-05   Normal BFGS step
    9    -307.9918752325      7.50e-06   Normal BFGS step
   10    -307.9918752331      5.16e-06   Normal BFGS step
   11    -307.9918752333      4.67e-06   Normal BFGS step
   12    -307.9918752333      2.34e-06   Normal BFGS step
   13    -307.9918752334      5.43e-07   Normal BFGS step
   14    -307.9918752334      3.19e-07   Normal BFGS step
   15    -307.9918752334      1.73e-07   Normal BFGS step
   16    -307.9918752334      7.95e-08  Convergence criterion met
 ---------------------------------------
 SCF time:   CPU 1096.70s  wall 73.00s 
<S^2> =          0.789004362
(3)  G-ENP(liq) elect-nuc-pol free energy of system     -307.991875233 a.u.
(4)  G-CDS(liq) cavity-dispersion-solvent structure 
     free energy                                                2.9759 kcal/mol
(6)  G-S(liq) free energy of system                     -307.987132823 a.u.
 SCF   energy in the final basis set =     -307.9871328233
 Total energy in the final basis set =     -307.9871328233
 
 --------------------------------------------------------------
 
                    Orbital Energies (a.u.)
 --------------------------------------------------------------
 
 Alpha MOs
 -- Occupied --
-19.3377 -10.3985 -10.3509 -10.3468 -10.3463 -10.3423 -10.3420  -1.1538
 -0.9735  -0.8758  -0.8607  -0.7374  -0.7158  -0.6302  -0.6244  -0.5822
 -0.5641  -0.5248  -0.5185  -0.4901  -0.4649  -0.4524  -0.4246  -0.3965
 -0.3645  -0.2690
 -- Virtual --
  0.0245   0.0366   0.0378   0.0551   0.0567   0.0589   0.0659   0.0829
  0.1006   0.1117   0.1165   0.1304   0.1367   0.1478   0.1566   0.1595
  0.1613   0.1631   0.1644   0.1687   0.1716   0.1774   0.1845   0.1895
  0.1910   0.2095   0.2157   0.2254   0.2261   0.2355   0.2483   0.2631
  0.2781   0.2830   0.2892   0.3006   0.3142   0.3252   0.3356   0.3455
  0.3569   0.3689   0.3810   0.3908   0.4023   0.4102   0.4290   0.4368
  0.4483   0.5150   0.5266   0.5603   0.5774   0.5811   0.5888   0.6009
  0.6043   0.6066   0.6108   0.6153   0.6207   0.6426   0.6591   0.6868
  0.6897   0.7083   0.7116   0.7245   0.7267   0.7326   0.7346   0.7510
  0.7611   0.7624   0.8016   0.8138   0.8253   0.8299   0.8351   0.8358
  0.8541   0.8691   0.8765   0.8927   0.9021   0.9625   0.9899   1.0170
  1.0426   1.0648   1.0803   1.0898   1.1080   1.1156   1.1391   1.1528
  1.1650   1.2144   1.2173   1.2369   1.2469   1.2755   1.2813   1.3028
  1.3243   1.3462   1.3682   1.3794   1.3953   1.3988   1.4076   1.4110
  1.4324   1.4407   1.4543   1.4726   1.4850   1.5035   1.5201   1.5308
  1.5679   1.5731   1.5780   1.5997   1.6763   1.7071   1.7175   1.7744
  1.8044   1.8151   1.8376   1.8496   1.9404   1.9843   2.0468   2.0516
  2.0700   2.0994   2.1215   2.2596   2.3566   2.4294   2.5584   2.5791
  2.5978   2.6310   2.6434   2.6772   2.7664   2.7912   2.7942   2.8057
  2.8196   2.8295   2.8353   2.8379   2.8704   2.8739   2.8879   2.9089
  2.9175   2.9226   2.9416   2.9429   2.9764   2.9954   3.0229   3.0492
  3.0820   3.0874   3.1675   3.1857   3.1885   3.2223   3.2418   3.2447
  3.2547   3.2707   3.2848   3.3149   3.3253   3.3414   3.3515   3.4021
  3.4110   3.4355   3.4629   3.4676   3.4798   3.4917   3.4960   3.5174
  3.5369   3.5566   3.5863   3.6176   3.6267   3.6785   3.7127   3.7328
  3.7424   3.7640   3.7916   3.8183   3.8319   3.8406   3.8597   3.8719
  3.8858   3.9029   3.9132   3.9699   3.9841   3.9952   4.0075   4.0149
  4.0720   4.0811   4.1411   4.1522   4.1543   4.1964   4.2609   4.2662
  4.2751   4.3125   4.3404   4.3540   4.3770   4.3978   4.4482   4.4746
  4.4957   4.5057   4.5163   4.5242   4.6038   4.6231   4.6527   4.6665
  4.6965   4.7435   4.7569   4.8148   4.9534   5.0189   5.0344   5.1318
  5.1465   5.1949   5.2373   5.2820   5.3047   5.3551   5.4073   5.4851
  5.5265   5.5626   5.6243   5.6759   5.6922   5.7596   5.8330   5.8810
  5.9259   5.9890   6.1811   6.4431   6.5529   7.1236   7.3125   7.3307
  7.3839   7.6429   7.7949  24.2130  24.5956  24.7875  24.8529  25.0806
 25.3928  50.5991
 
 Beta MOs
 -- Occupied --
-19.3361 -10.3992 -10.3449 -10.3446 -10.3432 -10.3415 -10.3409  -1.1502
 -0.9666  -0.8707  -0.8507  -0.7278  -0.7108  -0.6269  -0.6181  -0.5755
 -0.5590  -0.5225  -0.5142  -0.4830  -0.4600  -0.4315  -0.4156  -0.3901
 -0.3470
 -- Virtual --
 -0.0221   0.0241   0.0364   0.0376   0.0547   0.0566   0.0591   0.0802
  0.0830   0.1007   0.1105   0.1165   0.1333   0.1390   0.1485   0.1572
  0.1589   0.1609   0.1630   0.1647   0.1700   0.1746   0.1801   0.1836
  0.1894   0.1909   0.2090   0.2241   0.2255   0.2262   0.2365   0.2472
  0.2635   0.2782   0.2826   0.2884   0.3018   0.3185   0.3269   0.3411
  0.3486   0.3595   0.3727   0.3828   0.3923   0.4050   0.4124   0.4307
  0.4382   0.4511   0.5168   0.5296   0.5647   0.5801   0.5857   0.5926
  0.6071   0.6093   0.6120   0.6143   0.6177   0.6237   0.6469   0.6676
  0.6904   0.6941   0.7109   0.7172   0.7293   0.7322   0.7358   0.7391
  0.7544   0.7630   0.7665   0.8069   0.8188   0.8303   0.8330   0.8345
  0.8421   0.8591   0.8725   0.8785   0.8967   0.9055   0.9648   0.9922
  1.0192   1.0442   1.0668   1.0823   1.0910   1.1091   1.1166   1.1422
  1.1590   1.1697   1.2155   1.2190   1.2384   1.2475   1.2769   1.2841
  1.3061   1.3269   1.3495   1.3723   1.3849   1.3994   1.4042   1.4129
  1.4148   1.4380   1.4463   1.4578   1.4775   1.4887   1.5080   1.5244
  1.5346   1.5720   1.5792   1.5814   1.6034   1.6799   1.7133   1.7224
  1.7798   1.8077   1.8243   1.8441   1.8538   1.9438   1.9901   2.0510
  2.0588   2.0747   2.1039   2.1258   2.2624   2.3587   2.4311   2.5697
  2.5861   2.6100   2.6368   2.6535   2.6879   2.7778   2.7977   2.8114
  2.8198   2.8269   2.8404   2.8480   2.8554   2.8780   2.8833   2.8987
  2.9215   2.9313   2.9423   2.9584   2.9609   2.9907   3.0154   3.0399
  3.0726   3.0966   3.1003   3.1770   3.1956   3.1996   3.2328   3.2560
  3.2602   3.2649   3.2753   3.2965   3.3206   3.3318   3.3502   3.3697
  3.4147   3.4220   3.4412   3.4737   3.4837   3.4897   3.4987   3.5005
  3.5334   3.5470   3.5746   3.6183   3.6301   3.6391   3.6893   3.7216
  3.7426   3.7514   3.7709   3.7938   3.8242   3.8434   3.8556   3.8762
  3.8840   3.8920   3.9124   3.9225   3.9830   3.9920   4.0076   4.0181
  4.0244   4.0813   4.0901   4.1504   4.1606   4.1621   4.2003   4.2687
  4.2785   4.2869   4.3188   4.3468   4.3646   4.3920   4.4085   4.4612
  4.4874   4.5078   4.5152   4.5289   4.5410   4.6162   4.6381   4.6688
  4.6769   4.7043   4.7559   4.7675   4.8278   4.9684   5.0336   5.0484
  5.1445   5.1599   5.2089   5.2480   5.2892   5.3097   5.3586   5.4148
  5.4912   5.5323   5.5717   5.6376   5.6862   5.6982   5.7684   5.8452
  5.8973   5.9372   5.9946   6.1932   6.4536   6.5576   7.1262   7.3155
  7.3353   7.3887   7.6464   7.8004  24.2148  24.5974  24.7887  24.8576
 25.0821  25.3954  50.6005
 --------------------------------------------------------------
 
          Ground-State Mulliken Net Atomic Charges

     Atom                 Charge (a.u.)    Spin (a.u.)
  --------------------------------------------------------
      1 H                     0.291338       0.005420
      2 C                    -0.292536      -0.139215
      3 C                    -0.317504       0.508540
      4 H                     0.287516      -0.010774
      5 C                    -0.317814      -0.139640
      6 H                     0.291573       0.005646
      7 C                    -0.028678       0.353117
      8 H                     0.290608      -0.009553
      9 C                    -0.638480       0.017965
     10 H                     0.174323       0.042959
     11 C                     0.060499       0.353017
     12 H                     0.290569      -0.009323
     13 O                    -0.419098       0.018660
     14 H                     0.327684       0.003181
  --------------------------------------------------------
  Sum of atomic charges =    -0.000000
  Sum of spin   charges =     1.000000

 -----------------------------------------------------------------
                    Cartesian Multipole Moments
 -----------------------------------------------------------------
    Charge (ESU x 10^10)
                -0.0000
    Dipole Moment (Debye)
         X      -1.2755      Y      -2.0172      Z      -0.7605
       Tot       2.5049
    Quadrupole Moments (Debye-Ang)
        XX     -39.2176     XY      -3.6441     YY     -54.5449
        XZ       2.1848     YZ       1.8154     ZZ     -31.1200
    Octopole Moments (Debye-Ang^2)
       XXX      50.2577    XXY     -62.8429    XYY      14.1969
       YYY    -241.9174    XXZ      22.9130    XYZ       6.5492
       YYZ      28.9769    XZZ      12.2002    YZZ     -50.2440
       ZZZ      26.5650
    Hexadecapole Moments (Debye-Ang^3)
      XXXX    -378.8455   XXXY      56.6717   XXYY    -199.6131
      XYYY      63.5549   YYYY    -851.6188   XXXZ      14.1373
      XXYZ      50.5748   XYYZ      19.6047   YYYZ     161.7644
      XXZZ    -150.2742   XYZZ       7.3844   YYZZ    -189.0990
      XZZZ      19.7100   YZZZ      62.6549   ZZZZ    -352.4423
 -----------------------------------------------------------------
 Calculating analytic gradient of the SCF energy
 Gradient of CDS energy
            1           2           3           4           5           6
    1   0.0001036   0.0003094  -0.0002844  -0.0000991  -0.0004873  -0.0002091
    2   0.0000023   0.0000017  -0.0000034   0.0000021   0.0000039   0.0000028
    3   0.0001813   0.0003790   0.0005022   0.0001749  -0.0000676   0.0000041
            7           8           9          10          11          12
    1  -0.0001754  -0.0000936   0.0002081   0.0000668   0.0003930   0.0002103
    2  -0.0000220  -0.0000027   0.0001042  -0.0001641  -0.0000058   0.0000259
    3  -0.0003550  -0.0001516  -0.0002297  -0.0001050  -0.0000406  -0.0000530
           13          14
    1  -0.0000456   0.0001032
    2  -0.0001460   0.0002011
    3   0.0002237  -0.0004627
 Gradient of SCF Energy
            1           2           3           4           5           6
    1   0.0015666  -0.0006962   0.0036608  -0.0024843   0.0040371  -0.0050651
    2  -0.0001570   0.0002830   0.0004133  -0.0000934   0.0002561  -0.0001542
    3   0.0033575  -0.0049168  -0.0054270   0.0042821   0.0017081   0.0001011
            7           8           9          10          11          12
    1   0.0034000  -0.0026750  -0.0001608   0.0009849  -0.0045984   0.0010591
    2  -0.0020957  -0.0004591   0.0082547  -0.0042461  -0.0027186  -0.0010778
    3   0.0045398  -0.0069469   0.0068379  -0.0036795  -0.0005374   0.0002383
           13          14
    1   0.0057579  -0.0047866
    2   0.0070036  -0.0052088
    3   0.0120465  -0.0116034
 Max gradient component =       1.205E-02
 RMS gradient           =       4.456E-03
 Computing fast CPCM-SWIG gradient
 Updating gradient with PCM contributions...
 -- total gradient after adding PCM contribution --
---------------------------------------------------
  Atom         X              Y              Z     
---------------------------------------------------
   1      -0.000001       0.000049       0.000025
   2      -0.000010      -0.000104       0.000021
   3      -0.000045       0.000008       0.000062
   4      -0.000019      -0.000018       0.000004
   5      -0.000028      -0.000020       0.000002
   6      -0.000019      -0.000001      -0.000013
   7      -0.000005      -0.000003      -0.000054
   8       0.000015       0.000018      -0.000017
   9       0.000070       0.000199      -0.000083
  10       0.000003      -0.000047       0.000020
  11       0.000045       0.000024      -0.000037
  12       0.000007       0.000006       0.000003
  13      -0.000066      -0.000139      -0.000027
  14       0.000052       0.000027       0.000094
---------------------------------------------------
 Number of fixed atoms: 0
 Gradient time:  CPU 168.31 s  wall 13.69 s
 ----------------------------------------------------------------
             Standard Nuclear Orientation (Angstroms)
[...]
 C          0.042  0.035 -0.024   -0.061  0.197 -0.067   -0.141 -0.100 -0.063
 H          0.038  0.342 -0.096   -0.064  0.548 -0.144   -0.140 -0.008  0.141
 O         -0.116 -0.062  0.189    0.132 -0.014  0.077    0.055  0.106 -0.101
 H          0.110 -0.029  0.119    0.163  0.166  0.043    0.040  0.191 -0.111
 TransDip   0.090  0.081 -0.081    0.001  0.049 -0.022   -0.033  0.024  0.047

 Mode:                 7                      8                      9
 Frequency:       577.86                 613.72                 712.58
 Force Cnst:      1.2935                 0.3468                 0.6822
 Red. Mass:       6.5747                 1.5629                 2.2801
 IR Active:          YES                    YES                    YES
 IR Intens:        1.538                 99.544                 72.107
 Raman Active:       YES                    YES                    YES
               X      Y      Z        X      Y      Z        X      Y      Z
 H          0.221  0.024  0.256    0.020  0.128 -0.067   -0.064  0.455  0.142
 C          0.064 -0.002  0.348   -0.033 -0.104 -0.033    0.044  0.013  0.083
 C          0.146  0.006  0.096   -0.027  0.043  0.043    0.032 -0.128 -0.054
 H         -0.209  0.030 -0.106   -0.019  0.676  0.040    0.031  0.573 -0.061
 C          0.343 -0.010 -0.114    0.037 -0.105  0.015   -0.091  0.016  0.002
 H          0.345 -0.028  0.045    0.039  0.140 -0.054   -0.084  0.437  0.130
 C         -0.057  0.023 -0.295    0.055  0.045  0.020   -0.112 -0.105 -0.022
 H         -0.238  0.047 -0.187    0.033  0.477  0.033   -0.082  0.176 -0.042
 C         -0.148 -0.005 -0.091    0.031 -0.059 -0.049   -0.017  0.039  0.032
 H          0.045 -0.009  0.027    0.037 -0.055 -0.055    0.016  0.108 -0.051
 C         -0.297 -0.019  0.092   -0.036  0.047 -0.038    0.070 -0.107  0.083
 H         -0.297 -0.023 -0.102   -0.039  0.453 -0.006    0.069  0.215  0.045
 O         -0.029 -0.001 -0.020   -0.026 -0.018  0.037    0.066  0.079 -0.100
 H         -0.029  0.064 -0.030    0.030  0.042  0.013   -0.049  0.002 -0.058
 TransDip   0.030  0.012  0.023    0.051  0.307 -0.072   -0.069  0.247  0.089

 Mode:                10                     11                     12
 Frequency:       764.00                 828.89                 886.52
 Force Cnst:      0.4494                 0.7387                 1.1505
 Red. Mass:       1.3068                 1.8248                 2.4846
 IR Active:          YES                    YES                    YES
 IR Intens:        0.549                  1.295                 21.489
 Raman Active:       YES                    YES                    YES
               X      Y      Z        X      Y      Z        X      Y      Z
 H         -0.027  0.363  0.018    0.049  0.019 -0.110    0.082  0.183 -0.123
 C         -0.007 -0.047  0.011   -0.021  0.049 -0.067   -0.009 -0.008 -0.063
 C         -0.006 -0.000 -0.003   -0.004 -0.168  0.007    0.020  0.069 -0.027
 H         -0.021  0.008 -0.012    0.003  0.690 -0.001    0.025 -0.398 -0.022
 C          0.013  0.045 -0.014    0.065  0.045 -0.013    0.052 -0.011 -0.021
 H          0.008 -0.359 -0.045    0.066  0.047 -0.088    0.058  0.209 -0.102
 C          0.031  0.102  0.013    0.071  0.023  0.018    0.091 -0.129  0.046
 H          0.037 -0.575  0.010    0.098 -0.408  0.006    0.236  0.409 -0.033
 C         -0.005  0.000  0.004   -0.037  0.096  0.066   -0.078  0.179  0.154
 H         -0.174  0.005 -0.103   -0.071  0.022  0.153   -0.060  0.161  0.163
 C          0.016 -0.099  0.010   -0.057  0.027 -0.054   -0.107 -0.123 -0.067
 H          0.012  0.577  0.005   -0.057 -0.437 -0.088   -0.119  0.384 -0.244
 O         -0.020  0.001 -0.008   -0.016 -0.043  0.037    0.018 -0.026  0.002
 H         -0.024 -0.051  0.001   -0.040 -0.100  0.053   -0.142 -0.258  0.080
 TransDip  -0.015 -0.018  0.000    0.012  0.023 -0.026   -0.021  0.147  0.009

 Mode:                13                     14                     15
 Frequency:       960.55                 993.66                1001.21
 Force Cnst:      3.0202                 1.3860                 0.7677
 Red. Mass:       5.5558                 2.3824                 1.2999
 IR Active:          YES                    YES                    YES
 IR Intens:       90.150                 21.124                  1.005
 Raman Active:       YES                    YES                    YES
               X      Y      Z        X      Y      Z        X      Y      Z
 H         -0.118  0.098 -0.106    0.465 -0.264 -0.055   -0.021 -0.488  0.031
 C         -0.097  0.011 -0.124    0.167  0.045  0.098    0.002  0.081  0.010
 C         -0.124  0.001  0.222   -0.099 -0.026  0.169   -0.012  0.010  0.004
 H         -0.129 -0.069  0.226   -0.114  0.120  0.177   -0.044 -0.048 -0.013
 C          0.158  0.018  0.014   -0.163  0.039 -0.096    0.010 -0.114 -0.007
 H          0.152  0.043  0.049   -0.185 -0.220 -0.459    0.021  0.705 -0.057
 C         -0.173 -0.063 -0.212    0.037 -0.026 -0.033    0.010  0.060  0.008
 H         -0.434  0.133 -0.071    0.259  0.115 -0.171   -0.005 -0.373  0.018
 C          0.065  0.275 -0.102    0.009  0.029 -0.031   -0.018  0.001 -0.004
 H          0.003  0.152  0.030   -0.010  0.018 -0.030   -0.123 -0.001 -0.060
 C          0.272 -0.069  0.039    0.021 -0.027 -0.046    0.021 -0.043  0.001
 H          0.281  0.152  0.343    0.025  0.133 -0.322    0.020  0.263 -0.031
 O         -0.059 -0.158  0.088   -0.007 -0.021  0.009   -0.001 -0.000 -0.001
 H         -0.019 -0.066  0.072    0.013  0.028 -0.003    0.012  0.021 -0.008
 TransDip   0.100  0.234 -0.166    0.067  0.039 -0.125   -0.021  0.015 -0.019

 Mode:                16                     17                     18
 Frequency:      1002.97                1020.43                1034.32
 Force Cnst:      0.8580                 2.1617                 1.4348
 Red. Mass:       1.4476                 3.5236                 2.2763
 IR Active:          YES                    YES                    YES
 IR Intens:        4.263                178.893                 27.966
 Raman Active:       YES                    YES                    YES
               X      Y      Z        X      Y      Z        X      Y      Z
 H          0.150  0.658 -0.084    0.123 -0.397 -0.246    0.223  0.019 -0.143
 C          0.032 -0.105 -0.010   -0.053  0.051 -0.144    0.008  0.009 -0.014
 C         -0.039  0.047  0.077   -0.030 -0.015  0.129    0.091  0.001 -0.006
 H         -0.027 -0.228  0.092    0.089  0.124  0.197    0.310 -0.016  0.119
 C         -0.019 -0.070 -0.026    0.070  0.020  0.009   -0.124 -0.023  0.022
 H         -0.017  0.438 -0.124    0.065 -0.263  0.130   -0.125  0.111  0.305
 C         -0.008  0.044 -0.041   -0.095  0.036 -0.150   -0.054  0.065 -0.059
 H          0.060 -0.255 -0.083    0.032  0.048 -0.225    0.014 -0.184 -0.110
 C         -0.014 -0.027  0.047   -0.025 -0.201  0.250    0.207  0.066 -0.033
 H          0.019 -0.032  0.083    0.266 -0.102  0.277    0.585  0.072  0.170
 C          0.020  0.060 -0.018    0.024 -0.036 -0.021   -0.156 -0.050 -0.008
 H          0.023 -0.370 -0.078    0.014  0.241 -0.052   -0.160  0.080  0.213
 O          0.009  0.027 -0.010    0.055  0.151 -0.065   -0.024 -0.042  0.033
 H         -0.018 -0.033  0.005   -0.162 -0.307  0.054   -0.134 -0.239  0.094
 TransDip  -0.014 -0.040  0.051   -0.095 -0.314  0.275    0.159  0.056 -0.018

 Mode:                19                     20                     21
 Frequency:      1101.75                1152.62                1182.56
 Force Cnst:      1.0507                 0.8260                 0.9351
 Red. Mass:       1.4692                 1.0552                 1.1349
 IR Active:          YES                    YES                    YES
 IR Intens:        0.974                  2.179                  6.135
 Raman Active:       YES                    YES                    YES
               X      Y      Z        X      Y      Z        X      Y      Z
 H         -0.281 -0.014  0.103    0.294 -0.018 -0.187    0.400 -0.015 -0.244
 C         -0.092  0.000 -0.002    0.011  0.000 -0.024    0.034  0.001 -0.031
 C          0.131 -0.000  0.078   -0.000  0.000  0.003    0.017  0.000 -0.026
 H          0.672  0.001  0.384   -0.142 -0.002 -0.077    0.000 -0.001 -0.039
 C         -0.039  0.001 -0.080   -0.009  0.001  0.023    0.013  0.000 -0.049
 H         -0.045  0.014 -0.301   -0.004  0.018  0.376    0.008 -0.003 -0.460
 C          0.010 -0.017 -0.009    0.016 -0.019 -0.029   -0.026 -0.006  0.045
 H          0.191  0.020 -0.119    0.455  0.012 -0.291   -0.409  0.029  0.276
 C         -0.038 -0.001 -0.006   -0.021  0.002 -0.000   -0.010 -0.010  0.016
 H         -0.242 -0.019 -0.097   -0.367 -0.017 -0.170   -0.087  0.003 -0.040
 C          0.000  0.012  0.013   -0.014  0.014  0.025   -0.025  0.003  0.041
 H         -0.002 -0.012  0.202   -0.014 -0.002  0.480   -0.027  0.019  0.533
 O         -0.001 -0.002 -0.005   -0.005 -0.005 -0.005    0.008  0.014 -0.000
 H          0.056  0.109 -0.037    0.061  0.117 -0.040   -0.052 -0.115  0.034
 TransDip   0.018  0.025 -0.004    0.004  0.039 -0.026   -0.042 -0.055  0.039

 Mode:                22                     23                     24
 Frequency:      1194.75                1312.04                1339.83
 Force Cnst:      0.9112                 2.2665                 1.4931
 Red. Mass:       1.0835                 2.2347                 1.4117
 IR Active:          YES                    YES                    YES
 IR Intens:       93.787                  9.098                 11.074
 Raman Active:       YES                    YES                    YES
               X      Y      Z        X      Y      Z        X      Y      Z
 H          0.081  0.028 -0.070    0.034  0.006 -0.030    0.001  0.003 -0.032
 C          0.011  0.003 -0.028   -0.114 -0.000  0.054   -0.056 -0.000  0.003
 C         -0.007 -0.000 -0.012    0.140  0.000  0.082    0.094 -0.000  0.048
 H          0.048 -0.011  0.018   -0.501 -0.004 -0.281   -0.351  0.004 -0.206
 C          0.002  0.001  0.009   -0.020  0.001 -0.129   -0.004 -0.001 -0.043
 H          0.001 -0.001 -0.047   -0.017  0.008  0.128   -0.004 -0.017 -0.125
 C          0.009  0.004  0.002   -0.082 -0.021  0.075   -0.048  0.026  0.063
 H         -0.014 -0.011  0.018   -0.077  0.031  0.070    0.179 -0.035 -0.065
 C         -0.019  0.017  0.007    0.151  0.010  0.022   -0.061 -0.013  0.052
 H          0.138 -0.287  0.592   -0.507 -0.402  0.302    0.599  0.431 -0.278
 C         -0.006 -0.046  0.027    0.019 -0.002 -0.118    0.032 -0.002 -0.049
 H         -0.008  0.069  0.055    0.021 -0.011 -0.123    0.032  0.008  0.138
 O         -0.027 -0.010 -0.027   -0.003  0.035  0.005   -0.004 -0.049 -0.014
 H          0.301  0.620 -0.205   -0.016 -0.046  0.018    0.128  0.278 -0.092
 TransDip   0.176  0.206 -0.151    0.021 -0.014 -0.093   -0.018  0.071  0.078

 Mode:                25                     26                     27
 Frequency:      1369.52                1430.50                1457.80
 Force Cnst:      1.4358                 2.5344                 2.1803
 Red. Mass:       1.2993                 2.1021                 1.7413
 IR Active:          YES                    YES                    YES
 IR Intens:        6.823                 13.876                 29.381
 Raman Active:       YES                    YES                    YES
               X      Y      Z        X      Y      Z        X      Y      Z
 H         -0.398  0.005  0.252   -0.189  0.002  0.100    0.457 -0.005 -0.321
 C          0.076  0.001 -0.021    0.059 -0.001 -0.033   -0.131  0.000  0.022
 C          0.019  0.000  0.017   -0.011 -0.000 -0.037    0.039 -0.001 -0.062
 H         -0.232 -0.001 -0.125   -0.056 -0.001 -0.069    0.066  0.000 -0.064
 C          0.002  0.000  0.069    0.049  0.001  0.132    0.039  0.000  0.080
 H         -0.008 -0.002 -0.348    0.035 -0.007 -0.598    0.039 -0.003 -0.375
 C         -0.032  0.002  0.008   -0.124 -0.005 -0.040   -0.078  0.003  0.045
 H          0.287 -0.013 -0.183    0.113  0.007 -0.189    0.391 -0.021 -0.236
 C         -0.046  0.003 -0.076    0.180  0.002  0.119   -0.019  0.003 -0.108
 H          0.115 -0.199  0.342   -0.350  0.103 -0.352    0.086 -0.106  0.121
 C         -0.011 -0.011 -0.058   -0.084  0.008  0.004    0.051  0.001  0.111
 H         -0.008  0.025  0.408   -0.094 -0.027 -0.163    0.057 -0.011 -0.421
 O          0.017  0.033  0.017   -0.027 -0.030 -0.021    0.011  0.016  0.012
 H         -0.131 -0.285  0.099    0.153  0.333 -0.116   -0.089 -0.188  0.065
 TransDip  -0.020 -0.081 -0.009    0.010  0.077 -0.091    0.095 -0.021 -0.144

 Mode:                28                     29                     30
 Frequency:      1560.86                1619.95                2972.88
 Force Cnst:      4.9748                 8.6170                 5.6200
 Red. Mass:       3.4658                 5.5732                 1.0793
 IR Active:          YES                    YES                    YES
 IR Intens:        2.064                  1.232                 39.761
 Raman Active:       YES                    YES                    YES
               X      Y      Z        X      Y      Z        X      Y      Z
 H         -0.197 -0.007 -0.095   -0.383 -0.005  0.054    0.002 -0.002  0.002
 C         -0.009 -0.002 -0.171    0.197 -0.002 -0.253   -0.001 -0.000  0.001
 C          0.201 -0.000  0.110   -0.047  0.001  0.098    0.000  0.000 -0.000
 H         -0.562 -0.000 -0.323   -0.075  0.005  0.091    0.001  0.000 -0.002
 C         -0.157  0.002  0.097    0.105 -0.004 -0.291    0.000 -0.000  0.001
 H         -0.190  0.009 -0.145    0.136 -0.002  0.349   -0.002 -0.002 -0.001
 C          0.176 -0.007 -0.156   -0.177  0.004  0.244    0.002 -0.000  0.000
 H         -0.324  0.010  0.115    0.359 -0.016 -0.044   -0.007  0.002 -0.016
 C         -0.045  0.002 -0.027    0.038 -0.007 -0.093    0.024 -0.064 -0.042
 H         -0.138 -0.006 -0.069    0.052  0.010 -0.061   -0.293  0.809  0.503
 C         -0.037  0.004  0.219   -0.119  0.002  0.300   -0.001 -0.000 -0.002
 H         -0.058 -0.006 -0.323   -0.146 -0.014 -0.346    0.016  0.003 -0.002
 O         -0.004  0.001 -0.001    0.007  0.008 -0.007   -0.000 -0.002  0.001
 H         -0.013 -0.020  0.004   -0.022 -0.042  0.008   -0.004 -0.003  0.000
 TransDip  -0.041  0.002 -0.021   -0.010  0.022  0.026    0.049 -0.180 -0.078

 Mode:                31                     32                     33
 Frequency:      3178.96                3183.35                3195.37
 Force Cnst:      6.4661                 6.4839                 6.5836
 Red. Mass:       1.0860                 1.0860                 1.0944
 IR Active:          YES                    YES                    YES
 IR Intens:        9.354                  5.053                 22.292
 Raman Active:       YES                    YES                    YES
               X      Y      Z        X      Y      Z        X      Y      Z
 H         -0.040 -0.001 -0.069   -0.367 -0.007 -0.639    0.027  0.000  0.046
 C          0.004  0.000  0.006    0.032  0.001  0.054   -0.003 -0.000 -0.004
 C          0.005 -0.000 -0.008    0.005 -0.000 -0.010    0.013 -0.000 -0.017
 H         -0.061  0.001  0.105   -0.070  0.002  0.126   -0.128  0.003  0.220
 C         -0.055  0.001 -0.000    0.000 -0.000 -0.000   -0.062  0.001  0.004
 H          0.656 -0.009 -0.011   -0.005  0.000  0.000    0.697 -0.010 -0.016
 C          0.032 -0.000  0.054   -0.005 -0.000 -0.008   -0.027 -0.000 -0.052
 H         -0.376 -0.000 -0.632    0.058  0.000  0.099    0.332 -0.000  0.563
 C         -0.001  0.001  0.001    0.000  0.000  0.001    0.002 -0.001 -0.001
 H          0.005 -0.008 -0.005    0.001 -0.005 -0.004   -0.007  0.011  0.008
 C         -0.002 -0.000 -0.000   -0.054 -0.000 -0.001    0.009  0.000  0.000
 H          0.018  0.000  0.001    0.645  0.005 -0.001   -0.106 -0.001 -0.001
 O          0.000  0.000 -0.000   -0.000  0.000 -0.000   -0.000 -0.000  0.000
 H          0.001  0.001 -0.002    0.000  0.001  0.000   -0.001 -0.001  0.002
 TransDip  -0.050 -0.000  0.084   -0.021 -0.000  0.069   -0.102 -0.002 -0.112

 Mode:                34                     35                     36
 Frequency:      3199.34                3220.02                3816.48
 Force Cnst:      6.6000                 6.6874                 9.1527
 Red. Mass:       1.0944                 1.0947                 1.0665
 IR Active:          YES                    YES                    YES
 IR Intens:       28.308                 16.114                114.179
 Raman Active:       YES                    YES                    YES
               X      Y      Z        X      Y      Z        X      Y      Z
 H          0.298  0.006  0.526    0.137  0.003  0.233    0.000  0.000  0.001
 C         -0.024 -0.001 -0.049   -0.014 -0.000 -0.022   -0.000  0.000  0.000
 C         -0.007  0.000  0.019    0.040 -0.001 -0.070    0.000 -0.000 -0.000
 H          0.117 -0.003 -0.214   -0.451  0.010  0.795   -0.000 -0.000  0.000
 C         -0.012  0.000 -0.000    0.023 -0.000  0.001   -0.000  0.000 -0.000
 H          0.128 -0.002 -0.002   -0.243  0.003  0.002   -0.000  0.000  0.000
 C         -0.000 -0.000 -0.003    0.003  0.000  0.009    0.000 -0.000  0.000
 H          0.013  0.000  0.024   -0.047  0.000 -0.082   -0.000  0.000 -0.002
 C          0.000  0.001  0.002   -0.000  0.000  0.001   -0.001 -0.001 -0.001
 H          0.003 -0.009 -0.008    0.001 -0.002 -0.002   -0.001 -0.001  0.003
 C         -0.066 -0.000  0.004   -0.012 -0.000  0.002    0.000  0.000 -0.000
 H          0.741  0.006 -0.004    0.122  0.001 -0.002    0.000 -0.000  0.000
 O         -0.000  0.000 -0.000    0.000  0.000 -0.000   -0.017 -0.007 -0.060
 H          0.000  0.001 -0.001   -0.000  0.000 -0.001    0.273  0.125  0.952
 TransDip  -0.167  0.002 -0.035    0.058  0.000 -0.115    0.051 -0.010  0.338

 STANDARD THERMODYNAMIC QUANTITIES AT   298.15 K  AND     1.00 ATM

   This Molecule has  0 Imaginary Frequencies
   Zero point vibrational energy:       71.311 kcal/mol

   Atom    1 Element H  Has Mass    1.00783
   Atom    2 Element C  Has Mass   12.00000
   Atom    3 Element C  Has Mass   12.00000
   Atom    4 Element H  Has Mass    1.00783
   Atom    5 Element C  Has Mass   12.00000
   Atom    6 Element H  Has Mass    1.00783
   Atom    7 Element C  Has Mass   12.00000
   Atom    8 Element H  Has Mass    1.00783
   Atom    9 Element C  Has Mass   12.00000
   Atom   10 Element H  Has Mass    1.00783
   Atom   11 Element C  Has Mass   12.00000
   Atom   12 Element H  Has Mass    1.00783
   Atom   13 Element O  Has Mass   15.99491
   Atom   14 Element H  Has Mass    1.00783
   Molecular Mass:    95.049720 amu
   Principal axes and moments of inertia in amu*Bohr^2:
                             1           2           3
    Eigenvalues --      368.90226   678.04448   970.42052
          X              -0.48163     0.86947    -0.10981
          Y              -0.21387     0.00490     0.97685
          Z               0.84988     0.49396     0.18360
   Rotational Symmetry Number is   1
   The Molecule is an Asymmetric Top
   Translational Enthalpy:        0.889 kcal/mol
   Rotational Enthalpy:           0.889 kcal/mol
   Vibrational Enthalpy:         73.484 kcal/mol
   gas constant (RT):             0.592 kcal/mol
   Translational Entropy:        39.567  cal/mol.K
   Rotational Entropy:           26.987  cal/mol.K
   Vibrational Entropy:          11.904  cal/mol.K

   Total Enthalpy:               75.854 kcal/mol
   Total Entropy:                78.457  cal/mol.K
 Total job time:  7484.80s(wall), 108464.37s(cpu) 
 Tue Apr 23 20:47:00 2024

        *************************************************************
        *                                                           *
        *  Thank you very much for using Q-Chem.  Have a nice day.  *
        *                                                           *
        *************************************************************


