
Running Job 1 of 1 Q_in.in
qchem Q_in.in_76397.0 /scratch/ari.fischer/qChem1914443.hpc-mn1/qchem76397/ 0
/usr/local/qchem-5.4.1/exe/qcprog.exe_s Q_in.in_76397.0 /scratch/ari.fischer/qChem1914443.hpc-mn1/qchem76397/
                  Welcome to Q-Chem
     A Quantum Leap Into The Future Of Chemistry


 Q-Chem 5.4, Q-Chem, Inc., Pleasanton, CA (2021)

 License issued to: Nanyang Technological University (site)

 E. Epifanovsky,  A. T. B. Gilbert,  Xintian Feng,  Joonho Lee,  Yuezhi Mao,  
 N. Mardirossian,  P. Pokhilko,  A. White,  M. Wormit,  M. P. Coons,  
 A. L. Dempwolff,  Zhengting Gan,  D. Hait,  P. R. Horn,  L. D. Jacobson,  
 I. Kaliman,  J. Kussmann,  A. W. Lange,  Ka Un Lao,  D. S. Levine,  Jie Liu,  
 S. C. McKenzie,  A. F. Morrison,  K. Nanda,  F. Plasser,  D. R. Rehn,  
 M. L. Vidal,  Zhi-Qiang You,  Ying Zhu,  B. Alam,  B. Albrecht,  
 A. Aldossary,  E. Alguire,  J. H. Andersen,  D. Barton,  K. Begam,  A. Behn,  
 Y. A. Bernard,  E. J. Berquist,  H. Burton,  A. Carreras,  K. Carter-Fenk,  
 R. Chakraborty,  A. D. Chien,  K. D. Closser,  V. Cofer-Shabica,  
 S. Dasgupta,  Jia Deng,  M. de Wergifosse,  M. Diedenhofen,  Hainam Do,  
 S. Ehlert,  Po-Tung Fang,  S. Fatehi,  Qingguo Feng,  T. Friedhoff,  
 J. Gayvert,  Qinghui Ge,  G. Gidofalvi,  M. Goldey,  J. Gomes,  
 C. Gonzalez-Espinoza,  S. Gulania,  A. Gunina,  M. W. D. Hanson-Heine,  
 P. H. P. Harbach,  A. W. Hauser,  M. F. Herbst,  M. Hernandez Vera,  
 M. Hodecker,  Z. C. Holden,  S. Houck,  Xunkun Huang,  Kerwin Hui,  
 B. C. Huynh,  M. Ivanov,  Hyunjun Ji,  Hanjie Jiang,  B. Kaduk,  S. Kaehler,  
 K. Khistyaev,  Jaehoon Kim,  P. Klunzinger,  Z. Koczor-Benda,  
 Joong Hoon Koh,  D. Kosenkov,  L. Koulias,  T. Kowalczyk,  C. M. Krauter,  
 K. Kue,  A. Kunitsa,  T. Kus,  A. Landau,  K. V. Lawler,  D. Lefrancois,  
 S. Lehtola,  Rain Li,  Yi-Pei Li,  Jiashu Liang,  M. Liebenthal,  
 Hung-Hsuan Lin,  You-Sheng Lin,  Fenglai Liu,  Kuan-Yu Liu,  
 M. Loipersberger,  A. Luenser,  A. Manjanath,  P. Manohar,  E. Mansoor,  
 S. F. Manzer,  Shan-Ping Mao,  A. V. Marenich,  T. Markovich,  S. Mason,  
 S. A. Maurer,  P. F. McLaughlin,  M. F. S. J. Menger,  J.-M. Mewes,  
 S. A. Mewes,  P. Morgante,  J. W. Mullinax,  K. J. Oosterbaan,  G. Paran,  
 Alexander C. Paul,  Suranjan K. Paul,  F. Pavosevic,  Zheng Pei,  S. Prager,  
 E. I. Proynov,  E. Ramos,  B. Rana,  A. E. Rask,  A. Rettig,  R. M. Richard,  
 F. Rob,  E. Rossomme,  T. Scheele,  M. Scheurer,  M. Schneider,  
 N. Sergueev,  S. M. Sharada,  W. Skomorowski,  D. W. Small,  C. J. Stein,  
 Yu-Chuan Su,  E. J. Sundstrom,  Zhen Tao,  J. Thirman,  T. Tsuchimochi,  
 N. M. Tubman,  S. P. Veccham,  O. Vydrov,  J. Wenzel,  J. Witte,  A. Yamada,  
 Kun Yao,  S. Yeganeh,  S. R. Yost,  A. Zech,  Igor Ying Zhang,  Xing Zhang,  
 Yu Zhang,  D. Zuev,  A. Aspuru-Guzik,  A. T. Bell,  N. A. Besley,  
 K. B. Bravaya,  B. R. Brooks,  D. Casanova,  Jeng-Da Chai,  S. Coriani,  
 C. J. Cramer,  A. E. DePrince, III,  R. A. DiStasio Jr.,  A. Dreuw,  
 B. D. Dunietz,  T. R. Furlani,  W. A. Goddard III,  S. Grimme,  
 S. Hammes-Schiffer,  T. Head-Gordon,  W. J. Hehre,  Chao-Ping Hsu,  
 T.-C. Jagau,  Yousung Jung,  A. Klamt,  Jing Kong,  D. S. Lambrecht,  
 WanZhen Liang,  N. J. Mayhall,  C. W. McCurdy,  J. B. Neaton,  
 C. Ochsenfeld,  J. A. Parkhill,  R. Peverati,  V. A. Rassolov,  Yihan Shao,  
 L. V. Slipchenko,  T. Stauch,  R. P. Steele,  J. E. Subotnik,  
 A. J. W. Thom,  A. Tkatchenko,  D. G. Truhlar,  T. Van Voorhis,  
 T. A. Wesolowski,  K. B. Whaley,  H. L. Woodcock III,  P. M. Zimmerman,  
 S. Faraji,  P. M. W. Gill,  M. Head-Gordon,  J. M. Herbert,  A. I. Krylov

 Additional authors for Version 5.4.1: 
 S. Kotaru,  Shaozhi Li,  Xiangyuan Li,  F. Matz,  A. Molle,  Haisheng Ren,  
 Yingli Su,  Hung-Yi Tsai,  C. Utku,  Fang Wang

 Contributors to earlier versions of Q-Chem not listed above: 
 R. D. Adamson,  B. Austin,  R. Baer,  J. Baker,  G. J. O. Beran,  
 K. Brandhorst,  S. T. Brown,  E. F. C. Byrd,  A. K. Chakraborty,  
 G. K. L. Chan,  Chun-Min Chang,  Yunqing Chen,  C.-L. Cheng,  
 Siu Hung Chien,  D. M. Chipman,  D. L. Crittenden,  H. Dachsel,  
 R. J. Doerksen,  A. D. Dutoi,  R. G. Edgar,  J. Fosso-Tande,  
 L. Fusti-Molnar,  D. Ghosh,  A. Ghysels,  A. Golubeva-Zadorozhnaya,  
 J. Gonthier,  M. S. Gordon,  S. R. Gwaltney,  G. Hawkins,  J. E. Herr,  
 A. Heyden,  S. Hirata,  E. G. Hohenstein,  G. Kedziora,  F. J. Keil,  
 C. Kelley,  Jihan Kim,  R. A. King,  R. Z. Khaliullin,  P. P. Korambath,  
 W. Kurlancheek,  A. Laurent,  A. M. Lee,  M. S. Lee,  S. V. Levchenko,  
 Ching Yeh Lin,  D. Liotard,  E. Livshits,  R. C. Lochan,  I. Lotan,  
 L. A. Martinez-Martinez,  P. E. Maslen,  N. Nair,  D. P. O'Neill,  
 D. Neuhauser,  E. Neuscamman,  C. M. Oana,  R. Olivares-Amaya,  R. Olson,  
 T. M. Perrine,  B. Peters,  P. A. Pieniazek,  A. Prociuk,  Y. M. Rhee,  
 J. Ritchie,  M. A. Rohrdanz,  E. Rosta,  N. J. Russ,  H. F. Schaefer III,  
 M. W. Schmidt,  N. E. Schultz,  S. Sharma,  N. Shenvi,  C. D. Sherrill,  
 A. C. Simmonett,  A. Sodt,  T. Stein,  D. Stuck,  K. S. Thanthiriwatte,  
 V. Vanovschi,  L. Vogt,  Tao Wang,  A. Warshel,  M. A. Watson,  
 C. F. Williams,  Q. Wu,  X. Xu,  Jun Yang,  W. Zhang,  Yan Zhao

 Please cite Q-Chem as follows:
 Y. Shao et al., Mol. Phys. 113, 184-215 (2015)
 DOI: 10.1080/00268976.2014.952696

 Q-Chem 5.4.1 for Intel X86 EM64T Linux

 Parts of Q-Chem use Armadillo 9.800.1 (Horizon Scraper).
 http://arma.sourceforge.net/

 Q-Chem begins on Tue Feb  6 21:46:07 2024  

 Host: 
0

     Scratch files written to /scratch/ari.fischer/qChem1914443.hpc-mn1/qchem76397//
 Aug1521 |scratch|qcdevops|jenkins|workspace|build_RNUM 8249   
 Processing $rem in /usr/local/qchem-5.4.1/config/preferences:
 Processing $rem in /home/ari.fischer/.qchemrc:
 Symmetry turned off for PCM/SM12/SMD calculation

 Checking the input file for inconsistencies... 	...done.

--------------------------------------------------------------
User input:
--------------------------------------------------------------
$molecule
0 2
H         0.6009466180    1.4151840815    2.0082552824
C         0.0618232587    1.4028963822    1.0643016091
C        -1.3567918956    1.3978212561    1.0800246698
H        -1.8915557204    1.4063400926    2.0239693388
C        -2.0720761747    1.4018846122   -0.1450052933
H        -3.1591513015    1.4181746287   -0.1234118016
C        -1.4183675255    1.3912701396   -1.3401643498
H        -1.9712021039    1.3969257715   -2.2770893221
C         0.0783942807    1.3768414739   -1.4430793967
H         0.3929507102    0.4679941836   -1.9857836669
C         0.7553288389    1.4002209434   -0.1079901347
H         1.8423378529    1.4159245566   -0.1143608736
O         0.5610360788    2.5165465950   -2.1967713710
H         0.2861641837    2.3703248833   -3.1173538907
$end

$rem
BASIS = 6-311++G(2df,2p)
GUI = 2
JOB_TYPE = Optimization
METHOD = wB97M-V
SCF_ALGORITHM = DIIS_GDM
MAX_SCF_CYCLES = 400
GEOM_OPT_MAX_CYCLES = 150
SCF_CONVERGENCE = 7
THRESH = 12
Solvent_method = SMD
$end
--------------------------------------------------------------
 ----------------------------------------------------------------
             Standard Nuclear Orientation (Angstroms)
    I     Atom           X                Y                Z
 ----------------------------------------------------------------
    1      H       0.6009466180     1.4151840815     2.0082552824
    2      C       0.0618232587     1.4028963822     1.0643016091
    3      C      -1.3567918956     1.3978212561     1.0800246698
    4      H      -1.8915557204     1.4063400926     2.0239693388
    5      C      -2.0720761747     1.4018846122    -0.1450052933
    6      H      -3.1591513015     1.4181746287    -0.1234118016
    7      C      -1.4183675255     1.3912701396    -1.3401643498
    8      H      -1.9712021039     1.3969257715    -2.2770893221
    9      C       0.0783942807     1.3768414739    -1.4430793967
   10      H       0.3929507102     0.4679941836    -1.9857836669
   11      C       0.7553288389     1.4002209434    -0.1079901347
   12      H       1.8423378529     1.4159245566    -0.1143608736
   13      O       0.5610360788     2.5165465950    -2.1967713710
   14      H       0.2861641837     2.3703248833    -3.1173538907
 ----------------------------------------------------------------
 Nuclear Repulsion Energy =         279.03013444 hartrees
 There are       26 alpha and       25 beta electrons
 Requested basis set is 6-311++G(2df,2p)
 There are 98 shells and 308 basis functions

 Total QAlloc Memory Limit 288000 MB
 Mega-Array Size       188 MB
 MEM_STATIC part       192 MB
 
 Citation of the SMD model:
 Marenich, A.V.; Cramer, C.J.; Truhlar, D.G.
 J. Phys. Chem. B 2009, 113, 6378-6396.
 iSolventCode=           1
 Solvent: water                                                           
 
 vradii
            1           2           3           4           5           6
    1   1.2000000   1.8500000   1.8500000   1.2000000   1.8500000   1.2000000
            7           8           9          10          11          12
    1   1.8500000   1.2000000   1.8500000   1.2000000   1.8500000   1.2000000
           13          14
    1   1.5200000   1.2000000
 Changing PCM_VDW_RADII to SMD_RADIUS
 Discretize the solute cavity surface with Lebedev spheres
	Using 110 Lebedev grid points for each H atom
	Using 194 Lebedev grid points for other atoms
	Atomic van der Waals radii will be scaled by 1.20
 Remove points where switching function is < 1.0e-08
 Keep 1038 surface tesserae and discard 1090 interior tesserae
 Molecular Surface Area = 126.000 Angst**2
 A cutoff of  1.0D-12 yielded   4591 shell pairs
 There are     46107 function pairs (     57382 Cartesian)
 Smallest overlap matrix eigenvalue = 1.31E-06

 Scale SEOQF with 1.000000e-01/1.000000e-01/1.000000e-01

 Standard Electronic Orientation quadrupole field applied
 Nucleus-field energy     =     0.0000000015 hartrees
 Guess from superposition of atomic densities
 Warning:  Energy on first SCF cycle will be non-variational
 SAD guess density has 51.000000 electrons

 -----------------------------------------------------------------------
  General SCF calculation program by
  Eric Jon Sundstrom, Paul Horn, Yuezhi Mao, Dmitri Zuev, Alec White,
  David Stuck, Shaama M.S., Shane Yost, Joonho Lee, David Small,
  Daniel Levine, Susi Lehtola, Hugh Burton, Evgeny Epifanovsky,
  Bang C. Huynh
 -----------------------------------------------------------------------
 Exchange:     0.1500 Hartree-Fock + 1.0000 wB97M-V + LR-HF
 Correlation:  1.0000 wB97M-V
 Using SG-2 standard quadrature grid
 Nonlocal Correlation:  VV10 with C = 0.0100 and b = 6.00 and scale = 1.00000
 Grid used for NLC:  SG-1 standard quadrature
 
 Citation of the SMD model:
 Marenich, A.V.; Cramer, C.J.; Truhlar, D.G.
 J. Phys. Chem. B 2009, 113, 6378-6396.
 iSolventCode=           1
 Solvent: water                                                           
 
 vradii
            1           2           3           4           5           6
    1   1.2000000   1.8500000   1.8500000   1.2000000   1.8500000   1.2000000
            7           8           9          10          11          12
    1   1.8500000   1.2000000   1.8500000   1.2000000   1.8500000   1.2000000
           13          14
    1   1.5200000   1.2000000
 using 8 threads for integral computing
 -------------------------------------------------------
 OpenMP Integral computing Module                
 Release: version 1.0, May 2013, Q-Chem Inc. Pittsburgh 
 -------------------------------------------------------
 -------------------------------------------------------
 OpenMP BLAS3 based DFT computing Module                
 Release: version 1.0, May 2013, Q-Chem Inc. Pittsburgh 
 -------------------------------------------------------
 A unrestricted SCF calculation will be
 performed using DIIS, GDM
 SCF converges when RMS gradient is below 1.0e-07
 ---------------------------------------
  Cycle       Energy         DIIS error
 ---------------------------------------
    1    -309.9920247109      1.43e-02  
    2    -307.9188108974      1.24e-03  Done DIIS. Switching to GDM
 ---------------------------------------
  Cycle       Energy        RMS Gradient
 ---------------------------------------
    1    -307.9188108974      3.74e-02   Descent step
    2    -307.9775980999      2.08e-02   Normal BFGS step
    3    -307.9893788600      1.04e-02   Normal BFGS step
    4    -307.9908558828      7.33e-03   Normal BFGS step
    5    -307.9914010625      4.70e-03   Normal BFGS step
    6    -307.9915510738      1.61e-03   Normal BFGS step
    7    -307.9915698132      6.66e-04   Normal BFGS step
    8    -307.9915733663      4.06e-04   Normal BFGS step
    9    -307.9915741823      2.26e-04   Normal BFGS step
   10    -307.9915744539      6.83e-05   Normal BFGS step
   11    -307.9915744937      3.70e-05   Normal BFGS step
   12    -307.9915745054      6.03e-06   Normal BFGS step
   13    -307.9915745060      1.88e-06   Normal BFGS step
   14    -307.9915745061      8.11e-07   Normal BFGS step
   15    -307.9915745061      7.03e-07   Normal BFGS step
   16    -307.9915745061      4.00e-07   Normal BFGS step
   17    -307.9915745061      2.96e-07   Normal BFGS step
   18    -307.9915745061      8.54e-08  Convergence criterion met
 ---------------------------------------
 SCF time:   CPU 918.17s  wall 116.00s 
<S^2> =          0.790354171
(3)  G-ENP(liq) elect-nuc-pol free energy of system     -307.991574506 a.u.
(4)  G-CDS(liq) cavity-dispersion-solvent structure 
     free energy                                                3.0043 kcal/mol
(6)  G-S(liq) free energy of system                     -307.986786838 a.u.
 SCF   energy in the final basis set =     -307.9867868375
 Total energy in the final basis set =     -307.9867868375
 
 --------------------------------------------------------------
 
                    Orbital Energies (a.u.)
 --------------------------------------------------------------
 
 Alpha MOs
 -- Occupied --
-19.3393 -10.4003 -10.3527 -10.3487 -10.3482 -10.3443 -10.3441  -1.1538
 -0.9709  -0.8740  -0.8590  -0.7357  -0.7148  -0.6278  -0.6232  -0.5818
 -0.5630  -0.5233  -0.5177  -0.4906  -0.4646  -0.4516  -0.4244  -0.3963
 -0.3637  -0.2693
 -- Virtual --
  0.0245   0.0365   0.0378   0.0551   0.0565   0.0588   0.0649   0.0828
  0.1007   0.1114   0.1165   0.1299   0.1364   0.1476   0.1564   0.1592
  0.1611   0.1630   0.1643   0.1684   0.1713   0.1771   0.1845   0.1892
  0.1909   0.2092   0.2152   0.2248   0.2257   0.2352   0.2483   0.2627
  0.2769   0.2828   0.2885   0.2993   0.3121   0.3228   0.3352   0.3439
  0.3551   0.3670   0.3796   0.3897   0.4007   0.4087   0.4277   0.4356
  0.4470   0.5151   0.5257   0.5601   0.5751   0.5767   0.5876   0.5993
  0.6033   0.6063   0.6090   0.6143   0.6206   0.6398   0.6585   0.6854
  0.6884   0.7068   0.7096   0.7229   0.7259   0.7306   0.7335   0.7493
  0.7595   0.7607   0.7992   0.8134   0.8224   0.8269   0.8356   0.8362
  0.8522   0.8669   0.8738   0.8893   0.8993   0.9630   0.9878   1.0150
  1.0402   1.0628   1.0792   1.0893   1.1062   1.1125   1.1376   1.1494
  1.1621   1.2121   1.2141   1.2355   1.2442   1.2729   1.2780   1.2992
  1.3206   1.3436   1.3645   1.3776   1.3899   1.3956   1.4037   1.4079
  1.4295   1.4366   1.4498   1.4687   1.4827   1.5012   1.5155   1.5260
  1.5630   1.5695   1.5740   1.5958   1.6740   1.7025   1.7150   1.7688
  1.7986   1.8145   1.8363   1.8509   1.9380   1.9787   2.0425   2.0455
  2.0636   2.0960   2.1192   2.2565   2.3568   2.4310   2.5578   2.5813
  2.5958   2.6341   2.6455   2.6775   2.7636   2.7860   2.7916   2.8006
  2.8192   2.8282   2.8336   2.8348   2.8688   2.8722   2.8883   2.9080
  2.9164   2.9228   2.9403   2.9419   2.9739   2.9931   3.0194   3.0464
  3.0786   3.0826   3.1620   3.1814   3.1868   3.2226   3.2433   3.2453
  3.2516   3.2675   3.2827   3.3112   3.3217   3.3396   3.3446   3.3965
  3.4093   3.4309   3.4606   3.4634   3.4743   3.4879   3.4948   3.5191
  3.5339   3.5542   3.5846   3.6106   3.6174   3.6706   3.7045   3.7261
  3.7381   3.7618   3.7884   3.8130   3.8247   3.8353   3.8553   3.8636
  3.8774   3.8963   3.9065   3.9665   3.9749   3.9898   4.0018   4.0073
  4.0652   4.0715   4.1351   4.1452   4.1464   4.1868   4.2502   4.2593
  4.2629   4.2982   4.3306   4.3475   4.3617   4.3817   4.4355   4.4648
  4.4799   4.4932   4.5033   4.5105   4.5918   4.6073   4.6355   4.6503
  4.6800   4.7286   4.7400   4.7967   4.9351   5.0004   5.0195   5.1176
  5.1307   5.1839   5.2192   5.2730   5.2989   5.3521   5.4013   5.4760
  5.5122   5.5539   5.6095   5.6650   5.6715   5.7370   5.8175   5.8605
  5.9125   5.9669   6.1461   6.4082   6.5528   7.1191   7.2749   7.3330
  7.3869   7.6272   7.7961  24.2055  24.5803  24.7639  24.8313  25.0494
 25.3547  50.5942
 
 Beta MOs
 -- Occupied --
-19.3377 -10.4010 -10.3469 -10.3467 -10.3450 -10.3433 -10.3428  -1.1503
 -0.9640  -0.8689  -0.8489  -0.7261  -0.7098  -0.6244  -0.6170  -0.5751
 -0.5579  -0.5209  -0.5135  -0.4838  -0.4597  -0.4308  -0.4152  -0.3900
 -0.3462
 -- Virtual --
 -0.0224   0.0242   0.0364   0.0376   0.0547   0.0565   0.0591   0.0792
  0.0829   0.1007   0.1102   0.1165   0.1329   0.1387   0.1483   0.1571
  0.1587   0.1608   0.1629   0.1647   0.1698   0.1743   0.1798   0.1835
  0.1892   0.1908   0.2087   0.2237   0.2250   0.2257   0.2360   0.2472
  0.2630   0.2771   0.2823   0.2878   0.3005   0.3165   0.3247   0.3404
  0.3473   0.3575   0.3709   0.3815   0.3913   0.4034   0.4109   0.4295
  0.4371   0.4498   0.5168   0.5286   0.5644   0.5774   0.5815   0.5914
  0.6055   0.6091   0.6103   0.6131   0.6168   0.6237   0.6440   0.6671
  0.6893   0.6928   0.7097   0.7152   0.7281   0.7308   0.7340   0.7378
  0.7528   0.7614   0.7649   0.8045   0.8185   0.8272   0.8314   0.8341
  0.8425   0.8574   0.8698   0.8757   0.8933   0.9026   0.9653   0.9901
  1.0172   1.0418   1.0649   1.0813   1.0905   1.1073   1.1134   1.1406
  1.1556   1.1668   1.2132   1.2158   1.2370   1.2449   1.2744   1.2808
  1.3025   1.3232   1.3469   1.3686   1.3830   1.3941   1.4010   1.4090
  1.4115   1.4351   1.4423   1.4533   1.4737   1.4865   1.5055   1.5198
  1.5300   1.5670   1.5753   1.5775   1.5996   1.6776   1.7087   1.7199
  1.7742   1.8020   1.8233   1.8428   1.8553   1.9414   1.9845   2.0467
  2.0532   2.0678   2.1006   2.1236   2.2593   2.3588   2.4327   2.5692
  2.5883   2.6083   2.6394   2.6556   2.6881   2.7750   2.7919   2.8063
  2.8182   2.8246   2.8387   2.8472   2.8528   2.8753   2.8825   2.8989
  2.9210   2.9321   2.9405   2.9583   2.9593   2.9887   3.0129   3.0367
  3.0700   3.0907   3.0982   3.1706   3.1915   3.1989   3.2329   3.2548
  3.2586   3.2634   3.2749   3.2951   3.3179   3.3281   3.3475   3.3624
  3.4089   3.4191   3.4373   3.4713   3.4797   3.4840   3.4907   3.5034
  3.5358   3.5442   3.5722   3.6161   3.6216   3.6325   3.6811   3.7127
  3.7362   3.7475   3.7686   3.7899   3.8200   3.8361   3.8517   3.8702
  3.8756   3.8837   3.9064   3.9162   3.9781   3.9843   4.0020   4.0122
  4.0168   4.0739   4.0804   4.1445   4.1528   4.1550   4.1909   4.2575
  4.2687   4.2780   4.3045   4.3368   4.3583   4.3767   4.3924   4.4486
  4.4779   4.4915   4.5027   4.5161   4.5269   4.6043   4.6218   4.6519
  4.6609   4.6885   4.7409   4.7505   4.8093   4.9503   5.0149   5.0337
  5.1301   5.1441   5.1980   5.2304   5.2809   5.3032   5.3552   5.4083
  5.4824   5.5178   5.5651   5.6227   5.6716   5.6801   5.7449   5.8324
  5.8743   5.9235   5.9724   6.1580   6.4186   6.5574   7.1216   7.2781
  7.3373   7.3916   7.6307   7.8014  24.2073  24.5821  24.7653  24.8358
 25.0509  25.3573  50.5956
 --------------------------------------------------------------
 
          Ground-State Mulliken Net Atomic Charges

     Atom                 Charge (a.u.)    Spin (a.u.)
  --------------------------------------------------------
      1 H                     0.291302       0.005484
      2 C                    -0.290764      -0.142627
      3 C                    -0.319101       0.510139
      4 H                     0.287444      -0.011045
      5 C                    -0.315008      -0.143107
      6 H                     0.291609       0.005714
      7 C                    -0.041119       0.357346
      8 H                     0.289107      -0.009750
      9 C                    -0.618513       0.016232
     10 H                     0.173719       0.042598
     11 C                     0.050110       0.357434
     12 H                     0.289177      -0.009524
     13 O                    -0.416771       0.018043
     14 H                     0.328807       0.003063
  --------------------------------------------------------
  Sum of atomic charges =    -0.000000
  Sum of spin   charges =     1.000000

 -----------------------------------------------------------------
                    Cartesian Multipole Moments
 -----------------------------------------------------------------
    Charge (ESU x 10^10)
                -0.0000
    Dipole Moment (Debye)
         X      -1.2671      Y      -2.0228      Z      -0.7857
       Tot       2.5129
    Quadrupole Moments (Debye-Ang)
        XX     -39.2414     XY      -3.6348     YY     -54.7100
        XZ       2.1567     YZ       1.8380     ZZ     -31.0473
    Octopole Moments (Debye-Ang^2)
       XXX      50.1443    XXY     -62.8569    XYY      14.2668
       YYY    -242.7486    XXZ      22.9951    XYZ       6.5886
       YYZ      29.2408    XZZ      12.1707    YZZ     -50.4479
       ZZZ      26.4374
    Hexadecapole Moments (Debye-Ang^3)
      XXXX    -380.7028   XXXY      56.3340   XXYY    -200.3442
      XYYY      63.6517   YYYY    -854.9920   XXXZ      14.3676
      XXYZ      50.7504   XYYZ      19.9209   YYYZ     163.3507
      XXZZ    -151.1361   XYZZ       7.1312   YYZZ    -191.0854
      XZZZ      20.0823   YZZZ      63.6389   ZZZZ    -354.0807
 -----------------------------------------------------------------
 Calculating analytic gradient of the SCF energy
 Gradient of CDS energy
            1           2           3           4           5           6
    1   0.0001064   0.0003109  -0.0002858  -0.0001019  -0.0004906  -0.0002148
    2   0.0000024   0.0000017  -0.0000066   0.0000016   0.0000043   0.0000032
    3   0.0001863   0.0003817   0.0005048   0.0001799  -0.0000675   0.0000043
            7           8           9          10          11          12
    1  -0.0001761  -0.0000962   0.0002141   0.0000658   0.0003942   0.0002152
    2  -0.0000205  -0.0000019   0.0001081  -0.0001705  -0.0000063   0.0000280
    3  -0.0003569  -0.0001558  -0.0002358  -0.0001054  -0.0000397  -0.0000546
           13          14
    1  -0.0000444   0.0001031
    2  -0.0001403   0.0001968
    3   0.0002212  -0.0004625
 Gradient of SCF Energy
            1           2           3           4           5           6
    1   0.0030768  -0.0013823   0.0032906  -0.0040871   0.0020252  -0.0084018
    2  -0.0001570   0.0003651   0.0003508  -0.0000821   0.0002451  -0.0000349
    3   0.0062841  -0.0024385  -0.0047206   0.0071641   0.0033754   0.0003426
            7           8           9          10          11          12
    1   0.0049975  -0.0042064   0.0007778   0.0017825  -0.0035553   0.0041755
    2  -0.0022708  -0.0003942   0.0105864  -0.0076461  -0.0024821  -0.0008719
    3   0.0031437  -0.0098325   0.0021829  -0.0050776  -0.0027593  -0.0000681
           13          14
    1   0.0091575  -0.0076503
    2   0.0107232  -0.0083314
    3   0.0201280  -0.0177240
 Max gradient component =       2.013E-02
 RMS gradient           =       6.352E-03
 Computing fast CPCM-SWIG gradient
 Updating gradient with PCM contributions...
 -- total gradient after adding PCM contribution --
---------------------------------------------------
  Atom         X              Y              Z     
---------------------------------------------------
   1       0.001528       0.000046       0.002969
   2      -0.000665      -0.000000       0.002563
   3      -0.000466      -0.000074       0.000789
   4      -0.001627       0.000005       0.002894
   5      -0.002082      -0.000001       0.001705
   6      -0.003366       0.000109       0.000219
   7       0.001651      -0.000146      -0.001584
   8      -0.001539       0.000054      -0.002866
   9       0.001039       0.002499      -0.004828
  10       0.000773      -0.003346      -0.001333
  11       0.001060       0.000094      -0.002294
  12       0.003133       0.000205      -0.000290
  13       0.003320       0.003405       0.008023
  14      -0.002759      -0.002850      -0.005965
---------------------------------------------------
 Number of fixed atoms: 0
 Gradient time:  CPU 142.88 s  wall 20.27 s
 Geometry Optimization Parameters
   NAtoms,    NIC,     NZ,  NCons,   NDum,   NFix, NCnnct, MaxDiis
       14      95       0       0       0       0       0       0


** GEOMETRY OPTIMIZATION IN DELOCALIZED INTERNAL COORDINATES **
   Searching for a Minimum

   Optimization Cycle:   1

                       Coordinates (Angstroms)
     ATOM                X               Y               Z
      1  H         0.6009466180    1.4151840815    2.0082552824
      2  C         0.0618232587    1.4028963822    1.0643016091
      3  C        -1.3567918956    1.3978212561    1.0800246698
      4  H        -1.8915557204    1.4063400926    2.0239693388
      5  C        -2.0720761747    1.4018846122   -0.1450052933
      6  H        -3.1591513015    1.4181746287   -0.1234118016
      7  C        -1.4183675255    1.3912701396   -1.3401643498
      8  H        -1.9712021039    1.3969257715   -2.2770893221
      9  C         0.0783942807    1.3768414739   -1.4430793967
     10  H         0.3929507102    0.4679941836   -1.9857836669
     11  C         0.7553288389    1.4002209434   -0.1079901347
     12  H         1.8423378529    1.4159245566   -0.1143608736
     13  O         0.5610360788    2.5165465950   -2.1967713710
     14  H         0.2861641837    2.3703248833   -3.1173538907
   Point Group: c1    Number of degrees of freedom:    36


   Energy is   -307.986786838


 Attempting to generate delocalized internal coordinates
 Initial Hessian constructed with Jon Baker's OPTIMIZE code

 36 Hessian modes will be used to form the next step
  Hessian Eigenvalues:
     0.009149    0.010748    0.015838    0.017262    0.019944    0.020711
     0.022070    0.023888    0.024349    0.054379    0.068919    0.082357
     0.159978    0.159996    0.159998    0.159999    0.160000    0.160000
     0.164611    0.209014    0.219990    0.219995    0.313311    0.320802
     0.332111    0.350586    0.351135    0.351451    0.351463    0.354050
     0.383617    0.409166    0.418412    0.494018    0.525081    0.530096

 Minimum search - taking simple RFO step
 Searching for Lamda that Minimizes Along All modes
 Value Taken    Lamda =  -0.00070333
 Step Taken.  Stepsize is  0.049007

                             Maximum     Tolerance    Cnvgd?
         Gradient           0.010357      0.000300      NO
         Displacement       0.025413      0.001200      NO
         Energy change     *********      0.000001      NO


 New Cartesian Coordinates Obtained by Inverse Iteration

 Displacement from previous Coordinates is:  0.062977
 ----------------------------------------------------------------
             Standard Nuclear Orientation (Angstroms)
    I     Atom           X                Y                Z
 ----------------------------------------------------------------
    1      H       0.5972474155     1.4151876168     1.9989994104
    2      C       0.0603201240     1.4035950377     1.0595586623
    3      C      -1.3533349858     1.3998447126     1.0744280734
    4      H      -1.8859616125     1.4093456520     2.0138827987
    5      C      -2.0664237125     1.4016579675    -0.1461456397
    6      H      -3.1484654357     1.4163488880    -0.1251882172
    7      C      -1.4169343147     1.3895075535    -1.3361783480
    8      H      -1.9675912217     1.3923400611    -2.2687178347
    9      C       0.0743682613     1.3753960858    -1.4359868921
   10      H       0.3881478824     0.4724392384    -1.9772511115
   11      C       0.7511167191     1.3991918944    -0.1067204777
   12      H       1.8334684632     1.4106134110    -0.1116824583
   13      O       0.5560830216     2.5109020141    -2.1977785650
   14      H       0.2877964960     2.3819794672    -3.1156786010
 ----------------------------------------------------------------
 Nuclear Repulsion Energy =         279.94694346 hartrees
 There are       26 alpha and       25 beta electrons
 Discretize the solute cavity surface with Lebedev spheres
	Using 110 Lebedev grid points for each H atom
	Using 194 Lebedev grid points for other atoms
	Atomic van der Waals radii will be scaled by 1.20
 Remove points where switching function is < 1.0e-08
 Keep 1036 surface tesserae and discard 1092 interior tesserae
 Molecular Surface Area = 125.507 Angst**2
 Applying Cartesian multipole field
    Component          Value
    ---------          -----
     (2,0,0)        1.00000E-11
     (0,2,0)        2.00000E-11
     (0,0,2)       -3.00000E-11
 Nucleus-field energy     =     0.0000000015 hartrees
 Requested basis set is 6-311++G(2df,2p)
 There are 98 shells and 308 basis functions
 A cutoff of  1.0D-12 yielded   4599 shell pairs
 There are     46204 function pairs (     57515 Cartesian)
 Smallest overlap matrix eigenvalue = 1.27E-06
 Guess MOs from SCF MO coefficient file

 -----------------------------------------------------------------------
  General SCF calculation program by
  Eric Jon Sundstrom, Paul Horn, Yuezhi Mao, Dmitri Zuev, Alec White,
  David Stuck, Shaama M.S., Shane Yost, Joonho Lee, David Small,
  Daniel Levine, Susi Lehtola, Hugh Burton, Evgeny Epifanovsky,
  Bang C. Huynh
 -----------------------------------------------------------------------
 Exchange:     0.1500 Hartree-Fock + 1.0000 wB97M-V + LR-HF
 Correlation:  1.0000 wB97M-V
 Using SG-2 standard quadrature grid
 Nonlocal Correlation:  VV10 with C = 0.0100 and b = 6.00 and scale = 1.00000
 Grid used for NLC:  SG-1 standard quadrature
 
 Citation of the SMD model:
 Marenich, A.V.; Cramer, C.J.; Truhlar, D.G.
 J. Phys. Chem. B 2009, 113, 6378-6396.
 iSolventCode=           1
 Solvent: water                                                           
 
 vradii
            1           2           3           4           5           6
    1   1.2000000   1.8500000   1.8500000   1.2000000   1.8500000   1.2000000
            7           8           9          10          11          12
    1   1.8500000   1.2000000   1.8500000   1.2000000   1.8500000   1.2000000
           13          14
    1   1.5200000   1.2000000
 -------------------------------------------------------
 OpenMP BLAS3 based DFT computing Module                
 Release: version 1.0, May 2013, Q-Chem Inc. Pittsburgh 
 -------------------------------------------------------
 A unrestricted SCF calculation will be
 performed using Roothaan-Hall, DIIS, GDM
 SCF converges when RMS gradient is below 1.0e-07
 ---------------------------------------
  Cycle       Energy         DIIS error
 ---------------------------------------
    1    -307.9723736733      2.16e-04  Roothaan Step
 ---------------------------------------
  Cycle       Energy         DIIS error
 ---------------------------------------
    1    -307.9877690842      2.39e-04  
    2    -307.9907172033      1.78e-04  Done DIIS. Switching to GDM
 ---------------------------------------
  Cycle       Energy        RMS Gradient
 ---------------------------------------
    1    -307.9907172033      6.03e-03   Normal BFGS step
    2    -307.9909118130      5.82e-03   Normal BFGS step
    3    -307.9918503792      6.80e-04   Normal BFGS step
    4    -307.9918625307      6.45e-04   Normal BFGS step
    5    -307.9918689147      1.75e-04   Normal BFGS step
    6    -307.9918691917      9.16e-05   Normal BFGS step
    7    -307.9918692539      5.86e-05   Normal BFGS step
    8    -307.9918692740      2.78e-05   Normal BFGS step
    9    -307.9918692799      1.16e-05   Normal BFGS step
   10    -307.9918692805      5.71e-06   Normal BFGS step
   11    -307.9918692807      4.10e-06   Normal BFGS step
   12    -307.9918692808      1.91e-06   Normal BFGS step
   13    -307.9918692808      6.89e-07   Normal BFGS step
   14    -307.9918692808      4.24e-07   Normal BFGS step
   15    -307.9918692808      2.96e-07   Normal BFGS step
   16    -307.9918692808      1.10e-07   Normal BFGS step
   17    -307.9918692808      4.61e-08  Convergence criterion met
 ---------------------------------------
 SCF time:   CPU 928.41s  wall 117.00s 
<S^2> =          0.788844032
(3)  G-ENP(liq) elect-nuc-pol free energy of system     -307.991869281 a.u.
(4)  G-CDS(liq) cavity-dispersion-solvent structure 
     free energy                                                2.9750 kcal/mol
(6)  G-S(liq) free energy of system                     -307.987128304 a.u.
 SCF   energy in the final basis set =     -307.9871283037
 Total energy in the final basis set =     -307.9871283037
 
 --------------------------------------------------------------
 
                    Orbital Energies (a.u.)
 --------------------------------------------------------------
 
 Alpha MOs
 -- Occupied --
-19.3378 -10.3986 -10.3506 -10.3467 -10.3461 -10.3421 -10.3418  -1.1538
 -0.9736  -0.8760  -0.8607  -0.7375  -0.7157  -0.6303  -0.6246  -0.5822
 -0.5642  -0.5249  -0.5185  -0.4900  -0.4650  -0.4525  -0.4245  -0.3964
 -0.3645  -0.2689
 -- Virtual --
  0.0245   0.0366   0.0378   0.0551   0.0567   0.0589   0.0661   0.0829
  0.1006   0.1116   0.1165   0.1305   0.1367   0.1478   0.1566   0.1595
  0.1613   0.1631   0.1644   0.1687   0.1717   0.1774   0.1845   0.1894
  0.1910   0.2095   0.2158   0.2254   0.2261   0.2355   0.2483   0.2632
  0.2781   0.2830   0.2891   0.3007   0.3142   0.3252   0.3358   0.3455
  0.3571   0.3691   0.3810   0.3908   0.4025   0.4103   0.4291   0.4369
  0.4484   0.5151   0.5268   0.5602   0.5773   0.5810   0.5888   0.6011
  0.6043   0.6067   0.6109   0.6154   0.6209   0.6428   0.6590   0.6870
  0.6898   0.7085   0.7116   0.7246   0.7267   0.7327   0.7347   0.7511
  0.7612   0.7625   0.8021   0.8139   0.8254   0.8301   0.8351   0.8358
  0.8539   0.8694   0.8767   0.8930   0.9024   0.9626   0.9900   1.0171
  1.0424   1.0647   1.0804   1.0897   1.1081   1.1158   1.1391   1.1530
  1.1652   1.2145   1.2171   1.2370   1.2468   1.2757   1.2816   1.3031
  1.3245   1.3466   1.3684   1.3796   1.3955   1.3987   1.4079   1.4111
  1.4328   1.4412   1.4546   1.4730   1.4851   1.5035   1.5202   1.5307
  1.5678   1.5733   1.5781   1.5997   1.6763   1.7072   1.7179   1.7748
  1.8049   1.8153   1.8373   1.8493   1.9402   1.9847   2.0472   2.0522
  2.0701   2.0994   2.1219   2.2607   2.3572   2.4299   2.5583   2.5791
  2.5981   2.6309   2.6432   2.6776   2.7661   2.7915   2.7943   2.8059
  2.8196   2.8297   2.8354   2.8381   2.8704   2.8734   2.8880   2.9089
  2.9174   2.9224   2.9417   2.9432   2.9767   2.9957   3.0236   3.0494
  3.0814   3.0873   3.1681   3.1860   3.1886   3.2220   3.2422   3.2447
  3.2547   3.2711   3.2851   3.3149   3.3252   3.3414   3.3522   3.4023
  3.4115   3.4357   3.4630   3.4681   3.4800   3.4916   3.4966   3.5172
  3.5373   3.5569   3.5862   3.6177   3.6275   3.6780   3.7133   3.7329
  3.7426   3.7643   3.7920   3.8183   3.8324   3.8408   3.8599   3.8724
  3.8860   3.9033   3.9138   3.9703   3.9842   3.9957   4.0081   4.0155
  4.0718   4.0816   4.1407   4.1525   4.1545   4.1963   4.2615   4.2667
  4.2758   4.3121   4.3403   4.3544   4.3769   4.3974   4.4491   4.4747
  4.4968   4.5070   4.5170   4.5263   4.6050   4.6238   4.6540   4.6680
  4.6969   4.7440   4.7584   4.8156   4.9547   5.0192   5.0352   5.1321
  5.1481   5.1959   5.2381   5.2822   5.3047   5.3550   5.4077   5.4857
  5.5275   5.5630   5.6242   5.6754   5.6916   5.7613   5.8344   5.8824
  5.9272   5.9903   6.1834   6.4453   6.5555   7.1235   7.3089   7.3303
  7.3845   7.6437   7.7950  24.2133  24.5959  24.7880  24.8551  25.0838
 25.3957  50.5986
 
 Beta MOs
 -- Occupied --
-19.3362 -10.3992 -10.3447 -10.3443 -10.3430 -10.3413 -10.3407  -1.1503
 -0.9668  -0.8709  -0.8507  -0.7279  -0.7107  -0.6270  -0.6182  -0.5755
 -0.5591  -0.5225  -0.5143  -0.4830  -0.4600  -0.4316  -0.4155  -0.3900
 -0.3471
 -- Virtual --
 -0.0220   0.0241   0.0364   0.0376   0.0547   0.0566   0.0591   0.0803
  0.0830   0.1006   0.1104   0.1165   0.1333   0.1391   0.1485   0.1572
  0.1590   0.1609   0.1630   0.1648   0.1701   0.1747   0.1802   0.1836
  0.1894   0.1909   0.2090   0.2241   0.2255   0.2263   0.2366   0.2472
  0.2636   0.2782   0.2826   0.2884   0.3019   0.3185   0.3270   0.3413
  0.3485   0.3597   0.3729   0.3828   0.3924   0.4051   0.4125   0.4309
  0.4382   0.4513   0.5168   0.5298   0.5647   0.5800   0.5856   0.5926
  0.6072   0.6093   0.6122   0.6143   0.6178   0.6239   0.6471   0.6675
  0.6906   0.6942   0.7110   0.7172   0.7294   0.7323   0.7359   0.7391
  0.7545   0.7631   0.7666   0.8073   0.8189   0.8304   0.8330   0.8346
  0.8420   0.8588   0.8728   0.8786   0.8970   0.9058   0.9649   0.9923
  1.0193   1.0440   1.0667   1.0823   1.0909   1.1092   1.1169   1.1422
  1.1592   1.1699   1.2156   1.2187   1.2385   1.2475   1.2772   1.2844
  1.3065   1.3270   1.3498   1.3725   1.3850   1.3996   1.4043   1.4132
  1.4149   1.4384   1.4468   1.4581   1.4779   1.4888   1.5080   1.5246
  1.5345   1.5720   1.5792   1.5815   1.6034   1.6799   1.7133   1.7228
  1.7802   1.8081   1.8246   1.8438   1.8535   1.9436   1.9905   2.0514
  2.0593   2.0748   2.1040   2.1263   2.2636   2.3592   2.4317   2.5696
  2.5861   2.6102   2.6368   2.6534   2.6883   2.7775   2.7981   2.8113
  2.8198   2.8274   2.8407   2.8482   2.8555   2.8779   2.8831   2.8987
  2.9214   2.9311   2.9423   2.9586   2.9613   2.9910   3.0157   3.0405
  3.0728   3.0962   3.0999   3.1775   3.1958   3.1999   3.2325   3.2564
  3.2603   3.2648   3.2756   3.2968   3.3206   3.3316   3.3502   3.3704
  3.4150   3.4226   3.4414   3.4739   3.4841   3.4900   3.4989   3.5007
  3.5333   3.5474   3.5750   3.6183   3.6302   3.6397   3.6887   3.7222
  3.7427   3.7516   3.7712   3.7942   3.8240   3.8438   3.8557   3.8766
  3.8845   3.8924   3.9128   3.9232   3.9834   3.9920   4.0082   4.0188
  4.0250   4.0813   4.0906   4.1500   4.1608   4.1624   4.2002   4.2694
  4.2793   4.2872   4.3185   4.3467   4.3651   4.3920   4.4081   4.4622
  4.4877   4.5086   4.5166   4.5296   4.5431   4.6173   4.6390   4.6702
  4.6784   4.7048   4.7564   4.7690   4.8286   4.9697   5.0339   5.0491
  5.1447   5.1616   5.2098   5.2488   5.2894   5.3097   5.3585   5.4151
  5.4917   5.5333   5.5721   5.6376   5.6858   5.6975   5.7702   5.8466
  5.8986   5.9386   5.9959   6.1955   6.4557   6.5602   7.1261   7.3120
  7.3348   7.3893   7.6472   7.8004  24.2151  24.5977  24.7893  24.8598
 25.0852  25.3983  50.6000
 --------------------------------------------------------------
 
          Ground-State Mulliken Net Atomic Charges

     Atom                 Charge (a.u.)    Spin (a.u.)
  --------------------------------------------------------
      1 H                     0.291490       0.005414
      2 C                    -0.291983      -0.138845
      3 C                    -0.318784       0.508566
      4 H                     0.287308      -0.010769
      5 C                    -0.317327      -0.139257
      6 H                     0.291713       0.005640
      7 C                    -0.028119       0.352757
      8 H                     0.290239      -0.009546
      9 C                    -0.638304       0.018002
     10 H                     0.174310       0.043052
     11 C                     0.060534       0.352825
     12 H                     0.290153      -0.009333
     13 O                    -0.419263       0.018343
     14 H                     0.328032       0.003151
  --------------------------------------------------------
  Sum of atomic charges =     0.000000
  Sum of spin   charges =     1.000000

 -----------------------------------------------------------------
                    Cartesian Multipole Moments
 -----------------------------------------------------------------
    Charge (ESU x 10^10)
                -0.0000
    Dipole Moment (Debye)
         X      -1.2717      Y      -2.0144      Z      -0.7647
       Tot       2.5020
    Quadrupole Moments (Debye-Ang)
        XX     -39.2306     XY      -3.6276     YY     -54.5252
        XZ       2.1827     YZ       1.8007     ZZ     -31.1078
    Octopole Moments (Debye-Ang^2)
       XXX      50.2523    XXY     -62.8463    XYY      14.2316
       YYY    -241.8445    XXZ      22.9129    XYZ       6.5494
       YYZ      28.9522    XZZ      12.2439    YZZ     -50.2352
       ZZZ      26.4690
    Hexadecapole Moments (Debye-Ang^3)
      XXXX    -378.8022   XXXY      56.6703   XXYY    -199.5360
      XYYY      63.6098   YYYY    -851.2403   XXXZ      14.2161
      XXYZ      50.5614   XYYZ      19.6194   YYYZ     161.8628
      XXZZ    -150.3334   XYZZ       7.4791   YYZZ    -189.1515
      XZZZ      19.6352   YZZZ      62.5523   ZZZZ    -352.1719
 -----------------------------------------------------------------
 Calculating analytic gradient of the SCF energy
 Gradient of CDS energy
            1           2           3           4           5           6
    1   0.0001035   0.0003087  -0.0002838  -0.0000991  -0.0004864  -0.0002089
    2   0.0000022   0.0000019  -0.0000047   0.0000018   0.0000042   0.0000028
    3   0.0001811   0.0003787   0.0005011   0.0001747  -0.0000673   0.0000040
            7           8           9          10          11          12
    1  -0.0001757  -0.0000938   0.0002093   0.0000658   0.0003927   0.0002101
    2  -0.0000211  -0.0000025   0.0001047  -0.0001646  -0.0000060   0.0000264
    3  -0.0003545  -0.0001514  -0.0002312  -0.0001041  -0.0000393  -0.0000532
           13          14
    1  -0.0000460   0.0001036
    2  -0.0001452   0.0002001
    3   0.0002239  -0.0004628
 Gradient of SCF Energy
            1           2           3           4           5           6
    1   0.0015050  -0.0006044   0.0039264  -0.0023894   0.0042740  -0.0048834
    2  -0.0001755   0.0003767   0.0004053  -0.0001241   0.0002770  -0.0001430
    3   0.0032173  -0.0051911  -0.0058904   0.0041466   0.0014901   0.0000558
            7           8           9          10          11          12
    1   0.0031762  -0.0027243   0.0002820   0.0008111  -0.0051381   0.0009674
    2  -0.0021866  -0.0004428   0.0085841  -0.0042266  -0.0030113  -0.0009984
    3   0.0052296  -0.0068632   0.0063641  -0.0035295   0.0003911   0.0002375
           13          14
    1   0.0057287  -0.0049312
    2   0.0068645  -0.0051993
    3   0.0127489  -0.0124069
 Max gradient component =       1.275E-02
 RMS gradient           =       4.591E-03
 Computing fast CPCM-SWIG gradient
 Updating gradient with PCM contributions...
 -- total gradient after adding PCM contribution --
---------------------------------------------------
  Atom         X              Y              Z     
---------------------------------------------------
   1      -0.000064       0.000032      -0.000116
   2       0.000093      -0.000007      -0.000276
   3       0.000228      -0.000009      -0.000407
   4       0.000066      -0.000040      -0.000118
   5       0.000221       0.000010      -0.000213
   6       0.000153       0.000009      -0.000054
   7      -0.000236      -0.000110       0.000658
   8      -0.000033       0.000026       0.000042
   9       0.000514       0.000563      -0.000539
  10      -0.000156      -0.000020       0.000152
  11      -0.000525      -0.000293       0.000918
  12      -0.000071       0.000081      -0.000000
  13      -0.000090      -0.000285       0.000634
  14      -0.000101       0.000043      -0.000682
---------------------------------------------------
 Number of fixed atoms: 0
 Gradient time:  CPU 143.92 s  wall 20.49 s
 Geometry Optimization Parameters
   NAtoms,    NIC,     NZ,  NCons,   NDum,   NFix, NCnnct, MaxDiis
       14      95       0       0       0       0       0       0

 Cartesian Hessian Update
 Hessian updated using BFGS update


** GEOMETRY OPTIMIZATION IN DELOCALIZED INTERNAL COORDINATES **
   Searching for a Minimum

   Optimization Cycle:   2

                       Coordinates (Angstroms)
     ATOM                X               Y               Z
      1  H         0.5972474155    1.4151876168    1.9989994104
      2  C         0.0603201240    1.4035950377    1.0595586623
      3  C        -1.3533349858    1.3998447126    1.0744280734
      4  H        -1.8859616125    1.4093456520    2.0138827987
      5  C        -2.0664237125    1.4016579675   -0.1461456397
      6  H        -3.1484654357    1.4163488880   -0.1251882172
      7  C        -1.4169343147    1.3895075535   -1.3361783480
      8  H        -1.9675912217    1.3923400611   -2.2687178347
      9  C         0.0743682613    1.3753960858   -1.4359868921
     10  H         0.3881478824    0.4724392384   -1.9772511115
     11  C         0.7511167191    1.3991918944   -0.1067204777
     12  H         1.8334684632    1.4106134110   -0.1116824583
     13  O         0.5560830216    2.5109020141   -2.1977785650
     14  H         0.2877964960    2.3819794672   -3.1156786010
   Point Group: c1    Number of degrees of freedom:    36


   Energy is   -307.987128304

 Hessian updated using BFGS update

 36 Hessian modes will be used to form the next step
  Hessian Eigenvalues:
     0.009148    0.010740    0.015833    0.017242    0.019943    0.020711
     0.022070    0.023889    0.024348    0.054440    0.068616    0.082350
     0.159867    0.159979    0.159997    0.159998    0.160000    0.161940
     0.165339    0.208294    0.219859    0.220036    0.309704    0.320414
     0.332468    0.350192    0.351256    0.351411    0.352385    0.354969
     0.383381    0.416325    0.418482    0.494011    0.516115    0.550040

 Minimum search - taking simple RFO step
 Searching for Lamda that Minimizes Along All modes
 Value Taken    Lamda =  -0.00000693
 Step Taken.  Stepsize is  0.009077

                             Maximum     Tolerance    Cnvgd?
         Gradient           0.000730      0.000300      NO
         Displacement       0.003829      0.001200      NO
         Energy change     -0.000341      0.000001      NO


 New Cartesian Coordinates Obtained by Inverse Iteration

 Displacement from previous Coordinates is:  0.009411
 ----------------------------------------------------------------
             Standard Nuclear Orientation (Angstroms)
    I     Atom           X                Y                Z
 ----------------------------------------------------------------
    1      H       0.5975319634     1.4148979811     1.9988249058
    2      C       0.0604119187     1.4039562706     1.0593186098
    3      C      -1.3537157370     1.4007260742     1.0748189919
    4      H      -1.8863312087     1.4110418787     2.0144466552
    5      C      -2.0669110176     1.4015684390    -0.1461692744
    6      H      -3.1491349605     1.4159768565    -0.1250290614
    7      C      -1.4171169679     1.3889192960    -1.3367041393
    8      H      -1.9672178118     1.3910220982    -2.2695591574
    9      C       0.0741311350     1.3747865703    -1.4358869965
   10      H       0.3894012858     0.4729967957    -1.9784408961
   11      C       0.7515559147     1.3992968392    -0.1074955830
   12      H       1.8339807757     1.4091060513    -0.1126985317
   13      O       0.5560244217     2.5114575747    -2.1964401838
   14      H       0.2872273889     2.3825968749    -3.1134445393
 ----------------------------------------------------------------
 Nuclear Repulsion Energy =         279.92351778 hartrees
 There are       26 alpha and       25 beta electrons
 Discretize the solute cavity surface with Lebedev spheres
	Using 110 Lebedev grid points for each H atom
	Using 194 Lebedev grid points for other atoms
	Atomic van der Waals radii will be scaled by 1.20
 Remove points where switching function is < 1.0e-08
 Keep 1036 surface tesserae and discard 1092 interior tesserae
 Molecular Surface Area = 125.515 Angst**2
 Applying Cartesian multipole field
    Component          Value
    ---------          -----
     (2,0,0)        1.00000E-11
     (0,2,0)        2.00000E-11
     (0,0,2)       -3.00000E-11
 Nucleus-field energy     =     0.0000000015 hartrees
 Requested basis set is 6-311++G(2df,2p)
 There are 98 shells and 308 basis functions
 A cutoff of  1.0D-12 yielded   4599 shell pairs
 There are     46204 function pairs (     57515 Cartesian)
 Smallest overlap matrix eigenvalue = 1.27E-06
 Guess MOs from SCF MO coefficient file

 -----------------------------------------------------------------------
  General SCF calculation program by
  Eric Jon Sundstrom, Paul Horn, Yuezhi Mao, Dmitri Zuev, Alec White,
  David Stuck, Shaama M.S., Shane Yost, Joonho Lee, David Small,
  Daniel Levine, Susi Lehtola, Hugh Burton, Evgeny Epifanovsky,
  Bang C. Huynh
 -----------------------------------------------------------------------
 Exchange:     0.1500 Hartree-Fock + 1.0000 wB97M-V + LR-HF
 Correlation:  1.0000 wB97M-V
 Using SG-2 standard quadrature grid
 Nonlocal Correlation:  VV10 with C = 0.0100 and b = 6.00 and scale = 1.00000
 Grid used for NLC:  SG-1 standard quadrature
 
 Citation of the SMD model:
 Marenich, A.V.; Cramer, C.J.; Truhlar, D.G.
 J. Phys. Chem. B 2009, 113, 6378-6396.
 iSolventCode=           1
 Solvent: water                                                           
 
 vradii
            1           2           3           4           5           6
    1   1.2000000   1.8500000   1.8500000   1.2000000   1.8500000   1.2000000
            7           8           9          10          11          12
    1   1.8500000   1.2000000   1.8500000   1.2000000   1.8500000   1.2000000
           13          14
    1   1.5200000   1.2000000
 -------------------------------------------------------
 OpenMP BLAS3 based DFT computing Module                
 Release: version 1.0, May 2013, Q-Chem Inc. Pittsburgh 
 -------------------------------------------------------
 A unrestricted SCF calculation will be
 performed using Roothaan-Hall, DIIS, GDM
 SCF converges when RMS gradient is below 1.0e-07
 ---------------------------------------
  Cycle       Energy         DIIS error
 ---------------------------------------
    1    -307.9723500855      2.12e-04  Roothaan Step
 ---------------------------------------
  Cycle       Energy         DIIS error
 ---------------------------------------
    1    -307.9876690737      2.43e-04  
    2    -307.9906713094      1.82e-04  Done DIIS. Switching to GDM
 ---------------------------------------
  Cycle       Energy        RMS Gradient
 ---------------------------------------
    1    -307.9906713094      6.01e-03   Normal BFGS step
    2    -307.9908966545      5.82e-03   Normal BFGS step
    3    -307.9918546854      7.21e-04   Normal BFGS step
    4    -307.9918667965      7.05e-04   Normal BFGS step
    5    -307.9918739927      1.75e-04   Normal BFGS step
    6    -307.9918742563      5.25e-05   Normal BFGS step
    7    -307.9918743028      6.30e-05   Normal BFGS step
    8    -307.9918743159      3.31e-05   Normal BFGS step
    9    -307.9918743194      7.44e-06   Normal BFGS step
   10    -307.9918743200      4.98e-06   Normal BFGS step
   11    -307.9918743202      4.86e-06   Normal BFGS step
   12    -307.9918743202      2.43e-06   Normal BFGS step
   13    -307.9918743203      5.16e-07   Normal BFGS step
   14    -307.9918743203      3.33e-07   Normal BFGS step
   15    -307.9918743203      1.74e-07   Normal BFGS step
   16    -307.9918743203      7.22e-08  Convergence criterion met
 ---------------------------------------
 SCF time:   CPU 890.50s  wall 112.00s 
<S^2> =          0.788979946
(3)  G-ENP(liq) elect-nuc-pol free energy of system     -307.991874320 a.u.
(4)  G-CDS(liq) cavity-dispersion-solvent structure 
     free energy                                                2.9758 kcal/mol
(6)  G-S(liq) free energy of system                     -307.987132143 a.u.
 SCF   energy in the final basis set =     -307.9871321429
 Total energy in the final basis set =     -307.9871321429
 
 --------------------------------------------------------------
 
                    Orbital Energies (a.u.)
 --------------------------------------------------------------
 
 Alpha MOs
 -- Occupied --
-19.3377 -10.3985 -10.3508 -10.3468 -10.3462 -10.3422 -10.3419  -1.1539
 -0.9735  -0.8758  -0.8607  -0.7374  -0.7158  -0.6302  -0.6245  -0.5822
 -0.5641  -0.5248  -0.5185  -0.4901  -0.4650  -0.4524  -0.4246  -0.3965
 -0.3644  -0.2689
 -- Virtual --
  0.0245   0.0366   0.0378   0.0551   0.0567   0.0589   0.0660   0.0829
  0.1007   0.1116   0.1165   0.1305   0.1367   0.1478   0.1566   0.1595
  0.1613   0.1631   0.1644   0.1687   0.1716   0.1774   0.1845   0.1895
  0.1910   0.2095   0.2157   0.2254   0.2261   0.2355   0.2483   0.2632
  0.2782   0.2829   0.2892   0.3007   0.3142   0.3252   0.3356   0.3455
  0.3570   0.3690   0.3810   0.3908   0.4024   0.4103   0.4291   0.4368
  0.4483   0.5150   0.5266   0.5603   0.5774   0.5810   0.5888   0.6010
  0.6043   0.6066   0.6108   0.6153   0.6208   0.6426   0.6591   0.6868
  0.6898   0.7083   0.7116   0.7245   0.7267   0.7326   0.7347   0.7511
  0.7612   0.7624   0.8018   0.8139   0.8254   0.8300   0.8351   0.8358
  0.8540   0.8691   0.8765   0.8927   0.9021   0.9626   0.9900   1.0171
  1.0425   1.0649   1.0803   1.0898   1.1081   1.1157   1.1391   1.1528
  1.1650   1.2144   1.2171   1.2369   1.2468   1.2755   1.2813   1.3028
  1.3243   1.3463   1.3682   1.3795   1.3953   1.3986   1.4078   1.4111
  1.4325   1.4407   1.4544   1.4728   1.4852   1.5035   1.5202   1.5308
  1.5679   1.5731   1.5780   1.5996   1.6763   1.7071   1.7178   1.7745
  1.8045   1.8153   1.8376   1.8495   1.9406   1.9843   2.0470   2.0518
  2.0700   2.0993   2.1216   2.2599   2.3571   2.4296   2.5586   2.5791
  2.5979   2.6310   2.6435   2.6774   2.7664   2.7913   2.7942   2.8057
  2.8197   2.8295   2.8354   2.8380   2.8704   2.8737   2.8879   2.9090
  2.9176   2.9226   2.9417   2.9430   2.9765   2.9954   3.0231   3.0492
  3.0819   3.0874   3.1676   3.1858   3.1885   3.2223   3.2420   3.2446
  3.2546   3.2708   3.2850   3.3149   3.3254   3.3415   3.3516   3.4021
  3.4111   3.4356   3.4630   3.4677   3.4798   3.4917   3.4962   3.5173
  3.5370   3.5567   3.5862   3.6175   3.6270   3.6783   3.7129   3.7327
  3.7424   3.7643   3.7916   3.8183   3.8321   3.8407   3.8596   3.8720
  3.8858   3.9029   3.9132   3.9699   3.9842   3.9955   4.0075   4.0148
  4.0719   4.0810   4.1411   4.1523   4.1544   4.1965   4.2610   4.2663
  4.2754   4.3124   4.3405   4.3541   4.3768   4.3978   4.4484   4.4746
  4.4959   4.5062   4.5164   4.5246   4.6043   4.6232   4.6529   4.6667
  4.6965   4.7435   4.7571   4.8148   4.9536   5.0190   5.0346   5.1319
  5.1468   5.1951   5.2373   5.2821   5.3047   5.3552   5.4076   5.4854
  5.5269   5.5630   5.6244   5.6761   5.6924   5.7599   5.8335   5.8814
  5.9265   5.9898   6.1816   6.4434   6.5547   7.1237   7.3125   7.3309
  7.3844   7.6432   7.7951  24.2132  24.5956  24.7880  24.8534  25.0811
 25.3932  50.5992
 
 Beta MOs
 -- Occupied --
-19.3361 -10.3992 -10.3448 -10.3445 -10.3432 -10.3414 -10.3408  -1.1504
 -0.9666  -0.8708  -0.8507  -0.7278  -0.7108  -0.6269  -0.6182  -0.5755
 -0.5590  -0.5224  -0.5143  -0.4830  -0.4600  -0.4315  -0.4156  -0.3901
 -0.3470
 -- Virtual --
 -0.0221   0.0241   0.0364   0.0376   0.0547   0.0566   0.0591   0.0802
  0.0830   0.1007   0.1104   0.1165   0.1333   0.1390   0.1485   0.1572
  0.1589   0.1609   0.1630   0.1647   0.1700   0.1747   0.1801   0.1836
  0.1894   0.1909   0.2090   0.2241   0.2254   0.2263   0.2365   0.2472
  0.2635   0.2783   0.2825   0.2885   0.3019   0.3185   0.3270   0.3411
  0.3486   0.3596   0.3728   0.3828   0.3923   0.4051   0.4125   0.4308
  0.4382   0.4512   0.5168   0.5297   0.5647   0.5801   0.5857   0.5926
  0.6071   0.6093   0.6120   0.6143   0.6178   0.6238   0.6468   0.6676
  0.6905   0.6942   0.7109   0.7172   0.7293   0.7323   0.7358   0.7391
  0.7545   0.7630   0.7665   0.8070   0.8189   0.8303   0.8330   0.8345
  0.8420   0.8590   0.8725   0.8785   0.8967   0.9055   0.9649   0.9923
  1.0193   1.0440   1.0669   1.0823   1.0910   1.1092   1.1167   1.1422
  1.1590   1.1697   1.2155   1.2188   1.2384   1.2474   1.2769   1.2840
  1.3062   1.3269   1.3496   1.3723   1.3849   1.3994   1.4041   1.4130
  1.4148   1.4381   1.4464   1.4579   1.4777   1.4889   1.5079   1.5246
  1.5346   1.5720   1.5792   1.5814   1.6033   1.6799   1.7132   1.7227
  1.7799   1.8078   1.8246   1.8440   1.8537   1.9440   1.9901   2.0512
  2.0590   2.0747   2.1039   2.1259   2.2627   2.3592   2.4313   2.5699
  2.5861   2.6100   2.6368   2.6536   2.6880   2.7778   2.7978   2.8114
  2.8198   2.8270   2.8405   2.8481   2.8554   2.8780   2.8833   2.8987
  2.9216   2.9313   2.9423   2.9585   2.9611   2.9908   3.0154   3.0401
  3.0726   3.0965   3.1002   3.1771   3.1956   3.1997   3.2327   3.2561
  3.2602   3.2648   3.2754   3.2967   3.3206   3.3318   3.3503   3.3698
  3.4147   3.4221   3.4413   3.4738   3.4838   3.4898   3.4988   3.5005
  3.5333   3.5471   3.5748   3.6183   3.6300   3.6394   3.6890   3.7218
  3.7426   3.7514   3.7712   3.7938   3.8242   3.8436   3.8557   3.8761
  3.8841   3.8921   3.9124   3.9226   3.9830   3.9921   4.0080   4.0182
  4.0244   4.0813   4.0900   4.1505   4.1608   4.1622   4.2005   4.2688
  4.2788   4.2871   4.3188   4.3468   4.3648   4.3919   4.4085   4.4614
  4.4875   4.5080   4.5157   4.5291   4.5413   4.6167   4.6382   4.6692
  4.6771   4.7044   4.7559   4.7677   4.8277   4.9686   5.0336   5.0485
  5.1445   5.1602   5.2090   5.2481   5.2893   5.3097   5.3587   5.4150
  5.4914   5.5327   5.5722   5.6377   5.6864   5.6982   5.7687   5.8459
  5.8976   5.9379   5.9954   6.1937   6.4538   6.5595   7.1263   7.3155
  7.3355   7.3892   7.6467   7.8006  24.2150  24.5975  24.7892  24.8581
 25.0826  25.3958  50.6006
 --------------------------------------------------------------
 
          Ground-State Mulliken Net Atomic Charges

     Atom                 Charge (a.u.)    Spin (a.u.)
  --------------------------------------------------------
      1 H                     0.291411       0.005419
      2 C                    -0.292531      -0.139158
      3 C                    -0.318121       0.508605
      4 H                     0.287467      -0.010776
      5 C                    -0.317899      -0.139586
      6 H                     0.291616       0.005645
      7 C                    -0.028430       0.353132
      8 H                     0.290495      -0.009549
      9 C                    -0.638237       0.017914
     10 H                     0.174107       0.043033
     11 C                     0.060718       0.353010
     12 H                     0.290489      -0.009325
     13 O                    -0.418821       0.018469
     14 H                     0.327734       0.003167
  --------------------------------------------------------
  Sum of atomic charges =     0.000000
  Sum of spin   charges =     1.000000

 -----------------------------------------------------------------
                    Cartesian Multipole Moments
 -----------------------------------------------------------------
    Charge (ESU x 10^10)
                 0.0000
    Dipole Moment (Debye)
         X      -1.2729      Y      -2.0180      Z      -0.7630
       Tot       2.5050
    Quadrupole Moments (Debye-Ang)
        XX     -39.2216     XY      -3.6352     YY     -54.5446
        XZ       2.1795     YZ       1.8085     ZZ     -31.1171
    Octopole Moments (Debye-Ang^2)
       XXX      50.2627    XXY     -62.8471    XYY      14.2207
       YYY    -241.9193    XXZ      22.9125    XYZ       6.5424
       YYZ      28.9700    XZZ      12.2254    YZZ     -50.2671
       ZZZ      26.5385
    Hexadecapole Moments (Debye-Ang^3)
      XXXX    -378.8985   XXXY      56.6855   XXYY    -199.6051
      XYYY      63.6049   YYYY    -851.5419   XXXZ      14.1725
      XXYZ      50.5581   XYYZ      19.6030   YYYZ     161.8203
      XXZZ    -150.2960   XYZZ       7.4340   YYZZ    -189.2126
      XZZZ      19.6638   YZZZ      62.6733   ZZZZ    -352.3866
 -----------------------------------------------------------------
 Calculating analytic gradient of the SCF energy
 Gradient of CDS energy
            1           2           3           4           5           6
    1   0.0001036   0.0003094  -0.0002843  -0.0000991  -0.0004872  -0.0002090
    2   0.0000021   0.0000019  -0.0000041   0.0000019   0.0000039   0.0000028
    3   0.0001812   0.0003790   0.0005021   0.0001748  -0.0000675   0.0000041
            7           8           9          10          11          12
    1  -0.0001755  -0.0000936   0.0002085   0.0000665   0.0003928   0.0002103
    2  -0.0000213  -0.0000026   0.0001041  -0.0001643  -0.0000055   0.0000261
    3  -0.0003551  -0.0001515  -0.0002301  -0.0001046  -0.0000404  -0.0000532
           13          14
    1  -0.0000457   0.0001035
    2  -0.0001457   0.0002005
    3   0.0002239  -0.0004629
 Gradient of SCF Energy
            1           2           3           4           5           6
    1   0.0015439  -0.0006859   0.0036860  -0.0024691   0.0040445  -0.0050156
    2  -0.0002218   0.0003638   0.0004310  -0.0001049   0.0002419  -0.0001584
    3   0.0033009  -0.0049351  -0.0054879   0.0042556   0.0016788   0.0000936
            7           8           9          10          11          12
    1   0.0033357  -0.0026755  -0.0000005   0.0009563  -0.0046680   0.0010431
    2  -0.0020823  -0.0004511   0.0083438  -0.0042285  -0.0027050  -0.0010539
    3   0.0046667  -0.0069179   0.0065879  -0.0036370  -0.0004262   0.0002221
           13          14
    1   0.0057004  -0.0047953
    2   0.0068699  -0.0052445
    3   0.0122445  -0.0116461
 Max gradient component =       1.224E-02
 RMS gradient           =       4.460E-03
 Computing fast CPCM-SWIG gradient
 Updating gradient with PCM contributions...
 -- total gradient after adding PCM contribution --
---------------------------------------------------
  Atom         X              Y              Z     
---------------------------------------------------
   1      -0.000023      -0.000010      -0.000029
   2       0.000002      -0.000015      -0.000002
   3      -0.000020       0.000011       0.000002
   4      -0.000008      -0.000024      -0.000017
   5      -0.000015      -0.000023      -0.000026
   6       0.000026      -0.000005      -0.000020
   7      -0.000056      -0.000002       0.000071
   8       0.000013       0.000022       0.000004
   9       0.000220       0.000310      -0.000323
  10      -0.000025      -0.000023       0.000057
  11      -0.000030       0.000012       0.000073
  12      -0.000004       0.000029      -0.000013
  13      -0.000118      -0.000285       0.000161
  14       0.000037       0.000003       0.000062
---------------------------------------------------
 Number of fixed atoms: 0
 Gradient time:  CPU 144.24 s  wall 20.49 s
 Geometry Optimization Parameters
   NAtoms,    NIC,     NZ,  NCons,   NDum,   NFix, NCnnct, MaxDiis
       14      95       0       0       0       0       0       0

 Cartesian Hessian Update
 Hessian updated using BFGS update


** GEOMETRY OPTIMIZATION IN DELOCALIZED INTERNAL COORDINATES **
   Searching for a Minimum

   Optimization Cycle:   3

                       Coordinates (Angstroms)
     ATOM                X               Y               Z
      1  H         0.5975319634    1.4148979811    1.9988249058
      2  C         0.0604119187    1.4039562706    1.0593186098
      3  C        -1.3537157370    1.4007260742    1.0748189919
      4  H        -1.8863312087    1.4110418787    2.0144466552
      5  C        -2.0669110176    1.4015684390   -0.1461692744
      6  H        -3.1491349605    1.4159768565   -0.1250290614
      7  C        -1.4171169679    1.3889192960   -1.3367041393
      8  H        -1.9672178118    1.3910220982   -2.2695591574
      9  C         0.0741311350    1.3747865703   -1.4358869965
     10  H         0.3894012858    0.4729967957   -1.9784408961
     11  C         0.7515559147    1.3992968392   -0.1074955830
     12  H         1.8339807757    1.4091060513   -0.1126985317
     13  O         0.5560244217    2.5114575747   -2.1964401838
     14  H         0.2872273889    2.3825968749   -3.1134445393
   Point Group: c1    Number of degrees of freedom:    36


   Energy is   -307.987132143

 Hessian updated using BFGS update

 36 Hessian modes will be used to form the next step
  Hessian Eigenvalues:
     0.009026    0.009821    0.015821    0.017364    0.019847    0.020712
     0.022075    0.023902    0.024392    0.052943    0.067536    0.082560
     0.158965    0.159973    0.159983    0.159997    0.159998    0.161850
     0.169434    0.203461    0.219836    0.221310    0.303720    0.321568
     0.331972    0.347611    0.350228    0.351295    0.351496    0.353680
     0.364230    0.417984    0.423627    0.494046    0.524098    0.595635

 Minimum search - taking simple RFO step
 Searching for Lamda that Minimizes Along All modes
 Value Taken    Lamda =  -0.00000098
 Step Taken.  Stepsize is  0.007054

                             Maximum     Tolerance    Cnvgd?
         Gradient           0.000170      0.000300     YES
         Displacement       0.003957      0.001200      NO
         Energy change     -0.000004      0.000001      NO


 New Cartesian Coordinates Obtained by Inverse Iteration

 Displacement from previous Coordinates is:  0.009068
 ----------------------------------------------------------------
             Standard Nuclear Orientation (Angstroms)
    I     Atom           X                Y                Z
 ----------------------------------------------------------------
    1      H       0.5975412937     1.4150050574     1.9989805386
    2      C       0.0604941438     1.4039421775     1.0593498098
    3      C      -1.3536991388     1.4015264431     1.0747726911
    4      H      -1.8863848923     1.4130135969     2.0143839163
    5      C      -2.0668689809     1.4014878971    -0.1463162618
    6      H      -3.1491565101     1.4159383602    -0.1251550765
    7      C      -1.4169942096     1.3879164563    -1.3369195954
    8      H      -1.9669268719     1.3892305119    -2.2698903988
    9      C       0.0741556603     1.3743426665    -1.4357581522
   10      H       0.3901797928     0.4734727431    -1.9794642818
   11      C       0.7517460851     1.3983753326    -0.1075171303
   12      H       1.8341846057     1.4072254506    -0.1125565761
   13      O       0.5555806387     2.5123782426    -2.1957484200
   14      H       0.2859854838     2.3844946645    -3.1126202631
 ----------------------------------------------------------------
 Nuclear Repulsion Energy =         279.91062451 hartrees
 There are       26 alpha and       25 beta electrons
 Discretize the solute cavity surface with Lebedev spheres
	Using 110 Lebedev grid points for each H atom
	Using 194 Lebedev grid points for other atoms
	Atomic van der Waals radii will be scaled by 1.20
 Remove points where switching function is < 1.0e-08
 Keep 1036 surface tesserae and discard 1092 interior tesserae
 Molecular Surface Area = 125.521 Angst**2
 Applying Cartesian multipole field
    Component          Value
    ---------          -----
     (2,0,0)        1.00000E-11
     (0,2,0)        2.00000E-11
     (0,0,2)       -3.00000E-11
 Nucleus-field energy     =     0.0000000015 hartrees
 Requested basis set is 6-311++G(2df,2p)
 There are 98 shells and 308 basis functions
 A cutoff of  1.0D-12 yielded   4598 shell pairs
 There are     46203 function pairs (     57514 Cartesian)
 Smallest overlap matrix eigenvalue = 1.27E-06
 Guess MOs from SCF MO coefficient file

 -----------------------------------------------------------------------
  General SCF calculation program by
  Eric Jon Sundstrom, Paul Horn, Yuezhi Mao, Dmitri Zuev, Alec White,
  David Stuck, Shaama M.S., Shane Yost, Joonho Lee, David Small,
  Daniel Levine, Susi Lehtola, Hugh Burton, Evgeny Epifanovsky,
  Bang C. Huynh
 -----------------------------------------------------------------------
 Exchange:     0.1500 Hartree-Fock + 1.0000 wB97M-V + LR-HF
 Correlation:  1.0000 wB97M-V
 Using SG-2 standard quadrature grid
 Nonlocal Correlation:  VV10 with C = 0.0100 and b = 6.00 and scale = 1.00000
 Grid used for NLC:  SG-1 standard quadrature
 
 Citation of the SMD model:
 Marenich, A.V.; Cramer, C.J.; Truhlar, D.G.
 J. Phys. Chem. B 2009, 113, 6378-6396.
 iSolventCode=           1
 Solvent: water                                                           
 
 vradii
            1           2           3           4           5           6
    1   1.2000000   1.8500000   1.8500000   1.2000000   1.8500000   1.2000000
            7           8           9          10          11          12
    1   1.8500000   1.2000000   1.8500000   1.2000000   1.8500000   1.2000000
           13          14
    1   1.5200000   1.2000000
 -------------------------------------------------------
 OpenMP BLAS3 based DFT computing Module                
 Release: version 1.0, May 2013, Q-Chem Inc. Pittsburgh 
 -------------------------------------------------------
 A unrestricted SCF calculation will be
 performed using Roothaan-Hall, DIIS, GDM
 SCF converges when RMS gradient is below 1.0e-07
 ---------------------------------------
  Cycle       Energy         DIIS error
 ---------------------------------------
    1    -307.9723380505      2.12e-04  Roothaan Step
 ---------------------------------------
  Cycle       Energy         DIIS error
 ---------------------------------------
    1    -307.9876741317      2.43e-04  
    2    -307.9906708083      1.82e-04  Done DIIS. Switching to GDM
 ---------------------------------------
  Cycle       Energy        RMS Gradient
 ---------------------------------------
    1    -307.9906708083      6.03e-03   Normal BFGS step
    2    -307.9908930244      5.84e-03   Normal BFGS step
    3    -307.9918556581      7.20e-04   Normal BFGS step
    4    -307.9918677709      7.02e-04   Normal BFGS step
    5    -307.9918749426      1.75e-04   Normal BFGS step
    6    -307.9918752086      5.60e-05   Normal BFGS step
    7    -307.9918752565      6.21e-05   Normal BFGS step
    8    -307.9918752700      3.23e-05   Normal BFGS step
    9    -307.9918752736      7.41e-06   Normal BFGS step
   10    -307.9918752741      5.12e-06   Normal BFGS step
   11    -307.9918752743      4.70e-06   Normal BFGS step
   12    -307.9918752744      2.36e-06   Normal BFGS step
   13    -307.9918752744      5.41e-07   Normal BFGS step
   14    -307.9918752744      3.22e-07   Normal BFGS step
   15    -307.9918752744      1.74e-07   Normal BFGS step
   16    -307.9918752744      7.78e-08  Convergence criterion met
 ---------------------------------------
 SCF time:   CPU 885.63s  wall 112.00s 
<S^2> =          0.789004244
(3)  G-ENP(liq) elect-nuc-pol free energy of system     -307.991875274 a.u.
(4)  G-CDS(liq) cavity-dispersion-solvent structure 
     free energy                                                2.9759 kcal/mol
(6)  G-S(liq) free energy of system                     -307.987132869 a.u.
 SCF   energy in the final basis set =     -307.9871328685
 Total energy in the final basis set =     -307.9871328685
 
 --------------------------------------------------------------
 
                    Orbital Energies (a.u.)
 --------------------------------------------------------------
 
 Alpha MOs
 -- Occupied --
-19.3377 -10.3985 -10.3509 -10.3468 -10.3463 -10.3423 -10.3420  -1.1538
 -0.9735  -0.8758  -0.8607  -0.7374  -0.7158  -0.6302  -0.6244  -0.5822
 -0.5641  -0.5248  -0.5185  -0.4901  -0.4649  -0.4524  -0.4246  -0.3965
 -0.3645  -0.2690
 -- Virtual --
  0.0245   0.0366   0.0378   0.0551   0.0567   0.0589   0.0659   0.0828
  0.1007   0.1117   0.1165   0.1304   0.1367   0.1478   0.1566   0.1595
  0.1613   0.1631   0.1644   0.1687   0.1716   0.1774   0.1845   0.1895
  0.1910   0.2095   0.2157   0.2254   0.2261   0.2355   0.2483   0.2631
  0.2781   0.2830   0.2891   0.3006   0.3142   0.3252   0.3356   0.3455
  0.3569   0.3689   0.3810   0.3908   0.4024   0.4102   0.4290   0.4368
  0.4483   0.5150   0.5266   0.5603   0.5774   0.5811   0.5888   0.6009
  0.6043   0.6066   0.6108   0.6153   0.6207   0.6426   0.6591   0.6868
  0.6897   0.7083   0.7115   0.7245   0.7267   0.7326   0.7347   0.7510
  0.7612   0.7624   0.8016   0.8138   0.8254   0.8299   0.8351   0.8358
  0.8541   0.8691   0.8765   0.8927   0.9021   0.9625   0.9899   1.0171
  1.0426   1.0648   1.0804   1.0898   1.1079   1.1156   1.1391   1.1528
  1.1649   1.2144   1.2173   1.2369   1.2469   1.2755   1.2813   1.3028
  1.3243   1.3462   1.3682   1.3794   1.3953   1.3988   1.4076   1.4110
  1.4324   1.4406   1.4543   1.4726   1.4851   1.5035   1.5201   1.5308
  1.5680   1.5731   1.5780   1.5997   1.6763   1.7071   1.7175   1.7744
  1.8044   1.8151   1.8377   1.8495   1.9404   1.9843   2.0468   2.0516
  2.0700   2.0994   2.1215   2.2595   2.3567   2.4294   2.5584   2.5791
  2.5978   2.6310   2.6434   2.6772   2.7664   2.7912   2.7942   2.8057
  2.8196   2.8294   2.8353   2.8379   2.8703   2.8739   2.8879   2.9089
  2.9175   2.9226   2.9416   2.9429   2.9764   2.9954   3.0230   3.0491
  3.0820   3.0874   3.1675   3.1857   3.1885   3.2223   3.2418   3.2447
  3.2547   3.2707   3.2850   3.3149   3.3253   3.3414   3.3516   3.4021
  3.4110   3.4355   3.4630   3.4676   3.4798   3.4916   3.4960   3.5174
  3.5369   3.5566   3.5863   3.6176   3.6268   3.6785   3.7127   3.7328
  3.7424   3.7640   3.7916   3.8183   3.8319   3.8406   3.8596   3.8720
  3.8858   3.9029   3.9131   3.9699   3.9841   3.9952   4.0075   4.0148
  4.0720   4.0811   4.1410   4.1522   4.1543   4.1964   4.2608   4.2662
  4.2751   4.3125   4.3405   4.3540   4.3769   4.3978   4.4483   4.4746
  4.4957   4.5057   4.5163   4.5242   4.6038   4.6232   4.6527   4.6665
  4.6965   4.7435   4.7569   4.8148   4.9534   5.0189   5.0344   5.1319
  5.1465   5.1949   5.2373   5.2820   5.3046   5.3551   5.4074   5.4851
  5.5265   5.5626   5.6243   5.6759   5.6922   5.7596   5.8330   5.8810
  5.9259   5.9890   6.1811   6.4431   6.5529   7.1236   7.3125   7.3307
  7.3839   7.6429   7.7949  24.2130  24.5956  24.7875  24.8529  25.0806
 25.3928  50.5991
 
 Beta MOs
 -- Occupied --
-19.3361 -10.3992 -10.3449 -10.3446 -10.3432 -10.3415 -10.3409  -1.1502
 -0.9666  -0.8707  -0.8507  -0.7278  -0.7108  -0.6269  -0.6181  -0.5755
 -0.5590  -0.5225  -0.5143  -0.4830  -0.4600  -0.4315  -0.4156  -0.3901
 -0.3470
 -- Virtual --
 -0.0221   0.0241   0.0364   0.0376   0.0547   0.0566   0.0591   0.0802
  0.0830   0.1007   0.1104   0.1165   0.1333   0.1390   0.1485   0.1572
  0.1589   0.1609   0.1630   0.1647   0.1700   0.1746   0.1801   0.1836
  0.1894   0.1909   0.2090   0.2241   0.2255   0.2262   0.2365   0.2472
  0.2635   0.2782   0.2826   0.2884   0.3018   0.3185   0.3269   0.3411
  0.3486   0.3595   0.3727   0.3828   0.3923   0.4050   0.4124   0.4308
  0.4382   0.4511   0.5168   0.5296   0.5647   0.5801   0.5857   0.5926
  0.6071   0.6093   0.6120   0.6143   0.6177   0.6237   0.6469   0.6676
  0.6904   0.6941   0.7109   0.7172   0.7293   0.7322   0.7357   0.7391
  0.7544   0.7630   0.7665   0.8069   0.8188   0.8303   0.8330   0.8345
  0.8420   0.8591   0.8725   0.8785   0.8967   0.9055   0.9647   0.9922
  1.0193   1.0441   1.0669   1.0823   1.0910   1.1091   1.1167   1.1421
  1.1590   1.1697   1.2155   1.2190   1.2384   1.2475   1.2769   1.2841
  1.3062   1.3269   1.3495   1.3723   1.3849   1.3994   1.4042   1.4129
  1.4148   1.4380   1.4463   1.4578   1.4775   1.4887   1.5080   1.5244
  1.5346   1.5720   1.5792   1.5814   1.6034   1.6799   1.7133   1.7224
  1.7799   1.8077   1.8244   1.8441   1.8538   1.9438   1.9901   2.0510
  2.0588   2.0747   2.1039   2.1258   2.2624   2.3587   2.4311   2.5698
  2.5861   2.6100   2.6368   2.6535   2.6879   2.7778   2.7977   2.8114
  2.8198   2.8269   2.8404   2.8480   2.8554   2.8780   2.8833   2.8987
  2.9215   2.9313   2.9423   2.9584   2.9609   2.9907   3.0154   3.0399
  3.0725   3.0966   3.1003   3.1770   3.1956   3.1996   3.2327   3.2560
  3.2602   3.2648   3.2753   3.2967   3.3206   3.3318   3.3501   3.3698
  3.4147   3.4220   3.4412   3.4737   3.4837   3.4898   3.4987   3.5004
  3.5334   3.5470   3.5746   3.6183   3.6300   3.6392   3.6893   3.7216
  3.7426   3.7514   3.7708   3.7937   3.8242   3.8434   3.8557   3.8761
  3.8841   3.8920   3.9124   3.9224   3.9830   3.9920   4.0076   4.0181
  4.0244   4.0814   4.0901   4.1504   4.1607   4.1621   4.2004   4.2687
  4.2785   4.2870   4.3188   4.3468   4.3646   4.3919   4.4085   4.4612
  4.4874   4.5078   4.5153   4.5289   4.5410   4.6162   4.6382   4.6688
  4.6769   4.7043   4.7559   4.7675   4.8278   4.9684   5.0336   5.0484
  5.1445   5.1599   5.2089   5.2480   5.2892   5.3096   5.3586   5.4148
  5.4912   5.5323   5.5718   5.6376   5.6862   5.6982   5.7684   5.8452
  5.8973   5.9372   5.9946   6.1932   6.4536   6.5576   7.1262   7.3155
  7.3353   7.3887   7.6464   7.8004  24.2148  24.5974  24.7887  24.8576
 25.0821  25.3954  50.6005
 --------------------------------------------------------------
 
          Ground-State Mulliken Net Atomic Charges

     Atom                 Charge (a.u.)    Spin (a.u.)
  --------------------------------------------------------
      1 H                     0.291383       0.005418
      2 C                    -0.292127      -0.139229
      3 C                    -0.317857       0.508562
      4 H                     0.287495      -0.010772
      5 C                    -0.317552      -0.139658
      6 H                     0.291579       0.005645
      7 C                    -0.028836       0.353139
      8 H                     0.290605      -0.009553
      9 C                    -0.638325       0.017941
     10 H                     0.174343       0.042957
     11 C                     0.060150       0.353031
     12 H                     0.290554      -0.009322
     13 O                    -0.419099       0.018660
     14 H                     0.327687       0.003182
  --------------------------------------------------------
  Sum of atomic charges =     0.000000
  Sum of spin   charges =     1.000000

 -----------------------------------------------------------------
                    Cartesian Multipole Moments
 -----------------------------------------------------------------
    Charge (ESU x 10^10)
                 0.0000
    Dipole Moment (Debye)
         X      -1.2755      Y      -2.0182      Z      -0.7605
       Tot       2.5057
    Quadrupole Moments (Debye-Ang)
        XX     -39.2177     XY      -3.6448     YY     -54.5475
        XZ       2.1849     YZ       1.8135     ZZ     -31.1200
    Octopole Moments (Debye-Ang^2)
       XXX      50.2577    XXY     -62.8428    XYY      14.1949
       YYY    -241.9216    XXZ      22.9130    XYZ       6.5476
       YYZ      28.9713    XZZ      12.2001    YZZ     -50.2485
       ZZZ      26.5654
    Hexadecapole Moments (Debye-Ang^3)
      XXXX    -378.8461   XXXY      56.6727   XXYY    -199.6127
      XYYY      63.5515   YYYY    -851.6215   XXXZ      14.1375
      XXYZ      50.5750   XYYZ      19.6002   YYYZ     161.7560
      XXZZ    -150.2742   XYZZ       7.3810   YYZZ    -189.1118
      XZZZ      19.7104   YZZZ      62.6498   ZZZZ    -352.4426
 -----------------------------------------------------------------
 Calculating analytic gradient of the SCF energy
 Gradient of CDS energy
            1           2           3           4           5           6
    1   0.0001036   0.0003094  -0.0002844  -0.0000991  -0.0004873  -0.0002091
    2   0.0000021   0.0000019  -0.0000034   0.0000021   0.0000039   0.0000028
    3   0.0001813   0.0003790   0.0005022   0.0001749  -0.0000676   0.0000041
            7           8           9          10          11          12
    1  -0.0001754  -0.0000936   0.0002081   0.0000668   0.0003930   0.0002103
    2  -0.0000220  -0.0000027   0.0001042  -0.0001641  -0.0000058   0.0000259
    3  -0.0003550  -0.0001516  -0.0002297  -0.0001050  -0.0000406  -0.0000530
           13          14
    1  -0.0000456   0.0001032
    2  -0.0001460   0.0002011
    3   0.0002237  -0.0004627
 Gradient of SCF Energy
            1           2           3           4           5           6
    1   0.0015640  -0.0006972   0.0036663  -0.0024841   0.0040326  -0.0050652
    2  -0.0002127   0.0003567   0.0004119  -0.0000887   0.0002438  -0.0001544
    3   0.0033530  -0.0049018  -0.0054339   0.0042817   0.0017113   0.0001013
            7           8           9          10          11          12
    1   0.0034042  -0.0026748  -0.0001632   0.0009831  -0.0045965   0.0010583
    2  -0.0020926  -0.0004578   0.0082332  -0.0042460  -0.0027211  -0.0010663
    3   0.0045388  -0.0069469   0.0068368  -0.0036823  -0.0005432   0.0002374
           13          14
    1   0.0057591  -0.0047866
    2   0.0070038  -0.0052097
    3   0.0120508  -0.0116030
 Max gradient component =       1.205E-02
 RMS gradient           =       4.455E-03
 Computing fast CPCM-SWIG gradient
 Updating gradient with PCM contributions...
 -- total gradient after adding PCM contribution --
---------------------------------------------------
  Atom         X              Y              Z     
---------------------------------------------------
   1      -0.000004      -0.000002       0.000019
   2      -0.000008      -0.000027       0.000027
   3      -0.000044       0.000002       0.000063
   4      -0.000019      -0.000013       0.000004
   5      -0.000027      -0.000029       0.000002
   6      -0.000019      -0.000001      -0.000013
   7      -0.000005      -0.000002      -0.000054
   8       0.000015       0.000019      -0.000016
   9       0.000069       0.000180      -0.000087
  10       0.000002      -0.000046       0.000017
  11       0.000046       0.000016      -0.000036
  12       0.000007       0.000018       0.000003
  13      -0.000065      -0.000140      -0.000022
  14       0.000052       0.000027       0.000094
---------------------------------------------------
 Number of fixed atoms: 0
 Gradient time:  CPU 144.31 s  wall 20.53 s
 Geometry Optimization Parameters
   NAtoms,    NIC,     NZ,  NCons,   NDum,   NFix, NCnnct, MaxDiis
       14      95       0       0       0       0       0       0

 Cartesian Hessian Update
 Hessian updated using BFGS update


** GEOMETRY OPTIMIZATION IN DELOCALIZED INTERNAL COORDINATES **
   Searching for a Minimum

   Optimization Cycle:   4

                       Coordinates (Angstroms)
     ATOM                X               Y               Z
      1  H         0.5975412937    1.4150050574    1.9989805386
      2  C         0.0604941438    1.4039421775    1.0593498098
      3  C        -1.3536991388    1.4015264431    1.0747726911
      4  H        -1.8863848923    1.4130135969    2.0143839163
      5  C        -2.0668689809    1.4014878971   -0.1463162618
      6  H        -3.1491565101    1.4159383602   -0.1251550765
      7  C        -1.4169942096    1.3879164563   -1.3369195954
      8  H        -1.9669268719    1.3892305119   -2.2698903988
      9  C         0.0741556603    1.3743426665   -1.4357581522
     10  H         0.3901797928    0.4734727431   -1.9794642818
     11  C         0.7517460851    1.3983753326   -0.1075171303
     12  H         1.8341846057    1.4072254506   -0.1125565761
     13  O         0.5555806387    2.5123782426   -2.1957484200
     14  H         0.2859854838    2.3844946645   -3.1126202631
   Point Group: c1    Number of degrees of freedom:    36


   Energy is   -307.987132869

 Hessian updated using BFGS update

 36 Hessian modes will be used to form the next step
  Hessian Eigenvalues:
     0.004666    0.009253    0.015857    0.017359    0.019860    0.020710
     0.022077    0.023902    0.024498    0.050776    0.069063    0.082588
     0.157140    0.159975    0.159993    0.159998    0.160505    0.161946
     0.170847    0.204887    0.220538    0.221784    0.299323    0.321349
     0.332257    0.350039    0.351244    0.351315    0.352304    0.355652
     0.364835    0.419097    0.428147    0.494194    0.521763    0.626886

 Minimum search - taking simple RFO step
 Searching for Lamda that Minimizes Along All modes
 Value Taken    Lamda =  -0.00000091
 Step Taken.  Stepsize is  0.012748

                             Maximum     Tolerance    Cnvgd?
         Gradient           0.000093      0.000300     YES
         Displacement       0.007061      0.001200      NO
         Energy change     -0.000001      0.000001     YES


                       Distance Matrix (Angstroms)
             H (  1)   C (  2)   C (  3)   H (  4)   C (  5)   H (  6)
   C (  2)  1.082334
   C (  3)  2.159093  1.414279
   H (  4)  2.483975  2.168527  1.080164
   C (  5)  3.420755  2.445263  1.414097  2.168256
   H (  6)  4.306936  3.421265  2.159560  2.484397  1.082591
   C (  7)  3.897091  2.815197  2.412561  3.384109  1.356487  2.114130
   H (  8)  4.980002  3.898011  3.400437  4.285097  2.125960  2.449137
   C (  9)  3.474625  2.495321  2.888299  3.968463  2.499477  3.479821
   H ( 10)  4.093593  3.195130  3.637411  4.692154  3.202926  4.105314
   C ( 11)  2.112200  1.356259  2.414688  3.385619  2.818884  3.900982
   H ( 12)  2.447026  2.125877  3.401821  4.285621  3.901204  4.983365
   O ( 13)  4.336097  3.474105  3.946600  4.989691  3.508774  4.383448
   H ( 14)  5.212048  4.291581  4.603157  5.652357  3.911673  4.654380
             C (  7)   H (  8)   C (  9)   H ( 10)   C ( 11)   H ( 12)
   H (  8)  1.082988
   C (  9)  1.494484  2.204998
   H ( 10)  2.124841  2.545371  1.098660
   C ( 11)  2.492985  3.473777  1.491285  2.119047
   H ( 12)  3.474133  4.370682  2.202191  2.538186  1.082486
   O ( 13)  2.427561  2.762246  1.450683  2.057006  2.374909  2.682514
   H ( 14)  2.654510  2.603144  1.969047  2.224164  3.196875  3.514592
             O ( 13)
   H ( 14)  0.964204
 
 Final energy is   -307.987132868530     


 ******************************
 **  OPTIMIZATION CONVERGED  **
 ******************************

                       Coordinates (Angstroms)
     ATOM                X               Y               Z
      1  H         0.5975412937    1.4150050574    1.9989805386
      2  C         0.0604941438    1.4039421775    1.0593498098
      3  C        -1.3536991388    1.4015264431    1.0747726911
      4  H        -1.8863848923    1.4130135969    2.0143839163
      5  C        -2.0668689809    1.4014878971   -0.1463162618
      6  H        -3.1491565101    1.4159383602   -0.1251550765
      7  C        -1.4169942096    1.3879164563   -1.3369195954
      8  H        -1.9669268719    1.3892305119   -2.2698903988
      9  C         0.0741556603    1.3743426665   -1.4357581522
     10  H         0.3901797928    0.4734727431   -1.9794642818
     11  C         0.7517460851    1.3983753326   -0.1075171303
     12  H         1.8341846057    1.4072254506   -0.1125565761
     13  O         0.5555806387    2.5123782426   -2.1957484200
     14  H         0.2859854838    2.3844946645   -3.1126202631

Z-matrix Print:
$molecule
0 2
C 
H  1 1.098660
O  1 1.450683 2 106.770252
H  3 0.964204 1 107.537552 2 50.080570 0
C  1 1.491285 2 108.862187 3 -115.948851 0
H  5 1.082486 1 116.764990 2 59.500357 0
C  5 1.356259 1 122.328972 2 -120.252494 0
H  7 1.082334 5 119.608109 1 179.596023 0
C  7 1.414279 5 121.266516 1 -0.686641 0
H  9 1.080164 7 120.171525 5 -179.572840 0
C  9 1.414097 7 119.661939 5 -0.388501 0
H  11 1.082591 9 119.163821 7 -179.011545 0
C  11 1.356487 9 121.084152 7 0.780156 0
H  13 1.082988 11 120.853222 9 -179.920333 0
$end

 
 --------------------------------------------------------------
 
                    Orbital Energies (a.u.)
 --------------------------------------------------------------
 
 Alpha MOs
 -- Occupied --
-19.3377 -10.3985 -10.3509 -10.3468 -10.3463 -10.3423 -10.3420  -1.1538
 -0.9735  -0.8758  -0.8607  -0.7374  -0.7158  -0.6302  -0.6244  -0.5822
 -0.5641  -0.5248  -0.5185  -0.4901  -0.4649  -0.4524  -0.4246  -0.3965
 -0.3645  -0.2690
 -- Virtual --
  0.0245   0.0366   0.0378   0.0551   0.0567   0.0589   0.0659   0.0828
  0.1007   0.1117   0.1165   0.1304   0.1367   0.1478   0.1566   0.1595
  0.1613   0.1631   0.1644   0.1687   0.1716   0.1774   0.1845   0.1895
  0.1910   0.2095   0.2157   0.2254   0.2261   0.2355   0.2483   0.2631
  0.2781   0.2830   0.2891   0.3006   0.3142   0.3252   0.3356   0.3455
  0.3569   0.3689   0.3810   0.3908   0.4024   0.4102   0.4290   0.4368
  0.4483   0.5150   0.5266   0.5603   0.5774   0.5811   0.5888   0.6009
  0.6043   0.6066   0.6108   0.6153   0.6207   0.6426   0.6591   0.6868
  0.6897   0.7083   0.7115   0.7245   0.7267   0.7326   0.7347   0.7510
  0.7612   0.7624   0.8016   0.8138   0.8254   0.8299   0.8351   0.8358
  0.8541   0.8691   0.8765   0.8927   0.9021   0.9625   0.9899   1.0171
  1.0426   1.0648   1.0804   1.0898   1.1079   1.1156   1.1391   1.1528
  1.1649   1.2144   1.2173   1.2369   1.2469   1.2755   1.2813   1.3028
  1.3243   1.3462   1.3682   1.3794   1.3953   1.3988   1.4076   1.4110
  1.4324   1.4406   1.4543   1.4726   1.4851   1.5035   1.5201   1.5308
  1.5680   1.5731   1.5780   1.5997   1.6763   1.7071   1.7175   1.7744
  1.8044   1.8151   1.8377   1.8495   1.9404   1.9843   2.0468   2.0516
  2.0700   2.0994   2.1215   2.2595   2.3567   2.4294   2.5584   2.5791
  2.5978   2.6310   2.6434   2.6772   2.7664   2.7912   2.7942   2.8057
  2.8196   2.8294   2.8353   2.8379   2.8703   2.8739   2.8879   2.9089
  2.9175   2.9226   2.9416   2.9429   2.9764   2.9954   3.0230   3.0491
  3.0820   3.0874   3.1675   3.1857   3.1885   3.2223   3.2418   3.2447
  3.2547   3.2707   3.2850   3.3149   3.3253   3.3414   3.3516   3.4021
  3.4110   3.4355   3.4630   3.4676   3.4798   3.4916   3.4960   3.5174
  3.5369   3.5566   3.5863   3.6176   3.6268   3.6785   3.7127   3.7328
  3.7424   3.7640   3.7916   3.8183   3.8319   3.8406   3.8596   3.8720
  3.8858   3.9029   3.9131   3.9699   3.9841   3.9952   4.0075   4.0148
  4.0720   4.0811   4.1410   4.1522   4.1543   4.1964   4.2608   4.2662
  4.2751   4.3125   4.3405   4.3540   4.3769   4.3978   4.4483   4.4746
  4.4957   4.5057   4.5163   4.5242   4.6038   4.6232   4.6527   4.6665
  4.6965   4.7435   4.7569   4.8148   4.9534   5.0189   5.0344   5.1319
  5.1465   5.1949   5.2373   5.2820   5.3046   5.3551   5.4074   5.4851
  5.5265   5.5626   5.6243   5.6759   5.6922   5.7596   5.8330   5.8810
  5.9259   5.9890   6.1811   6.4431   6.5529   7.1236   7.3125   7.3307
  7.3839   7.6429   7.7949  24.2130  24.5956  24.7875  24.8529  25.0806
 25.3928  50.5991
 
 Beta MOs
 -- Occupied --
-19.3361 -10.3992 -10.3449 -10.3446 -10.3432 -10.3415 -10.3409  -1.1502
 -0.9666  -0.8707  -0.8507  -0.7278  -0.7108  -0.6269  -0.6181  -0.5755
 -0.5590  -0.5225  -0.5143  -0.4830  -0.4600  -0.4315  -0.4156  -0.3901
 -0.3470
 -- Virtual --
 -0.0221   0.0241   0.0364   0.0376   0.0547   0.0566   0.0591   0.0802
  0.0830   0.1007   0.1104   0.1165   0.1333   0.1390   0.1485   0.1572
  0.1589   0.1609   0.1630   0.1647   0.1700   0.1746   0.1801   0.1836
  0.1894   0.1909   0.2090   0.2241   0.2255   0.2262   0.2365   0.2472
  0.2635   0.2782   0.2826   0.2884   0.3018   0.3185   0.3269   0.3411
  0.3486   0.3595   0.3727   0.3828   0.3923   0.4050   0.4124   0.4308
  0.4382   0.4511   0.5168   0.5296   0.5647   0.5801   0.5857   0.5926
  0.6071   0.6093   0.6120   0.6143   0.6177   0.6237   0.6469   0.6676
  0.6904   0.6941   0.7109   0.7172   0.7293   0.7322   0.7357   0.7391
  0.7544   0.7630   0.7665   0.8069   0.8188   0.8303   0.8330   0.8345
  0.8420   0.8591   0.8725   0.8785   0.8967   0.9055   0.9647   0.9922
  1.0193   1.0441   1.0669   1.0823   1.0910   1.1091   1.1167   1.1421
  1.1590   1.1697   1.2155   1.2190   1.2384   1.2475   1.2769   1.2841
  1.3062   1.3269   1.3495   1.3723   1.3849   1.3994   1.4042   1.4129
  1.4148   1.4380   1.4463   1.4578   1.4775   1.4887   1.5080   1.5244
  1.5346   1.5720   1.5792   1.5814   1.6034   1.6799   1.7133   1.7224
  1.7799   1.8077   1.8244   1.8441   1.8538   1.9438   1.9901   2.0510
  2.0588   2.0747   2.1039   2.1258   2.2624   2.3587   2.4311   2.5698
  2.5861   2.6100   2.6368   2.6535   2.6879   2.7778   2.7977   2.8114
  2.8198   2.8269   2.8404   2.8480   2.8554   2.8780   2.8833   2.8987
  2.9215   2.9313   2.9423   2.9584   2.9609   2.9907   3.0154   3.0399
  3.0725   3.0966   3.1003   3.1770   3.1956   3.1996   3.2327   3.2560
  3.2602   3.2648   3.2753   3.2967   3.3206   3.3318   3.3501   3.3698
  3.4147   3.4220   3.4412   3.4737   3.4837   3.4898   3.4987   3.5004
  3.5334   3.5470   3.5746   3.6183   3.6300   3.6392   3.6893   3.7216
  3.7426   3.7514   3.7708   3.7937   3.8242   3.8434   3.8557   3.8761
  3.8841   3.8920   3.9124   3.9224   3.9830   3.9920   4.0076   4.0181
  4.0244   4.0814   4.0901   4.1504   4.1607   4.1621   4.2004   4.2687
  4.2785   4.2870   4.3188   4.3468   4.3646   4.3919   4.4085   4.4612
  4.4874   4.5078   4.5153   4.5289   4.5410   4.6162   4.6382   4.6688
  4.6769   4.7043   4.7559   4.7675   4.8278   4.9684   5.0336   5.0484
  5.1445   5.1599   5.2089   5.2480   5.2892   5.3096   5.3586   5.4148
  5.4912   5.5323   5.5718   5.6376   5.6862   5.6982   5.7684   5.8452
  5.8973   5.9372   5.9946   6.1932   6.4536   6.5576   7.1262   7.3155
  7.3353   7.3887   7.6464   7.8004  24.2148  24.5974  24.7887  24.8576
 25.0821  25.3954  50.6005
 --------------------------------------------------------------
 
          Ground-State Mulliken Net Atomic Charges

     Atom                 Charge (a.u.)    Spin (a.u.)
  --------------------------------------------------------
      1 H                     0.291383       0.005418
      2 C                    -0.292127      -0.139229
      3 C                    -0.317857       0.508562
      4 H                     0.287495      -0.010772
      5 C                    -0.317552      -0.139658
      6 H                     0.291579       0.005645
      7 C                    -0.028836       0.353139
      8 H                     0.290605      -0.009553
      9 C                    -0.638325       0.017941
     10 H                     0.174343       0.042957
     11 C                     0.060150       0.353031
     12 H                     0.290554      -0.009322
     13 O                    -0.419099       0.018660
     14 H                     0.327687       0.003182
  --------------------------------------------------------
  Sum of atomic charges =     0.000000
  Sum of spin   charges =     1.000000

 -----------------------------------------------------------------
                    Cartesian Multipole Moments
 -----------------------------------------------------------------
    Charge (ESU x 10^10)
                 0.0000
    Dipole Moment (Debye)
         X      -1.2755      Y      -2.0182      Z      -0.7605
       Tot       2.5057
    Quadrupole Moments (Debye-Ang)
        XX     -39.2177     XY      -3.6448     YY     -54.5475
        XZ       2.1849     YZ       1.8135     ZZ     -31.1200
    Octopole Moments (Debye-Ang^2)
       XXX      50.2577    XXY     -62.8428    XYY      14.1949
       YYY    -241.9216    XXZ      22.9130    XYZ       6.5476
       YYZ      28.9713    XZZ      12.2001    YZZ     -50.2485
       ZZZ      26.5654
    Hexadecapole Moments (Debye-Ang^3)
      XXXX    -378.8461   XXXY      56.6727   XXYY    -199.6127
      XYYY      63.5515   YYYY    -851.6215   XXXZ      14.1375
      XXYZ      50.5750   XYYZ      19.6002   YYYZ     161.7560
      XXZZ    -150.2742   XYZZ       7.3810   YYZZ    -189.1118
      XZZZ      19.7104   YZZZ      62.6498   ZZZZ    -352.4426
 -----------------------------------------------------------------
 Total job time:  543.64s(wall), 4218.68s(cpu) 
 Tue Feb  6 21:55:10 2024

        *************************************************************
        *                                                           *
        *  Thank you very much for using Q-Chem.  Have a nice day.  *
        *                                                           *
        *************************************************************


