
Running Job 1 of 1 Q_in.in
qchem Q_in.in_107298.0 /scratch/ari.fischer/qChem2074260.hpc-mn1/qchem107298/ 0
/usr/local/qchem-5.4.1/exe/qcprog.exe_s Q_in.in_107298.0 /scratch/ari.fischer/qChem2074260.hpc-mn1/qchem107298/
                  Welcome to Q-Chem
     A Quantum Leap Into The Future Of Chemistry


 Q-Chem 5.4, Q-Chem, Inc., Pleasanton, CA (2021)

 License issued to: Nanyang Technological University (site)

 E. Epifanovsky,  A. T. B. Gilbert,  Xintian Feng,  Joonho Lee,  Yuezhi Mao,  
 N. Mardirossian,  P. Pokhilko,  A. White,  M. Wormit,  M. P. Coons,  
 A. L. Dempwolff,  Zhengting Gan,  D. Hait,  P. R. Horn,  L. D. Jacobson,  
 I. Kaliman,  J. Kussmann,  A. W. Lange,  Ka Un Lao,  D. S. Levine,  Jie Liu,  
 S. C. McKenzie,  A. F. Morrison,  K. Nanda,  F. Plasser,  D. R. Rehn,  
 M. L. Vidal,  Zhi-Qiang You,  Ying Zhu,  B. Alam,  B. Albrecht,  
 A. Aldossary,  E. Alguire,  J. H. Andersen,  D. Barton,  K. Begam,  A. Behn,  
 Y. A. Bernard,  E. J. Berquist,  H. Burton,  A. Carreras,  K. Carter-Fenk,  
 R. Chakraborty,  A. D. Chien,  K. D. Closser,  V. Cofer-Shabica,  
 S. Dasgupta,  Jia Deng,  M. de Wergifosse,  M. Diedenhofen,  Hainam Do,  
 S. Ehlert,  Po-Tung Fang,  S. Fatehi,  Qingguo Feng,  T. Friedhoff,  
 J. Gayvert,  Qinghui Ge,  G. Gidofalvi,  M. Goldey,  J. Gomes,  
 C. Gonzalez-Espinoza,  S. Gulania,  A. Gunina,  M. W. D. Hanson-Heine,  
 P. H. P. Harbach,  A. W. Hauser,  M. F. Herbst,  M. Hernandez Vera,  
 M. Hodecker,  Z. C. Holden,  S. Houck,  Xunkun Huang,  Kerwin Hui,  
 B. C. Huynh,  M. Ivanov,  Hyunjun Ji,  Hanjie Jiang,  B. Kaduk,  S. Kaehler,  
 K. Khistyaev,  Jaehoon Kim,  P. Klunzinger,  Z. Koczor-Benda,  
 Joong Hoon Koh,  D. Kosenkov,  L. Koulias,  T. Kowalczyk,  C. M. Krauter,  
 K. Kue,  A. Kunitsa,  T. Kus,  A. Landau,  K. V. Lawler,  D. Lefrancois,  
 S. Lehtola,  Rain Li,  Yi-Pei Li,  Jiashu Liang,  M. Liebenthal,  
 Hung-Hsuan Lin,  You-Sheng Lin,  Fenglai Liu,  Kuan-Yu Liu,  
 M. Loipersberger,  A. Luenser,  A. Manjanath,  P. Manohar,  E. Mansoor,  
 S. F. Manzer,  Shan-Ping Mao,  A. V. Marenich,  T. Markovich,  S. Mason,  
 S. A. Maurer,  P. F. McLaughlin,  M. F. S. J. Menger,  J.-M. Mewes,  
 S. A. Mewes,  P. Morgante,  J. W. Mullinax,  K. J. Oosterbaan,  G. Paran,  
 Alexander C. Paul,  Suranjan K. Paul,  F. Pavosevic,  Zheng Pei,  S. Prager,  
 E. I. Proynov,  E. Ramos,  B. Rana,  A. E. Rask,  A. Rettig,  R. M. Richard,  
 F. Rob,  E. Rossomme,  T. Scheele,  M. Scheurer,  M. Schneider,  
 N. Sergueev,  S. M. Sharada,  W. Skomorowski,  D. W. Small,  C. J. Stein,  
 Yu-Chuan Su,  E. J. Sundstrom,  Zhen Tao,  J. Thirman,  T. Tsuchimochi,  
 N. M. Tubman,  S. P. Veccham,  O. Vydrov,  J. Wenzel,  J. Witte,  A. Yamada,  
 Kun Yao,  S. Yeganeh,  S. R. Yost,  A. Zech,  Igor Ying Zhang,  Xing Zhang,  
 Yu Zhang,  D. Zuev,  A. Aspuru-Guzik,  A. T. Bell,  N. A. Besley,  
 K. B. Bravaya,  B. R. Brooks,  D. Casanova,  Jeng-Da Chai,  S. Coriani,  
 C. J. Cramer,  A. E. DePrince, III,  R. A. DiStasio Jr.,  A. Dreuw,  
 B. D. Dunietz,  T. R. Furlani,  W. A. Goddard III,  S. Grimme,  
 S. Hammes-Schiffer,  T. Head-Gordon,  W. J. Hehre,  Chao-Ping Hsu,  
 T.-C. Jagau,  Yousung Jung,  A. Klamt,  Jing Kong,  D. S. Lambrecht,  
 WanZhen Liang,  N. J. Mayhall,  C. W. McCurdy,  J. B. Neaton,  
 C. Ochsenfeld,  J. A. Parkhill,  R. Peverati,  V. A. Rassolov,  Yihan Shao,  
 L. V. Slipchenko,  T. Stauch,  R. P. Steele,  J. E. Subotnik,  
 A. J. W. Thom,  A. Tkatchenko,  D. G. Truhlar,  T. Van Voorhis,  
 T. A. Wesolowski,  K. B. Whaley,  H. L. Woodcock III,  P. M. Zimmerman,  
 S. Faraji,  P. M. W. Gill,  M. Head-Gordon,  J. M. Herbert,  A. I. Krylov

 Additional authors for Version 5.4.1: 
 S. Kotaru,  Shaozhi Li,  Xiangyuan Li,  F. Matz,  A. Molle,  Haisheng Ren,  
 Yingli Su,  Hung-Yi Tsai,  C. Utku,  Fang Wang

 Contributors to earlier versions of Q-Chem not listed above: 
 R. D. Adamson,  B. Austin,  R. Baer,  J. Baker,  G. J. O. Beran,  
 K. Brandhorst,  S. T. Brown,  E. F. C. Byrd,  A. K. Chakraborty,  
 G. K. L. Chan,  Chun-Min Chang,  Yunqing Chen,  C.-L. Cheng,  
 Siu Hung Chien,  D. M. Chipman,  D. L. Crittenden,  H. Dachsel,  
 R. J. Doerksen,  A. D. Dutoi,  R. G. Edgar,  J. Fosso-Tande,  
 L. Fusti-Molnar,  D. Ghosh,  A. Ghysels,  A. Golubeva-Zadorozhnaya,  
 J. Gonthier,  M. S. Gordon,  S. R. Gwaltney,  G. Hawkins,  J. E. Herr,  
 A. Heyden,  S. Hirata,  E. G. Hohenstein,  G. Kedziora,  F. J. Keil,  
 C. Kelley,  Jihan Kim,  R. A. King,  R. Z. Khaliullin,  P. P. Korambath,  
 W. Kurlancheek,  A. Laurent,  A. M. Lee,  M. S. Lee,  S. V. Levchenko,  
 Ching Yeh Lin,  D. Liotard,  E. Livshits,  R. C. Lochan,  I. Lotan,  
 L. A. Martinez-Martinez,  P. E. Maslen,  N. Nair,  D. P. O'Neill,  
 D. Neuhauser,  E. Neuscamman,  C. M. Oana,  R. Olivares-Amaya,  R. Olson,  
 T. M. Perrine,  B. Peters,  P. A. Pieniazek,  A. Prociuk,  Y. M. Rhee,  
 J. Ritchie,  M. A. Rohrdanz,  E. Rosta,  N. J. Russ,  H. F. Schaefer III,  
 M. W. Schmidt,  N. E. Schultz,  S. Sharma,  N. Shenvi,  C. D. Sherrill,  
 A. C. Simmonett,  A. Sodt,  T. Stein,  D. Stuck,  K. S. Thanthiriwatte,  
 V. Vanovschi,  L. Vogt,  Tao Wang,  A. Warshel,  M. A. Watson,  
 C. F. Williams,  Q. Wu,  X. Xu,  Jun Yang,  W. Zhang,  Yan Zhao

 Please cite Q-Chem as follows:
 Y. Shao et al., Mol. Phys. 113, 184-215 (2015)
 DOI: 10.1080/00268976.2014.952696

 Q-Chem 5.4.1 for Intel X86 EM64T Linux

 Parts of Q-Chem use Armadillo 9.800.1 (Horizon Scraper).
 http://arma.sourceforge.net/

 Q-Chem begins on Tue Apr 23 18:42:14 2024  

 Host: 
0

     Scratch files written to /scratch/ari.fischer/qChem2074260.hpc-mn1/qchem107298//
 Aug1521 |scratch|qcdevops|jenkins|workspace|build_RNUM 8249   
 Processing $rem in /usr/local/qchem-5.4.1/config/preferences:
 Processing $rem in /home/ari.fischer/.qchemrc:
 Symmetry turned off for PCM/SM12/SMD calculation


!!********************************************.
!!******************Warning*******************.
!!Desired Analytical derivatives not available.
!!Finite difference job might take a long time.
!!********************************************.
!!********************************************.


 2-order derivative to be evaluated numerically with 1-order analytical derivatives

 Checking the input file for inconsistencies... 	...done.

--------------------------------------------------------------
User input:
--------------------------------------------------------------
$molecule
0 1
H         0.5576789192    1.2214781769    2.1470982677
C         0.0265668362    1.2931770227    1.2073316332
C        -1.3615499561    1.3505925728    1.1958671042
H        -1.9120584297    1.3231651174    2.1267705198
C        -2.0430240623    1.4429401725   -0.0114702534
H        -3.1241177537    1.4871082885   -0.0203668822
C        -1.3364401429    1.4781713414   -1.2073485011
H        -1.8675530943    1.5498703168   -2.1471146306
C         0.0516759967    1.4207560137   -1.1958839527
H         0.6021851666    1.4481832658   -2.1267869667
C         0.7331504097    1.3284082763    0.0114539585
H         1.8142441109    1.2842402350    0.0203497032
$end

$rem
BASIS = 6-311++G(2df,2p)
GUI = 2
JOB_TYPE = Frequency
METHOD = wB97M-V
SOLVENT_METHOD = SMD
SCF_ALGORITHM = DIIS_GDM
MAX_SCF_CYCLES = 400
SCF_CONVERGENCE = 7
THRESH = 12
$end
--------------------------------------------------------------
 ----------------------------------------------------------------
             Standard Nuclear Orientation (Angstroms)
    I     Atom           X                Y                Z
 ----------------------------------------------------------------
    1      H       0.5576789192     1.2214781769     2.1470982677
    2      C       0.0265668362     1.2931770227     1.2073316332
    3      C      -1.3615499561     1.3505925728     1.1958671042
    4      H      -1.9120584297     1.3231651174     2.1267705198
    5      C      -2.0430240623     1.4429401725    -0.0114702534
    6      H      -3.1241177537     1.4871082885    -0.0203668822
    7      C      -1.3364401429     1.4781713414    -1.2073485011
    8      H      -1.8675530943     1.5498703168    -2.1471146306
    9      C       0.0516759967     1.4207560137    -1.1958839527
   10      H       0.6021851666     1.4481832658    -2.1267869667
   11      C       0.7331504097     1.3284082763     0.0114539585
   12      H       1.8142441109     1.2842402350     0.0203497032
 ----------------------------------------------------------------
 Nuclear Repulsion Energy =         204.22408362 hartrees
 There are       21 alpha and       21 beta electrons
 Requested basis set is 6-311++G(2df,2p)
 There are 84 shells and 264 basis functions

 Total QAlloc Memory Limit 288000 MB
 Mega-Array Size       188 MB
 MEM_STATIC part       192 MB
 
 Citation of the SMD model:
 Marenich, A.V.; Cramer, C.J.; Truhlar, D.G.
 J. Phys. Chem. B 2009, 113, 6378-6396.
 iSolventCode=           1
 Solvent: water                                                           
 
 vradii
            1           2           3           4           5           6
    1   1.2000000   1.8500000   1.8500000   1.2000000   1.8500000   1.2000000
            7           8           9          10          11          12
    1   1.8500000   1.2000000   1.8500000   1.2000000   1.8500000   1.2000000
 Changing PCM_VDW_RADII to SMD_RADIUS
 Discretize the solute cavity surface with Lebedev spheres
	Using 110 Lebedev grid points for each H atom
	Using 194 Lebedev grid points for other atoms
	Atomic van der Waals radii will be scaled by 1.20
 Remove points where switching function is < 1.0e-08
 Keep 878 surface tesserae and discard 946 interior tesserae
 Molecular Surface Area = 111.923 Angst**2

                       Distance Matrix (Angstroms)
             H (  1)   C (  2)   C (  3)   H (  4)   C (  5)   H (  6)
   C (  2)  1.081842
   C (  3)  2.145915  1.389351
   H (  4)  2.471913  2.145818  1.081847
   C (  5)  3.387052  2.406473  1.389460  2.145594
   H (  6)  4.280665  3.386985  2.145811  2.471065  1.082032
   C (  7)  3.860815  2.778973  2.406731  3.386992  1.389470  2.145879
   H (  8)  4.942657  3.860815  3.386927  4.280125  2.145507  2.471022
   C (  9)  3.386928  2.406731  2.778957  3.860804  2.406470  3.387021
   H ( 10)  4.280125  3.386991  3.860804  4.942651  3.386993  4.280637
   C ( 11)  2.145507  1.389469  2.406470  3.386993  2.778631  3.860663
   H ( 12)  2.471023  2.145879  3.387021  4.280637  3.860663  4.942695
             C (  7)   H (  8)   C (  9)   H ( 10)   C ( 11)
   H (  8)  1.081842
   C (  9)  1.389350  2.145915
   H ( 10)  2.145818  2.471914  1.081847
   C ( 11)  2.406473  3.387052  1.389460  2.145594
   H ( 12)  3.386984  4.280665  2.145812  2.471065  1.082032
 
 A cutoff of  1.0D-12 yielded   3459 shell pairs
 There are     34827 function pairs (     43392 Cartesian)
 Smallest overlap matrix eigenvalue = 8.95E-07
 Linear dependence detected in AO basis
 Tighter screening thresholds may be required for diffuse basis sets
 Use S2THRESH > 14 and THRESH = 14 in case of SCF convergence issues
 Number of orthogonalized atomic orbitals = 263
 Maximum deviation from orthogonality = 2.205E-11
 Guess from superposition of atomic densities
 Warning:  Energy on first SCF cycle will be non-variational
 SAD guess density has 42.000000 electrons

 -----------------------------------------------------------------------
  General SCF calculation program by
  Eric Jon Sundstrom, Paul Horn, Yuezhi Mao, Dmitri Zuev, Alec White,
  David Stuck, Shaama M.S., Shane Yost, Joonho Lee, David Small,
  Daniel Levine, Susi Lehtola, Hugh Burton, Evgeny Epifanovsky,
  Bang C. Huynh
 -----------------------------------------------------------------------
 Exchange:     0.1500 Hartree-Fock + 1.0000 wB97M-V + LR-HF
 Correlation:  1.0000 wB97M-V
 Using SG-2 standard quadrature grid
 Nonlocal Correlation:  VV10 with C = 0.0100 and b = 6.00 and scale = 1.00000
 Grid used for NLC:  SG-1 standard quadrature
 using 16 threads for integral computing
 -------------------------------------------------------
 OpenMP Integral computing Module                
 Release: version 1.0, May 2013, Q-Chem Inc. Pittsburgh 
 -------------------------------------------------------
 
 Citation of the SMD model:
 Marenich, A.V.; Cramer, C.J.; Truhlar, D.G.
 J. Phys. Chem. B 2009, 113, 6378-6396.
 iSolventCode=           1
 Solvent: water                                                           
 
 vradii
            1           2           3           4           5           6
    1   1.2000000   1.8500000   1.8500000   1.2000000   1.8500000   1.2000000
            7           8           9          10          11          12
    1   1.8500000   1.2000000   1.8500000   1.2000000   1.8500000   1.2000000
 -------------------------------------------------------
 OpenMP BLAS3 based DFT computing Module                
 Release: version 1.0, May 2013, Q-Chem Inc. Pittsburgh 
 -------------------------------------------------------
 A restricted SCF calculation will be
 performed using DIIS, GDM
 SCF converges when RMS gradient is below 1.0e-07
 ---------------------------------------
  Cycle       Energy         DIIS error
 ---------------------------------------
    1    -234.2040813906      3.21e-02  
    2    -232.1766252360      2.05e-03  Done DIIS. Switching to GDM
 ---------------------------------------
  Cycle       Energy        RMS Gradient
 ---------------------------------------
    1    -232.1766252360      5.50e-02   Normal BFGS step
    2    -232.2051508617      3.47e-02   Normal BFGS step
    3    -232.2177573154      2.24e-03   Normal BFGS step
    4    -232.2178759619      8.47e-04   Normal BFGS step
    5    -232.2178854354      1.38e-04   Normal BFGS step
    6    -232.2178857875      2.86e-05   Normal BFGS step
    7    -232.2178858013      4.43e-06   Normal BFGS step
    8    -232.2178858014      3.76e-06   Normal BFGS step
    9    -232.2178858015      1.53e-07   Normal BFGS step
   10    -232.2178858014      2.51e-08  Convergence criterion met
 ---------------------------------------
 SCF time:   CPU 422.93s  wall 28.00s 
(3)  G-ENP(liq) elect-nuc-pol free energy of system     -232.217885801 a.u.
(4)  G-CDS(liq) cavity-dispersion-solvent structure 
     free energy                                                2.6724 kcal/mol
(6)  G-S(liq) free energy of system                     -232.213627122 a.u.
 SCF   energy in the final basis set =     -232.2136271218
 Total energy in the final basis set =     -232.2136271218
 
 --------------------------------------------------------------
 
                    Orbital Energies (a.u.)
 --------------------------------------------------------------
 
 Alpha MOs
 -- Occupied --
-10.3423 -10.3421 -10.3421 -10.3416 -10.3416 -10.3413  -0.9826  -0.8678
 -0.8678  -0.7151  -0.7150  -0.6331  -0.5605  -0.5513  -0.5202  -0.5201
 -0.4839  -0.4360  -0.4360  -0.3459  -0.3459
 -- Virtual --
  0.0254   0.0375   0.0378   0.0578   0.0579   0.0609   0.0610   0.0864
  0.0904   0.1135   0.1177   0.1179   0.1394   0.1605   0.1607   0.1626
  0.1626   0.1640   0.1746   0.1747   0.1815   0.1852   0.1854   0.1917
  0.1924   0.2242   0.2303   0.2305   0.2506   0.2509   0.2765   0.2850
  0.2873   0.3493   0.3495   0.3588   0.3614   0.3615   0.4267   0.4268
  0.4307   0.4307   0.5027   0.5116   0.5226   0.5978   0.5994   0.6002
  0.6003   0.6093   0.6093   0.6202   0.6202   0.6210   0.6463   0.6832
  0.6832   0.7003   0.7289   0.7337   0.7337   0.7358   0.7360   0.7419
  0.7420   0.7649   0.7649   0.8355   0.8355   0.8358   0.8359   0.8544
  0.8545   0.8919   0.8920   0.8998   0.9003   0.9106   1.0129   1.0510
  1.0511   1.1029   1.1157   1.1157   1.1325   1.1746   1.1747   1.1804
  1.2514   1.2515   1.2719   1.2724   1.3112   1.3725   1.3726   1.3785
  1.3785   1.3853   1.4391   1.4392   1.4622   1.4623   1.4634   1.4635
  1.4832   1.5186   1.5718   1.5778   1.5779   1.6650   1.6713   1.7709
  1.8147   1.8147   1.8176   1.8177   1.9346   2.0763   2.0764   2.0828
  2.0832   2.1567   2.5445   2.5614   2.6099   2.6224   2.6231   2.6652
  2.7900   2.7901   2.8127   2.8128   2.8169   2.8179   2.8427   2.8438
  2.8575   2.8575   2.8855   2.9100   2.9174   2.9175   2.9273   2.9273
  2.9536   2.9536   3.0289   3.0291   3.0434   3.1318   3.1805   3.1808
  3.1878   3.1881   3.1935   3.2334   3.2335   3.2572   3.2577   3.2599
  3.2747   3.3455   3.4040   3.4044   3.4372   3.4374   3.4448   3.4454
  3.4718   3.4846   3.4846   3.4986   3.4990   3.4993   3.5865   3.5981
  3.6444   3.6466   3.6549   3.7964   3.8010   3.8183   3.8184   3.8529
  3.8534   3.8809   3.9331   3.9332   3.9336   3.9340   3.9667   3.9676
  3.9927   4.0552   4.1066   4.1087   4.1453   4.1477   4.1920   4.1932
  4.2878   4.3197   4.3200   4.4209   4.4523   4.4537   4.5200   4.5202
  4.5748   4.5749   4.5750   4.5751   4.5781   4.5782   4.7035   4.7597
  4.7607   4.8143   4.8662   4.8662   5.0728   5.1404   5.1409   5.1918
  5.1920   5.2120   5.2475   5.4934   5.4941   5.8466   5.8480   5.8766
  5.8769   5.9133   6.3456   6.6627  24.1202  24.7652  24.7653  25.0298
 25.0303  25.5337
 --------------------------------------------------------------
 
          Ground-State Mulliken Net Atomic Charges

     Atom                 Charge (a.u.)
  ----------------------------------------
      1 H                     0.268561
      2 C                    -0.267710
      3 C                    -0.267945
      4 H                     0.268557
      5 C                    -0.269679
      6 H                     0.268215
      7 C                    -0.267710
      8 H                     0.268561
      9 C                    -0.267945
     10 H                     0.268557
     11 C                    -0.269679
     12 H                     0.268215
  ----------------------------------------
  Sum of atomic charges =     0.000000

 -----------------------------------------------------------------
                    Cartesian Multipole Moments
 -----------------------------------------------------------------
    Charge (ESU x 10^10)
                 0.0000
    Dipole Moment (Debye)
         X      -0.0000      Y      -0.0000      Z      -0.0000
       Tot       0.0000
    Quadrupole Moments (Debye-Ang)
        XX     -31.1633     XY      -0.3880     YY     -40.7694
        XZ      -0.0197     YZ      -0.5086     ZZ     -31.1724
    Octopole Moments (Debye-Ang^2)
       XXX      61.2299    XXY     -42.6739    XYY      25.6261
       YYY    -169.4794    XXZ       0.0261    XYZ       0.3058
       YYZ      -1.4092    XZZ      20.4160    YZZ     -43.1948
       ZZZ       0.0008
    Hexadecapole Moments (Debye-Ang^3)
      XXXX    -346.7442   XXXY      87.2260   XXYY    -141.4336
      XYYY     114.6518   YYYY    -522.7002   XXXZ       0.1322
      XXYZ       1.0788   XYYZ       1.0990   YYYZ       4.8048
      XXZZ    -102.1411   XYZZ      29.2541   YYZZ    -125.2462
      XZZZ       0.1561   YZZZ       3.7769   ZZZZ    -266.3518
 -----------------------------------------------------------------
 Calculating analytic gradient of the SCF energy
 Gradient of CDS energy
            1           2           3           4           5           6
    1   0.0001019   0.0002560  -0.0002655  -0.0001057  -0.0005214  -0.0002077
    2  -0.0000138  -0.0000349  -0.0000131  -0.0000053   0.0000215   0.0000085
    3   0.0001804   0.0004538   0.0004494   0.0001787  -0.0000043  -0.0000017
            7           8           9          10          11          12
    1  -0.0002560  -0.0001019   0.0002655   0.0001057   0.0005214   0.0002077
    2   0.0000349   0.0000138   0.0000131   0.0000053  -0.0000215  -0.0000085
    3  -0.0004538  -0.0001804  -0.0004494  -0.0001787   0.0000043   0.0000017
 Gradient of SCF Energy
            1           2           3           4           5           6
    1   0.0019245  -0.0026554   0.0027573  -0.0019824   0.0053784  -0.0039150
    2  -0.0002580   0.0003197   0.0000997  -0.0001206  -0.0001876   0.0001197
    3   0.0034030  -0.0047062  -0.0046657   0.0033900   0.0000452  -0.0000219
            7           8           9          10          11          12
    1   0.0026560  -0.0019246  -0.0027578   0.0019824  -0.0053784   0.0039150
    2  -0.0003198   0.0002580  -0.0000997   0.0001206   0.0001876  -0.0001197
    3   0.0047059  -0.0034030   0.0046655  -0.0033900  -0.0000447   0.0000218
 Max gradient component =       5.378E-03
 RMS gradient           =       2.726E-03
 Computing fast CPCM-SWIG gradient
 Updating gradient with PCM contributions...
 -- total gradient after adding PCM contribution --
---------------------------------------------------
  Atom         X              Y              Z     
---------------------------------------------------
   1       0.000005       0.000004      -0.000004
   2       0.000017       0.000001       0.000005
   3      -0.000007      -0.000008       0.000010
   4       0.000011      -0.000016       0.000004
   5      -0.000015      -0.000011       0.000005
   6       0.000001      -0.000021       0.000009
   7      -0.000016      -0.000001      -0.000005
   8      -0.000005      -0.000004       0.000004
   9       0.000006       0.000009      -0.000010
  10      -0.000011       0.000016      -0.000004
  11       0.000015       0.000011      -0.000004
  12      -0.000001       0.000021      -0.000009
---------------------------------------------------
 Number of fixed atoms: 0
 Gradient time:  CPU 109.62 s  wall 8.91 s
 ######################################################
 ######################################################
 # Starting finite difference calculation for IDERIV  #
 Finite diff step size:  1.88973e-03 a.u.
 ----------------------------------------------------------------
             Standard Nuclear Orientation (Angstroms)
    I     Atom           X                Y                Z
 ----------------------------------------------------------------
    1      H       0.5586789192     1.2214781769     2.1470982677
    2      C       0.0265668362     1.2931770227     1.2073316332
    3      C      -1.3615499561     1.3505925728     1.1958671042
    4      H      -1.9120584297     1.3231651174     2.1267705198
    5      C      -2.0430240623     1.4429401725    -0.0114702534
    6      H      -3.1241177537     1.4871082885    -0.0203668822
    7      C      -1.3364401429     1.4781713414    -1.2073485011
    8      H      -1.8675530943     1.5498703168    -2.1471146306
    9      C       0.0516759967     1.4207560137    -1.1958839527
   10      H       0.6021851666     1.4481832658    -2.1267869667
   11      C       0.7331504097     1.3284082763     0.0114539585
   12      H       1.8142441109     1.2842402350     0.0203497032
 ----------------------------------------------------------------
 Nuclear Repulsion Energy =         204.22175530 hartrees
 There are       21 alpha and       21 beta electrons
 Discretize the solute cavity surface with Lebedev spheres
	Using 110 Lebedev grid points for each H atom
	Using 194 Lebedev grid points for other atoms
	Atomic van der Waals radii will be scaled by 1.20
 Remove points where switching function is < 1.0e-08
 Keep 878 surface tesserae and discard 946 interior tesserae
 Molecular Surface Area = 111.926 Angst**2

                       Distance Matrix (Angstroms)
             H (  1)   C (  2)   C (  3)   H (  4)   C (  5)   H (  6)
   C (  2)  1.082333
   C (  3)  2.146809  1.389351
   H (  4)  2.472913  2.145818  1.081847
   C (  5)  3.387820  2.406473  1.389460  2.145594
   H (  6)  4.281525  3.386985  2.145811  2.471065  1.082032
   C (  7)  3.861306  2.778973  2.406731  3.386992  1.389470  2.145879
   H (  8)  4.943148  3.860815  3.386927  4.280125  2.145507  2.471022
   C (  9)  3.387077  2.406731  2.778957  3.860804  2.406470  3.387021
   H ( 10)  4.280115  3.386991  3.860804  4.942651  3.386993  4.280637
   C ( 11)  2.145426  1.389469  2.406470  3.386993  2.778631  3.860663
   H ( 12)  2.470515  2.145879  3.387021  4.280637  3.860663  4.942695
             C (  7)   H (  8)   C (  9)   H ( 10)   C ( 11)
   H (  8)  1.081842
   C (  9)  1.389350  2.145915
   H ( 10)  2.145818  2.471914  1.081847
   C ( 11)  2.406473  3.387052  1.389460  2.145594
   H ( 12)  3.386984  4.280665  2.145812  2.471065  1.082032
 
 Requested basis set is 6-311++G(2df,2p)
 There are 84 shells and 264 basis functions
 A cutoff of  1.0D-12 yielded   3459 shell pairs
 There are     34827 function pairs (     43392 Cartesian)
 Smallest overlap matrix eigenvalue = 8.95E-07
 Linear dependence detected in AO basis
 Tighter screening thresholds may be required for diffuse basis sets
 Use S2THRESH > 14 and THRESH = 14 in case of SCF convergence issues
 Number of orthogonalized atomic orbitals = 263
 Maximum deviation from orthogonality = 1.632E-11
 Guess MOs from SCF MO coefficient file

 -----------------------------------------------------------------------
  General SCF calculation program by
  Eric Jon Sundstrom, Paul Horn, Yuezhi Mao, Dmitri Zuev, Alec White,
  David Stuck, Shaama M.S., Shane Yost, Joonho Lee, David Small,
  Daniel Levine, Susi Lehtola, Hugh Burton, Evgeny Epifanovsky,
  Bang C. Huynh
 -----------------------------------------------------------------------
 Exchange:     0.1500 Hartree-Fock + 1.0000 wB97M-V + LR-HF
 Correlation:  1.0000 wB97M-V
 Using SG-2 standard quadrature grid
 Nonlocal Correlation:  VV10 with C = 0.0100 and b = 6.00 and scale = 1.00000
 Grid used for NLC:  SG-1 standard quadrature
 
 Citation of the SMD model:
 Marenich, A.V.; Cramer, C.J.; Truhlar, D.G.
 J. Phys. Chem. B 2009, 113, 6378-6396.
 iSolventCode=           1
 Solvent: water                                                           
 
 vradii
            1           2           3           4           5           6
    1   1.2000000   1.8500000   1.8500000   1.2000000   1.8500000   1.2000000
            7           8           9          10          11          12
    1   1.8500000   1.2000000   1.8500000   1.2000000   1.8500000   1.2000000
 -------------------------------------------------------
 OpenMP BLAS3 based DFT computing Module                
 Release: version 1.0, May 2013, Q-Chem Inc. Pittsburgh 
 -------------------------------------------------------
 A restricted SCF calculation will be
 performed using Roothaan-Hall, DIIS, GDM
 SCF converges when RMS gradient is below 1.0e-07
 ---------------------------------------
  Cycle       Energy         DIIS error
 ---------------------------------------
    1    -232.2108106800      2.55e-04  Roothaan Step
 ---------------------------------------
  Cycle       Energy         DIIS error
 ---------------------------------------
    1    -232.2166521980      3.01e-04  
    2    -232.2175453162      1.98e-04  Done DIIS. Switching to GDM
 ---------------------------------------
  Cycle       Energy        RMS Gradient
 ---------------------------------------
    1    -232.2175453162      5.11e-03   Normal BFGS step
    2    -232.2177391231      3.30e-03   Normal BFGS step
    3    -232.2178844335      2.88e-04   Normal BFGS step
    4    -232.2178856152      1.14e-04   Normal BFGS step
    5    -232.2178857530      7.59e-06   Normal BFGS step
    6    -232.2178857536      4.55e-06   Normal BFGS step
    7    -232.2178857537      1.19e-06   Normal BFGS step
    8    -232.2178857538      1.84e-07   Normal BFGS step
    9    -232.2178857537      2.81e-08  Convergence criterion met
 ---------------------------------------
 SCF time:   CPU 433.79s  wall 29.00s 
(3)  G-ENP(liq) elect-nuc-pol free energy of system     -232.217885754 a.u.
(4)  G-CDS(liq) cavity-dispersion-solvent structure 
     free energy                                                2.6725 kcal/mol
(6)  G-S(liq) free energy of system                     -232.213626881 a.u.
 SCF   energy in the final basis set =     -232.2136268810
 Total energy in the final basis set =     -232.2136268810
 
 --------------------------------------------------------------
 
                    Orbital Energies (a.u.)
 --------------------------------------------------------------
 
 Alpha MOs
 -- Occupied --
-10.3423 -10.3421 -10.3421 -10.3416 -10.3416 -10.3413  -0.9826  -0.8678
 -0.8678  -0.7151  -0.7150  -0.6331  -0.5605  -0.5513  -0.5202  -0.5201
 -0.4839  -0.4360  -0.4360  -0.3459  -0.3459
 -- Virtual --
  0.0254   0.0375   0.0378   0.0578   0.0579   0.0609   0.0610   0.0864
  0.0904   0.1135   0.1177   0.1179   0.1394   0.1605   0.1607   0.1626
  0.1626   0.1640   0.1746   0.1747   0.1815   0.1852   0.1854   0.1917
  0.1924   0.2242   0.2303   0.2305   0.2506   0.2509   0.2765   0.2849
  0.2873   0.3493   0.3494   0.3588   0.3614   0.3614   0.4267   0.4268
  0.4307   0.4307   0.5027   0.5116   0.5226   0.5978   0.5994   0.6001
  0.6002   0.6093   0.6093   0.6202   0.6202   0.6210   0.6463   0.6832
  0.6832   0.7003   0.7289   0.7337   0.7337   0.7358   0.7360   0.7419
  0.7420   0.7649   0.7649   0.8355   0.8356   0.8358   0.8359   0.8544
  0.8546   0.8918   0.8920   0.8998   0.9003   0.9106   1.0128   1.0510
  1.0511   1.1029   1.1157   1.1158   1.1325   1.1745   1.1747   1.1804
  1.2514   1.2515   1.2718   1.2725   1.3112   1.3724   1.3726   1.3784
  1.3785   1.3852   1.4391   1.4392   1.4622   1.4623   1.4633   1.4635
  1.4832   1.5185   1.5717   1.5778   1.5778   1.6650   1.6712   1.7709
  1.8146   1.8146   1.8175   1.8178   1.9345   2.0761   2.0764   2.0827
  2.0832   2.1567   2.5445   2.5614   2.6099   2.6225   2.6233   2.6652
  2.7899   2.7901   2.8127   2.8128   2.8168   2.8180   2.8427   2.8438
  2.8575   2.8575   2.8855   2.9100   2.9174   2.9175   2.9273   2.9273
  2.9536   2.9536   3.0289   3.0292   3.0434   3.1317   3.1805   3.1808
  3.1877   3.1881   3.1935   3.2334   3.2336   3.2572   3.2578   3.2599
  3.2748   3.3454   3.4040   3.4043   3.4372   3.4374   3.4448   3.4452
  3.4718   3.4846   3.4846   3.4987   3.4991   3.4992   3.5865   3.5981
  3.6443   3.6463   3.6549   3.7964   3.8008   3.8183   3.8184   3.8530
  3.8535   3.8809   3.9331   3.9332   3.9336   3.9339   3.9665   3.9679
  3.9927   4.0552   4.1065   4.1087   4.1450   4.1476   4.1920   4.1930
  4.2878   4.3197   4.3200   4.4208   4.4522   4.4535   4.5200   4.5201
  4.5746   4.5748   4.5749   4.5751   4.5781   4.5782   4.7034   4.7594
  4.7607   4.8143   4.8660   4.8662   5.0727   5.1402   5.1409   5.1917
  5.1918   5.2119   5.2473   5.4931   5.4942   5.8464   5.8479   5.8761
  5.8768   5.9132   6.3452   6.6626  24.1200  24.7650  24.7652  25.0297
 25.0302  25.5335
 --------------------------------------------------------------
 
          Ground-State Mulliken Net Atomic Charges

     Atom                 Charge (a.u.)
  ----------------------------------------
      1 H                     0.268454
      2 C                    -0.267573
      3 C                    -0.268286
      4 H                     0.268565
      5 C                    -0.269734
      6 H                     0.268227
      7 C                    -0.267632
      8 H                     0.268563
      9 C                    -0.268029
     10 H                     0.268555
     11 C                    -0.269349
     12 H                     0.268240
  ----------------------------------------
  Sum of atomic charges =     0.000000

 -----------------------------------------------------------------
                    Cartesian Multipole Moments
 -----------------------------------------------------------------
    Charge (ESU x 10^10)
                -0.0000
    Dipole Moment (Debye)
         X       0.0002      Y       0.0001      Z      -0.0005
       Tot       0.0005
    Quadrupole Moments (Debye-Ang)
        XX     -31.1616     XY      -0.3878     YY     -40.7698
        XZ      -0.0183     YZ      -0.5091     ZZ     -31.1746
    Octopole Moments (Debye-Ang^2)
       XXX      61.2253    XXY     -42.6716    XYY      25.6249
       YYY    -169.4810    XXZ       0.0277    XYZ       0.3075
       YYZ      -1.4112    XZZ      20.4182    YZZ     -43.1974
       ZZZ      -0.0069
    Hexadecapole Moments (Debye-Ang^3)
      XXXX    -346.7384   XXXY      87.2196   XXYY    -141.4310
      XYYY     114.6470   YYYY    -522.7050   XXXZ       0.1289
      XXYZ       1.0807   XYYZ       1.0988   YYYZ       4.7991
      XXZZ    -102.1374   XYZZ      29.2566   YYZZ    -125.2525
      XZZZ       0.1587   YZZZ       3.7677   ZZZZ    -266.3795
 -----------------------------------------------------------------
 Calculating analytic gradient of the SCF energy
 Gradient of CDS energy
            1           2           3           4           5           6
    1   0.0001024   0.0002555  -0.0002654  -0.0001057  -0.0005214  -0.0002077
    2  -0.0000138  -0.0000349  -0.0000131  -0.0000053   0.0000215   0.0000085
    3   0.0001808   0.0004532   0.0004494   0.0001787  -0.0000043  -0.0000017
            7           8           9          10          11          12
    1  -0.0002560  -0.0001019   0.0002655   0.0001057   0.0005214   0.0002077
    2   0.0000349   0.0000138   0.0000131   0.0000053  -0.0000215  -0.0000085
    3  -0.0004538  -0.0001804  -0.0004494  -0.0001787   0.0000043   0.0000017
 Gradient of SCF Energy
            1           2           3           4           5           6
    1   0.0021755  -0.0029017   0.0027382  -0.0019793   0.0053697  -0.0039172
    2  -0.0002788   0.0003385   0.0001036  -0.0001209  -0.0001869   0.0001200
    3   0.0036433  -0.0049302  -0.0047185   0.0033884   0.0000485  -0.0000246
            7           8           9          10          11          12
    1   0.0026541  -0.0019247  -0.0027593   0.0019832  -0.0053566   0.0039182
    2  -0.0003197   0.0002580  -0.0000994   0.0001205   0.0001854  -0.0001201
    3   0.0047069  -0.0034038   0.0046712  -0.0033886  -0.0000134   0.0000209
 Max gradient component =       5.370E-03
 RMS gradient           =       2.759E-03
 Computing fast CPCM-SWIG gradient
 Updating gradient with PCM contributions...
 -- total gradient after adding PCM contribution --
---------------------------------------------------
  Atom         X              Y              Z     
---------------------------------------------------
   1       0.000250      -0.000017       0.000240
   2      -0.000223       0.000020      -0.000221
   3      -0.000025      -0.000005      -0.000043
   4       0.000014      -0.000016       0.000005
   5      -0.000025      -0.000010       0.000007
   6      -0.000000      -0.000020       0.000006
   7      -0.000018      -0.000002      -0.000004
   8      -0.000004      -0.000004       0.000004
   9       0.000005       0.000009      -0.000004
  10      -0.000010       0.000016      -0.000003
  11       0.000037       0.000009       0.000024
  12       0.000001       0.000020      -0.000010
---------------------------------------------------
 Number of fixed atoms: 0
 Gradient time:  CPU 109.41 s  wall 8.94 s
 ----------------------------------------------------------------
             Standard Nuclear Orientation (Angstroms)
    I     Atom           X                Y                Z
 ----------------------------------------------------------------
    1      H       0.5566789192     1.2214781769     2.1470982677
    2      C       0.0265668362     1.2931770227     1.2073316332
    3      C      -1.3615499561     1.3505925728     1.1958671042
    4      H      -1.9120584297     1.3231651174     2.1267705198
    5      C      -2.0430240623     1.4429401725    -0.0114702534
    6      H      -3.1241177537     1.4871082885    -0.0203668822
    7      C      -1.3364401429     1.4781713414    -1.2073485011
    8      H      -1.8675530943     1.5498703168    -2.1471146306
    9      C       0.0516759967     1.4207560137    -1.1958839527
   10      H       0.6021851666     1.4481832658    -2.1267869667
   11      C       0.7331504097     1.3284082763     0.0114539585
   12      H       1.8142441109     1.2842402350     0.0203497032
 ----------------------------------------------------------------
 Nuclear Repulsion Energy =         204.22641140 hartrees
 There are       21 alpha and       21 beta electrons
 Discretize the solute cavity surface with Lebedev spheres
	Using 110 Lebedev grid points for each H atom
	Using 194 Lebedev grid points for other atoms
	Atomic van der Waals radii will be scaled by 1.20
 Remove points where switching function is < 1.0e-08
 Keep 878 surface tesserae and discard 946 interior tesserae
 Molecular Surface Area = 111.921 Angst**2

                       Distance Matrix (Angstroms)
             H (  1)   C (  2)   C (  3)   H (  4)   C (  5)   H (  6)
   C (  2)  1.081351
   C (  3)  2.145021  1.389351
   H (  4)  2.470914  2.145818  1.081847
   C (  5)  3.386284  2.406473  1.389460  2.145594
   H (  6)  4.279805  3.386985  2.145811  2.471065  1.082032
   C (  7)  3.860324  2.778973  2.406731  3.386992  1.389470  2.145879
   H (  8)  4.942166  3.860815  3.386927  4.280125  2.145507  2.471022
   C (  9)  3.386779  2.406731  2.778957  3.860804  2.406470  3.387021
   H ( 10)  4.280136  3.386991  3.860804  4.942651  3.386993  4.280637
   C ( 11)  2.145589  1.389469  2.406470  3.386993  2.778631  3.860663
   H ( 12)  2.471532  2.145879  3.387021  4.280637  3.860663  4.942695
             C (  7)   H (  8)   C (  9)   H ( 10)   C ( 11)
   H (  8)  1.081842
   C (  9)  1.389350  2.145915
   H ( 10)  2.145818  2.471914  1.081847
   C ( 11)  2.406473  3.387052  1.389460  2.145594
   H ( 12)  3.386984  4.280665  2.145812  2.471065  1.082032
 
 Requested basis set is 6-311++G(2df,2p)
 There are 84 shells and 264 basis functions
 A cutoff of  1.0D-12 yielded   3459 shell pairs
 There are     34827 function pairs (     43392 Cartesian)
 Smallest overlap matrix eigenvalue = 8.95E-07
 Linear dependence detected in AO basis
 Tighter screening thresholds may be required for diffuse basis sets
 Use S2THRESH > 14 and THRESH = 14 in case of SCF convergence issues
 Number of orthogonalized atomic orbitals = 263
 Maximum deviation from orthogonality = 2.424E-11
 Guess MOs from SCF MO coefficient file

 -----------------------------------------------------------------------
  General SCF calculation program by
  Eric Jon Sundstrom, Paul Horn, Yuezhi Mao, Dmitri Zuev, Alec White,
  David Stuck, Shaama M.S., Shane Yost, Joonho Lee, David Small,
  Daniel Levine, Susi Lehtola, Hugh Burton, Evgeny Epifanovsky,
  Bang C. Huynh
 -----------------------------------------------------------------------
 Exchange:     0.1500 Hartree-Fock + 1.0000 wB97M-V + LR-HF
 Correlation:  1.0000 wB97M-V
 Using SG-2 standard quadrature grid
 Nonlocal Correlation:  VV10 with C = 0.0100 and b = 6.00 and scale = 1.00000
 Grid used for NLC:  SG-1 standard quadrature
 
 Citation of the SMD model:
 Marenich, A.V.; Cramer, C.J.; Truhlar, D.G.
 J. Phys. Chem. B 2009, 113, 6378-6396.
 iSolventCode=           1
 Solvent: water                                                           
 
 vradii
            1           2           3           4           5           6
    1   1.2000000   1.8500000   1.8500000   1.2000000   1.8500000   1.2000000
            7           8           9          10          11          12
    1   1.8500000   1.2000000   1.8500000   1.2000000   1.8500000   1.2000000
 -------------------------------------------------------
 OpenMP BLAS3 based DFT computing Module                
 Release: version 1.0, May 2013, Q-Chem Inc. Pittsburgh 
 -------------------------------------------------------
 A restricted SCF calculation will be
 performed using Roothaan-Hall, DIIS, GDM
 SCF converges when RMS gradient is below 1.0e-07
 ---------------------------------------
  Cycle       Energy         DIIS error
 ---------------------------------------
    1    -232.2108144444      2.55e-04  Roothaan Step
 ---------------------------------------
  Cycle       Energy         DIIS error
 ---------------------------------------
    1    -232.2166532255      3.01e-04  
    2    -232.2175458427      1.97e-04  Done DIIS. Switching to GDM
 ---------------------------------------
  Cycle       Energy        RMS Gradient
 ---------------------------------------
    1    -232.2175458427      5.39e-03   Normal BFGS step
    2    -232.2177392330      3.38e-03   Normal BFGS step
    3    -232.2178840624      2.88e-04   Normal BFGS step
    4    -232.2178852469      1.14e-04   Normal BFGS step
    5    -232.2178853846      8.69e-06   Normal BFGS step
    6    -232.2178853853      7.60e-06   Normal BFGS step
    7    -232.2178853857      6.97e-07   Normal BFGS step
    8    -232.2178853857      1.85e-07   Normal BFGS step
    9    -232.2178853857      6.35e-08  Convergence criterion met
 ---------------------------------------
 SCF time:   CPU 437.26s  wall 29.00s 
(3)  G-ENP(liq) elect-nuc-pol free energy of system     -232.217885386 a.u.
(4)  G-CDS(liq) cavity-dispersion-solvent structure 
     free energy                                                2.6722 kcal/mol
(6)  G-S(liq) free energy of system                     -232.213626898 a.u.
 SCF   energy in the final basis set =     -232.2136268982
 Total energy in the final basis set =     -232.2136268982
 
 --------------------------------------------------------------
 
                    Orbital Energies (a.u.)
 --------------------------------------------------------------
 
 Alpha MOs
 -- Occupied --
-10.3423 -10.3421 -10.3421 -10.3416 -10.3415 -10.3413  -0.9826  -0.8678
 -0.8678  -0.7151  -0.7150  -0.6331  -0.5606  -0.5513  -0.5202  -0.5201
 -0.4839  -0.4360  -0.4360  -0.3459  -0.3459
 -- Virtual --
  0.0254   0.0375   0.0378   0.0578   0.0579   0.0609   0.0610   0.0864
  0.0904   0.1135   0.1177   0.1179   0.1394   0.1605   0.1607   0.1626
  0.1626   0.1640   0.1746   0.1747   0.1815   0.1852   0.1854   0.1917
  0.1924   0.2242   0.2303   0.2305   0.2506   0.2509   0.2765   0.2850
  0.2873   0.3493   0.3495   0.3589   0.3614   0.3615   0.4268   0.4268
  0.4307   0.4307   0.5027   0.5116   0.5226   0.5979   0.5994   0.6002
  0.6003   0.6093   0.6093   0.6202   0.6203   0.6210   0.6463   0.6832
  0.6832   0.7003   0.7289   0.7337   0.7337   0.7358   0.7360   0.7419
  0.7420   0.7649   0.7650   0.8354   0.8355   0.8358   0.8359   0.8545
  0.8545   0.8919   0.8920   0.8998   0.9003   0.9107   1.0129   1.0511
  1.0511   1.1029   1.1157   1.1158   1.1325   1.1746   1.1746   1.1804
  1.2514   1.2515   1.2720   1.2724   1.3112   1.3725   1.3726   1.3785
  1.3785   1.3853   1.4391   1.4392   1.4623   1.4623   1.4635   1.4636
  1.4832   1.5187   1.5719   1.5779   1.5779   1.6650   1.6713   1.7709
  1.8147   1.8147   1.8175   1.8177   1.9346   2.0763   2.0764   2.0829
  2.0831   2.1567   2.5445   2.5613   2.6099   2.6224   2.6230   2.6652
  2.7901   2.7901   2.8127   2.8129   2.8170   2.8179   2.8428   2.8439
  2.8574   2.8576   2.8856   2.9100   2.9174   2.9175   2.9273   2.9274
  2.9536   2.9536   3.0290   3.0291   3.0434   3.1320   3.1805   3.1808
  3.1878   3.1881   3.1935   3.2334   3.2335   3.2572   3.2577   3.2599
  3.2747   3.3456   3.4040   3.4044   3.4371   3.4374   3.4448   3.4456
  3.4719   3.4845   3.4846   3.4986   3.4990   3.4993   3.5865   3.5981
  3.6444   3.6469   3.6548   3.7965   3.8011   3.8183   3.8184   3.8529
  3.8534   3.8810   3.9331   3.9332   3.9336   3.9342   3.9668   3.9674
  3.9927   4.0552   4.1067   4.1088   4.1455   4.1478   4.1921   4.1934
  4.2878   4.3196   4.3201   4.4210   4.4525   4.4538   4.5200   4.5202
  4.5749   4.5751   4.5751   4.5752   4.5781   4.5782   4.7036   4.7599
  4.7606   4.8143   4.8663   4.8665   5.0728   5.1406   5.1410   5.1920
  5.1921   5.2121   5.2477   5.4936   5.4942   5.8467   5.8482   5.8767
  5.8774   5.9135   6.3460   6.6628  24.1204  24.7653  24.7654  25.0298
 25.0304  25.5338
 --------------------------------------------------------------
 
          Ground-State Mulliken Net Atomic Charges

     Atom                 Charge (a.u.)
  ----------------------------------------
      1 H                     0.268669
      2 C                    -0.267846
      3 C                    -0.267603
      4 H                     0.268548
      5 C                    -0.269623
      6 H                     0.268204
      7 C                    -0.267787
      8 H                     0.268560
      9 C                    -0.267860
     10 H                     0.268558
     11 C                    -0.270009
     12 H                     0.268191
  ----------------------------------------
  Sum of atomic charges =     0.000000

 -----------------------------------------------------------------
                    Cartesian Multipole Moments
 -----------------------------------------------------------------
    Charge (ESU x 10^10)
                -0.0000
    Dipole Moment (Debye)
         X      -0.0002      Y      -0.0001      Z       0.0005
       Tot       0.0005
    Quadrupole Moments (Debye-Ang)
        XX     -31.1649     XY      -0.3882     YY     -40.7690
        XZ      -0.0212     YZ      -0.5081     ZZ     -31.1702
    Octopole Moments (Debye-Ang^2)
       XXX      61.2345    XXY     -42.6762    XYY      25.6272
       YYY    -169.4777    XXZ       0.0245    XYZ       0.3040
       YYZ      -1.4072    XZZ      20.4137    YZZ     -43.1922
       ZZZ       0.0085
    Hexadecapole Moments (Debye-Ang^3)
      XXXX    -346.7499   XXXY      87.2325   XXYY    -141.4361
      XYYY     114.6567   YYYY    -522.6954   XXXZ       0.1355
      XXYZ       1.0769   XYYZ       1.0992   YYYZ       4.8106
      XXZZ    -102.1448   XYZZ      29.2516   YYZZ    -125.2398
      XZZZ       0.1536   YZZZ       3.7862   ZZZZ    -266.3242
 -----------------------------------------------------------------
 Calculating analytic gradient of the SCF energy
 Gradient of CDS energy
            1           2           3           4           5           6
    1   0.0001015   0.0002565  -0.0002655  -0.0001057  -0.0005214  -0.0002077
    2  -0.0000137  -0.0000349  -0.0000131  -0.0000053   0.0000215   0.0000085
    3   0.0001799   0.0004543   0.0004494   0.0001787  -0.0000043  -0.0000017
            7           8           9          10          11          12
    1  -0.0002560  -0.0001019   0.0002655   0.0001057   0.0005214   0.0002077
    2   0.0000349   0.0000138   0.0000131   0.0000053  -0.0000215  -0.0000085
    3  -0.0004538  -0.0001804  -0.0004494  -0.0001787   0.0000043   0.0000017
 Gradient of SCF Energy
            1           2           3           4           5           6
    1   0.0016735  -0.0024092   0.0027765  -0.0019855   0.0053872  -0.0039129
    2  -0.0002372   0.0003008   0.0000959  -0.0001202  -0.0001883   0.0001195
    3   0.0031620  -0.0044816  -0.0046128   0.0033917   0.0000419  -0.0000192
            7           8           9          10          11          12
    1   0.0026579  -0.0019244  -0.0027563   0.0019816  -0.0054003   0.0039119
    2  -0.0003198   0.0002581  -0.0000999   0.0001207   0.0001898  -0.0001193
    3   0.0047049  -0.0034022   0.0046597  -0.0033914  -0.0000759   0.0000227
 Max gradient component =       5.400E-03
 RMS gradient           =       2.696E-03
 Computing fast CPCM-SWIG gradient
 Updating gradient with PCM contributions...
 -- total gradient after adding PCM contribution --
---------------------------------------------------
  Atom         X              Y              Z     
---------------------------------------------------
   1      -0.000241       0.000025      -0.000249
   2       0.000257      -0.000018       0.000232
   3       0.000012      -0.000012       0.000064
   4       0.000008      -0.000015       0.000003
   5      -0.000005      -0.000012       0.000003
   6       0.000002      -0.000021       0.000011
   7      -0.000015      -0.000001      -0.000007
   8      -0.000005      -0.000004       0.000004
   9       0.000008       0.000008      -0.000017
  10      -0.000012       0.000016      -0.000006
  11      -0.000007       0.000013      -0.000033
  12      -0.000003       0.000021      -0.000007
---------------------------------------------------
 Number of fixed atoms: 0
 Gradient time:  CPU 110.75 s  wall 8.85 s
 ----------------------------------------------------------------
             Standard Nuclear Orientation (Angstroms)
    I     Atom           X                Y                Z
 ----------------------------------------------------------------
    1      H       0.5576789192     1.2224781769     2.1470982677
    2      C       0.0265668362     1.2931770227     1.2073316332
    3      C      -1.3615499561     1.3505925728     1.1958671042
    4      H      -1.9120584297     1.3231651174     2.1267705198
    5      C      -2.0430240623     1.4429401725    -0.0114702534
    6      H      -3.1241177537     1.4871082885    -0.0203668822
    7      C      -1.3364401429     1.4781713414    -1.2073485011
    8      H      -1.8675530943     1.5498703168    -2.1471146306
    9      C       0.0516759967     1.4207560137    -1.1958839527
   10      H       0.6021851666     1.4481832658    -2.1267869667
   11      C       0.7331504097     1.3284082763     0.0114539585
   12      H       1.8142441109     1.2842402350     0.0203497032
 ----------------------------------------------------------------
 Nuclear Repulsion Energy =         204.22439663 hartrees
 There are       21 alpha and       21 beta electrons
 Discretize the solute cavity surface with Lebedev spheres
	Using 110 Lebedev grid points for each H atom
	Using 194 Lebedev grid points for other atoms
	Atomic van der Waals radii will be scaled by 1.20
 Remove points where switching function is < 1.0e-08
 Keep 878 surface tesserae and discard 946 interior tesserae
 Molecular Surface Area = 111.923 Angst**2

                       Distance Matrix (Angstroms)
             H (  1)   C (  2)   C (  3)   H (  4)   C (  5)   H (  6)
   C (  2)  1.081776
   C (  3)  2.145855  1.389351
   H (  4)  2.471872  2.145818  1.081847
   C (  5)  3.386986  2.406473  1.389460  2.145594
   H (  6)  4.280603  3.386985  2.145811  2.471065  1.082032
   C (  7)  3.860749  2.778973  2.406731  3.386992  1.389470  2.145879
   H (  8)  4.942590  3.860815  3.386927  4.280125  2.145507  2.471022
   C (  9)  3.386869  2.406731  2.778957  3.860804  2.406470  3.387021
   H ( 10)  4.280072  3.386991  3.860804  4.942651  3.386993  4.280637
   C ( 11)  2.145458  1.389469  2.406470  3.386993  2.778631  3.860663
   H ( 12)  2.470998  2.145879  3.387021  4.280637  3.860663  4.942695
             C (  7)   H (  8)   C (  9)   H ( 10)   C ( 11)
   H (  8)  1.081842
   C (  9)  1.389350  2.145915
   H ( 10)  2.145818  2.471914  1.081847
   C ( 11)  2.406473  3.387052  1.389460  2.145594
   H ( 12)  3.386984  4.280665  2.145812  2.471065  1.082032
 
 Requested basis set is 6-311++G(2df,2p)
 There are 84 shells and 264 basis functions
 A cutoff of  1.0D-12 yielded   3459 shell pairs
 There are     34827 function pairs (     43392 Cartesian)
 Smallest overlap matrix eigenvalue = 8.95E-07
 Linear dependence detected in AO basis
 Tighter screening thresholds may be required for diffuse basis sets
 Use S2THRESH > 14 and THRESH = 14 in case of SCF convergence issues
 Number of orthogonalized atomic orbitals = 263
 Maximum deviation from orthogonality = 1.443E-11
 Guess MOs from SCF MO coefficient file

 -----------------------------------------------------------------------
  General SCF calculation program by
  Eric Jon Sundstrom, Paul Horn, Yuezhi Mao, Dmitri Zuev, Alec White,
  David Stuck, Shaama M.S., Shane Yost, Joonho Lee, David Small,
  Daniel Levine, Susi Lehtola, Hugh Burton, Evgeny Epifanovsky,
  Bang C. Huynh
 -----------------------------------------------------------------------
 Exchange:     0.1500 Hartree-Fock + 1.0000 wB97M-V + LR-HF
 Correlation:  1.0000 wB97M-V
 Using SG-2 standard quadrature grid
 Nonlocal Correlation:  VV10 with C = 0.0100 and b = 6.00 and scale = 1.00000
 Grid used for NLC:  SG-1 standard quadrature
 
 Citation of the SMD model:
 Marenich, A.V.; Cramer, C.J.; Truhlar, D.G.
 J. Phys. Chem. B 2009, 113, 6378-6396.
 iSolventCode=           1
 Solvent: water                                                           
 
 vradii
            1           2           3           4           5           6
    1   1.2000000   1.8500000   1.8500000   1.2000000   1.8500000   1.2000000
            7           8           9          10          11          12
    1   1.8500000   1.2000000   1.8500000   1.2000000   1.8500000   1.2000000
 -------------------------------------------------------
 OpenMP BLAS3 based DFT computing Module                
 Release: version 1.0, May 2013, Q-Chem Inc. Pittsburgh 
 -------------------------------------------------------
 A restricted SCF calculation will be
 performed using Roothaan-Hall, DIIS, GDM
 SCF converges when RMS gradient is below 1.0e-07
 ---------------------------------------
  Cycle       Energy         DIIS error
 ---------------------------------------
    1    -232.2108112396      2.55e-04  Roothaan Step
 ---------------------------------------
  Cycle       Energy         DIIS error
 ---------------------------------------
    1    -232.2166524239      3.01e-04  
    2    -232.2175454243      1.98e-04  Done DIIS. Switching to GDM
 ---------------------------------------
  Cycle       Energy        RMS Gradient
 ---------------------------------------
    1    -232.2175454243      4.76e-03   Normal BFGS step
    2    -232.2177391715      3.36e-03   Normal BFGS step
    3    -232.2178843972      2.88e-04   Normal BFGS step
    4    -232.2178855788      1.14e-04   Normal BFGS step
    5    -232.2178857165      7.80e-06   Normal BFGS step
    6    -232.2178857172      2.64e-06   Normal BFGS step
    7    -232.2178857172      1.35e-06   Normal BFGS step
    8    -232.2178857172      1.86e-07   Normal BFGS step
    9    -232.2178857172      2.23e-08  Convergence criterion met
 ---------------------------------------
 SCF time:   CPU 434.10s  wall 29.00s 
(3)  G-ENP(liq) elect-nuc-pol free energy of system     -232.217885717 a.u.
(4)  G-CDS(liq) cavity-dispersion-solvent structure 
     free energy                                                2.6723 kcal/mol
(6)  G-S(liq) free energy of system                     -232.213627063 a.u.
 SCF   energy in the final basis set =     -232.2136270633
 Total energy in the final basis set =     -232.2136270633
 
 --------------------------------------------------------------
 
                    Orbital Energies (a.u.)
 --------------------------------------------------------------
 
 Alpha MOs
 -- Occupied --
-10.3423 -10.3421 -10.3421 -10.3416 -10.3416 -10.3413  -0.9826  -0.8678
 -0.8678  -0.7151  -0.7150  -0.6331  -0.5605  -0.5513  -0.5202  -0.5201
 -0.4839  -0.4360  -0.4360  -0.3459  -0.3459
 -- Virtual --
  0.0254   0.0375   0.0378   0.0578   0.0579   0.0609   0.0610   0.0864
  0.0904   0.1135   0.1177   0.1179   0.1394   0.1605   0.1607   0.1626
  0.1626   0.1640   0.1746   0.1747   0.1815   0.1852   0.1854   0.1917
  0.1924   0.2242   0.2303   0.2305   0.2506   0.2509   0.2765   0.2850
  0.2873   0.3493   0.3495   0.3588   0.3614   0.3615   0.4267   0.4268
  0.4307   0.4307   0.5027   0.5116   0.5226   0.5978   0.5994   0.6002
  0.6003   0.6093   0.6093   0.6202   0.6202   0.6210   0.6463   0.6832
  0.6832   0.7003   0.7289   0.7337   0.7337   0.7358   0.7360   0.7419
  0.7420   0.7649   0.7649   0.8355   0.8355   0.8358   0.8359   0.8544
  0.8545   0.8919   0.8920   0.8998   0.9003   0.9106   1.0129   1.0510
  1.0511   1.1029   1.1157   1.1157   1.1325   1.1746   1.1747   1.1804
  1.2514   1.2515   1.2719   1.2724   1.3112   1.3725   1.3726   1.3785
  1.3785   1.3853   1.4391   1.4392   1.4623   1.4623   1.4634   1.4635
  1.4832   1.5186   1.5718   1.5778   1.5779   1.6650   1.6713   1.7709
  1.8147   1.8147   1.8175   1.8177   1.9346   2.0763   2.0764   2.0828
  2.0832   2.1567   2.5445   2.5613   2.6099   2.6224   2.6231   2.6652
  2.7900   2.7901   2.8127   2.8128   2.8169   2.8179   2.8427   2.8438
  2.8575   2.8575   2.8855   2.9100   2.9174   2.9175   2.9273   2.9273
  2.9536   2.9536   3.0289   3.0291   3.0434   3.1318   3.1805   3.1808
  3.1878   3.1881   3.1935   3.2334   3.2335   3.2572   3.2577   3.2599
  3.2747   3.3455   3.4040   3.4044   3.4372   3.4374   3.4448   3.4454
  3.4718   3.4846   3.4846   3.4986   3.4990   3.4993   3.5865   3.5981
  3.6444   3.6466   3.6549   3.7964   3.8010   3.8183   3.8184   3.8529
  3.8534   3.8809   3.9330   3.9332   3.9336   3.9341   3.9667   3.9676
  3.9927   4.0552   4.1066   4.1087   4.1453   4.1477   4.1921   4.1933
  4.2878   4.3197   4.3200   4.4209   4.4524   4.4537   4.5200   4.5202
  4.5748   4.5750   4.5750   4.5752   4.5781   4.5782   4.7035   4.7597
  4.7607   4.8143   4.8662   4.8663   5.0728   5.1404   5.1410   5.1919
  5.1920   5.2120   5.2475   5.4934   5.4942   5.8466   5.8481   5.8766
  5.8770   5.9134   6.3457   6.6627  24.1202  24.7652  24.7653  25.0298
 25.0303  25.5337
 --------------------------------------------------------------
 
          Ground-State Mulliken Net Atomic Charges

     Atom                 Charge (a.u.)
  ----------------------------------------
      1 H                     0.268569
      2 C                    -0.267728
      3 C                    -0.267938
      4 H                     0.268555
      5 C                    -0.269668
      6 H                     0.268214
      7 C                    -0.267723
      8 H                     0.268561
      9 C                    -0.267934
     10 H                     0.268556
     11 C                    -0.269679
     12 H                     0.268214
  ----------------------------------------
  Sum of atomic charges =     0.000000

 -----------------------------------------------------------------
                    Cartesian Multipole Moments
 -----------------------------------------------------------------
    Charge (ESU x 10^10)
                 0.0000
    Dipole Moment (Debye)
         X       0.0001      Y       0.0009      Z       0.0001
       Tot       0.0009
    Quadrupole Moments (Debye-Ang)
        XX     -31.1632     XY      -0.3872     YY     -40.7672
        XZ      -0.0196     YZ      -0.5062     ZZ     -31.1721
    Octopole Moments (Debye-Ang^2)
       XXX      61.2302    XXY     -42.6741    XYY      25.6279
       YYY    -169.4766    XXZ       0.0263    XYZ       0.3076
       YYZ      -1.4033    XZZ      20.4163    YZZ     -43.1896
       ZZZ       0.0020
    Hexadecapole Moments (Debye-Ang^3)
      XXXX    -346.7446   XXXY      87.2257   XXYY    -141.4342
      XYYY     114.6545   YYYY    -522.6998   XXXZ       0.1325
      XXYZ       1.0787   XYYZ       1.1034   YYYZ       4.8126
      XXZZ    -102.1407   XYZZ      29.2582   YYZZ    -125.2335
      XZZZ       0.1571   YZZZ       3.7875   ZZZZ    -266.3482
 -----------------------------------------------------------------
 Calculating analytic gradient of the SCF energy
 Gradient of CDS energy
            1           2           3           4           5           6
    1   0.0001019   0.0002560  -0.0002655  -0.0001057  -0.0005214  -0.0002077
    2  -0.0000136  -0.0000351  -0.0000131  -0.0000053   0.0000215   0.0000085
    3   0.0001803   0.0004538   0.0004494   0.0001787  -0.0000043  -0.0000017
            7           8           9          10          11          12
    1  -0.0002560  -0.0001019   0.0002655   0.0001057   0.0005214   0.0002077
    2   0.0000349   0.0000138   0.0000131   0.0000053  -0.0000215  -0.0000085
    3  -0.0004538  -0.0001804  -0.0004494  -0.0001787   0.0000043   0.0000017
 Gradient of SCF Energy
            1           2           3           4           5           6
    1   0.0019039  -0.0026368   0.0027581  -0.0019828   0.0053792  -0.0039149
    2  -0.0002001   0.0002399   0.0001068  -0.0001284  -0.0001754   0.0001197
    3   0.0033677  -0.0046741  -0.0046636   0.0033896   0.0000455  -0.0000218
            7           8           9          10          11          12
    1   0.0026561  -0.0019246  -0.0027577   0.0019824  -0.0053775   0.0039147
    2  -0.0003185   0.0002560  -0.0000874   0.0001205   0.0001946  -0.0001276
    3   0.0047060  -0.0034030   0.0046660  -0.0033899  -0.0000438   0.0000214
 Max gradient component =       5.379E-03
 RMS gradient           =       2.722E-03
 Computing fast CPCM-SWIG gradient
 Updating gradient with PCM contributions...
 -- total gradient after adding PCM contribution --
---------------------------------------------------
  Atom         X              Y              Z     
---------------------------------------------------
   1      -0.000016       0.000058      -0.000040
   2       0.000036      -0.000076       0.000038
   3      -0.000006      -0.000001       0.000012
   4       0.000011      -0.000024       0.000004
   5      -0.000014       0.000003       0.000006
   6       0.000001      -0.000020       0.000009
   7      -0.000017      -0.000003      -0.000006
   8      -0.000005      -0.000006       0.000004
   9       0.000007       0.000023      -0.000010
  10      -0.000011       0.000016      -0.000004
  11       0.000016       0.000019      -0.000003
  12      -0.000001       0.000012      -0.000009
---------------------------------------------------
 Number of fixed atoms: 0
 Gradient time:  CPU 111.66 s  wall 8.96 s
 ----------------------------------------------------------------
             Standard Nuclear Orientation (Angstroms)
    I     Atom           X                Y                Z
 ----------------------------------------------------------------
    1      H       0.5576789192     1.2204781769     2.1470982677
    2      C       0.0265668362     1.2931770227     1.2073316332
    3      C      -1.3615499561     1.3505925728     1.1958671042
    4      H      -1.9120584297     1.3231651174     2.1267705198
    5      C      -2.0430240623     1.4429401725    -0.0114702534
    6      H      -3.1241177537     1.4871082885    -0.0203668822
    7      C      -1.3364401429     1.4781713414    -1.2073485011
    8      H      -1.8675530943     1.5498703168    -2.1471146306
    9      C       0.0516759967     1.4207560137    -1.1958839527
   10      H       0.6021851666     1.4481832658    -2.1267869667
   11      C       0.7331504097     1.3284082763     0.0114539585
   12      H       1.8142441109     1.2842402350     0.0203497032
 ----------------------------------------------------------------
 Nuclear Repulsion Energy =         204.22376719 hartrees
 There are       21 alpha and       21 beta electrons
 Discretize the solute cavity surface with Lebedev spheres
	Using 110 Lebedev grid points for each H atom
	Using 194 Lebedev grid points for other atoms
	Atomic van der Waals radii will be scaled by 1.20
 Remove points where switching function is < 1.0e-08
 Keep 878 surface tesserae and discard 946 interior tesserae
 Molecular Surface Area = 111.924 Angst**2

                       Distance Matrix (Angstroms)
             H (  1)   C (  2)   C (  3)   H (  4)   C (  5)   H (  6)
   C (  2)  1.081909
   C (  3)  2.145975  1.389351
   H (  4)  2.471955  2.145818  1.081847
   C (  5)  3.387117  2.406473  1.389460  2.145594
   H (  6)  4.280727  3.386985  2.145811  2.471065  1.082032
   C (  7)  3.860881  2.778973  2.406731  3.386992  1.389470  2.145879
   H (  8)  4.942723  3.860815  3.386927  4.280125  2.145507  2.471022
   C (  9)  3.386987  2.406731  2.778957  3.860804  2.406470  3.387021
   H ( 10)  4.280178  3.386991  3.860804  4.942651  3.386993  4.280637
   C ( 11)  2.145557  1.389469  2.406470  3.386993  2.778631  3.860663
   H ( 12)  2.471049  2.145879  3.387021  4.280637  3.860663  4.942695
             C (  7)   H (  8)   C (  9)   H ( 10)   C ( 11)
   H (  8)  1.081842
   C (  9)  1.389350  2.145915
   H ( 10)  2.145818  2.471914  1.081847
   C ( 11)  2.406473  3.387052  1.389460  2.145594
   H ( 12)  3.386984  4.280665  2.145812  2.471065  1.082032
 
 Requested basis set is 6-311++G(2df,2p)
 There are 84 shells and 264 basis functions
 A cutoff of  1.0D-12 yielded   3459 shell pairs
 There are     34827 function pairs (     43392 Cartesian)
 Smallest overlap matrix eigenvalue = 8.95E-07
 Linear dependence detected in AO basis
 Tighter screening thresholds may be required for diffuse basis sets
 Use S2THRESH > 14 and THRESH = 14 in case of SCF convergence issues
 Number of orthogonalized atomic orbitals = 263
 Maximum deviation from orthogonality = 1.811E-11
 Guess MOs from SCF MO coefficient file

 -----------------------------------------------------------------------
  General SCF calculation program by
  Eric Jon Sundstrom, Paul Horn, Yuezhi Mao, Dmitri Zuev, Alec White,
  David Stuck, Shaama M.S., Shane Yost, Joonho Lee, David Small,
  Daniel Levine, Susi Lehtola, Hugh Burton, Evgeny Epifanovsky,
  Bang C. Huynh
 -----------------------------------------------------------------------
 Exchange:     0.1500 Hartree-Fock + 1.0000 wB97M-V + LR-HF
 Correlation:  1.0000 wB97M-V
 Using SG-2 standard quadrature grid
 Nonlocal Correlation:  VV10 with C = 0.0100 and b = 6.00 and scale = 1.00000
 Grid used for NLC:  SG-1 standard quadrature
 
 Citation of the SMD model:
 Marenich, A.V.; Cramer, C.J.; Truhlar, D.G.
 J. Phys. Chem. B 2009, 113, 6378-6396.
 iSolventCode=           1
 Solvent: water                                                           
 
 vradii
            1           2           3           4           5           6
    1   1.2000000   1.8500000   1.8500000   1.2000000   1.8500000   1.2000000
            7           8           9          10          11          12
    1   1.8500000   1.2000000   1.8500000   1.2000000   1.8500000   1.2000000
 -------------------------------------------------------
 OpenMP BLAS3 based DFT computing Module                
 Release: version 1.0, May 2013, Q-Chem Inc. Pittsburgh 
 -------------------------------------------------------
 A restricted SCF calculation will be
 performed using Roothaan-Hall, DIIS, GDM
 SCF converges when RMS gradient is below 1.0e-07
 ---------------------------------------
  Cycle       Energy         DIIS error
 ---------------------------------------
    1    -232.2108117285      2.55e-04  Roothaan Step
 ---------------------------------------
  Cycle       Energy         DIIS error
 ---------------------------------------
    1    -232.2166526254      3.01e-04  
    2    -232.2175456018      1.98e-04  Done DIIS. Switching to GDM
 ---------------------------------------
  Cycle       Energy        RMS Gradient
 ---------------------------------------
    1    -232.2175456018      5.02e-03   Normal BFGS step
    2    -232.2177392950      3.35e-03   Normal BFGS step
    3    -232.2178844637      2.88e-04   Normal BFGS step
    4    -232.2178856461      1.14e-04   Normal BFGS step
    5    -232.2178857840      7.94e-06   Normal BFGS step
    6    -232.2178857846      1.89e-06   Normal BFGS step
    7    -232.2178857847      7.30e-07   Normal BFGS step
    8    -232.2178857847      3.09e-07   Normal BFGS step
    9    -232.2178857847      2.10e-08  Convergence criterion met
 ---------------------------------------
 SCF time:   CPU 430.42s  wall 28.00s 
(3)  G-ENP(liq) elect-nuc-pol free energy of system     -232.217885785 a.u.
(4)  G-CDS(liq) cavity-dispersion-solvent structure 
     free energy                                                2.6724 kcal/mol
(6)  G-S(liq) free energy of system                     -232.213627079 a.u.
 SCF   energy in the final basis set =     -232.2136270788
 Total energy in the final basis set =     -232.2136270788
 
 --------------------------------------------------------------
 
                    Orbital Energies (a.u.)
 --------------------------------------------------------------
 
 Alpha MOs
 -- Occupied --
-10.3423 -10.3421 -10.3421 -10.3416 -10.3416 -10.3413  -0.9826  -0.8678
 -0.8678  -0.7151  -0.7150  -0.6331  -0.5605  -0.5513  -0.5202  -0.5201
 -0.4839  -0.4360  -0.4360  -0.3459  -0.3459
 -- Virtual --
  0.0254   0.0375   0.0378   0.0578   0.0579   0.0609   0.0610   0.0864
  0.0904   0.1135   0.1177   0.1179   0.1394   0.1605   0.1607   0.1626
  0.1626   0.1640   0.1746   0.1747   0.1815   0.1852   0.1854   0.1917
  0.1924   0.2242   0.2303   0.2305   0.2506   0.2509   0.2765   0.2850
  0.2873   0.3493   0.3495   0.3588   0.3614   0.3615   0.4267   0.4268
  0.4307   0.4307   0.5027   0.5116   0.5226   0.5978   0.5994   0.6002
  0.6003   0.6093   0.6093   0.6202   0.6202   0.6210   0.6463   0.6832
  0.6832   0.7003   0.7289   0.7337   0.7337   0.7358   0.7360   0.7419
  0.7420   0.7649   0.7649   0.8355   0.8355   0.8358   0.8359   0.8544
  0.8545   0.8919   0.8920   0.8998   0.9003   0.9106   1.0128   1.0510
  1.0511   1.1029   1.1157   1.1157   1.1325   1.1746   1.1746   1.1804
  1.2514   1.2515   1.2719   1.2724   1.3112   1.3725   1.3726   1.3785
  1.3785   1.3853   1.4391   1.4392   1.4622   1.4623   1.4634   1.4635
  1.4832   1.5186   1.5718   1.5778   1.5779   1.6650   1.6713   1.7709
  1.8147   1.8147   1.8176   1.8177   1.9346   2.0763   2.0764   2.0828
  2.0832   2.1567   2.5445   2.5614   2.6099   2.6224   2.6232   2.6652
  2.7900   2.7901   2.8127   2.8128   2.8169   2.8179   2.8427   2.8438
  2.8575   2.8575   2.8855   2.9100   2.9174   2.9175   2.9273   2.9273
  2.9536   2.9536   3.0289   3.0291   3.0434   3.1318   3.1805   3.1808
  3.1878   3.1881   3.1935   3.2334   3.2336   3.2572   3.2577   3.2599
  3.2747   3.3455   3.4040   3.4044   3.4372   3.4374   3.4448   3.4454
  3.4718   3.4846   3.4846   3.4986   3.4990   3.4993   3.5865   3.5981
  3.6444   3.6465   3.6549   3.7964   3.8010   3.8183   3.8184   3.8529
  3.8534   3.8809   3.9331   3.9332   3.9335   3.9340   3.9667   3.9676
  3.9927   4.0552   4.1066   4.1087   4.1452   4.1476   4.1920   4.1932
  4.2878   4.3197   4.3200   4.4209   4.4523   4.4536   4.5200   4.5202
  4.5748   4.5749   4.5750   4.5751   4.5781   4.5782   4.7035   4.7596
  4.7607   4.8143   4.8662   4.8662   5.0728   5.1403   5.1409   5.1918
  5.1919   5.2120   5.2475   5.4933   5.4941   5.8466   5.8480   5.8766
  5.8768   5.9133   6.3456   6.6626  24.1201  24.7652  24.7652  25.0298
 25.0303  25.5336
 --------------------------------------------------------------
 
          Ground-State Mulliken Net Atomic Charges

     Atom                 Charge (a.u.)
  ----------------------------------------
      1 H                     0.268550
      2 C                    -0.267691
      3 C                    -0.267950
      4 H                     0.268559
      5 C                    -0.269689
      6 H                     0.268216
      7 C                    -0.267697
      8 H                     0.268562
      9 C                    -0.267955
     10 H                     0.268557
     11 C                    -0.269677
     12 H                     0.268216
  ----------------------------------------
  Sum of atomic charges =     0.000000

 -----------------------------------------------------------------
                    Cartesian Multipole Moments
 -----------------------------------------------------------------
    Charge (ESU x 10^10)
                -0.0000
    Dipole Moment (Debye)
         X      -0.0001      Y      -0.0009      Z      -0.0001
       Tot       0.0009
    Quadrupole Moments (Debye-Ang)
        XX     -31.1633     XY      -0.3888     YY     -40.7716
        XZ      -0.0198     YZ      -0.5110     ZZ     -31.1727
    Octopole Moments (Debye-Ang^2)
       XXX      61.2296    XXY     -42.6736    XYY      25.6242
       YYY    -169.4821    XXZ       0.0259    XYZ       0.3040
       YYZ      -1.4151    XZZ      20.4156    YZZ     -43.2000
       ZZZ      -0.0004
    Hexadecapole Moments (Debye-Ang^3)
      XXXX    -346.7437   XXXY      87.2263   XXYY    -141.4329
      XYYY     114.6492   YYYY    -522.7005   XXXZ       0.1318
      XXYZ       1.0789   XYYZ       1.0946   YYYZ       4.7970
      XXZZ    -102.1416   XYZZ      29.2501   YYZZ    -125.2588
      XZZZ       0.1552   YZZZ       3.7663   ZZZZ    -266.3555
 -----------------------------------------------------------------
 Calculating analytic gradient of the SCF energy
 Gradient of CDS energy
            1           2           3           4           5           6
    1   0.0001020   0.0002559  -0.0002654  -0.0001057  -0.0005214  -0.0002077
    2  -0.0000140  -0.0000347  -0.0000131  -0.0000053   0.0000215   0.0000085
    3   0.0001804   0.0004537   0.0004494   0.0001787  -0.0000043  -0.0000017
            7           8           9          10          11          12
    1  -0.0002560  -0.0001019   0.0002655   0.0001057   0.0005214   0.0002077
    2   0.0000349   0.0000138   0.0000131   0.0000053  -0.0000215  -0.0000085
    3  -0.0004538  -0.0001804  -0.0004494  -0.0001787   0.0000043   0.0000017
 Gradient of SCF Energy
            1           2           3           4           5           6
    1   0.0019454  -0.0026744   0.0027566  -0.0019819   0.0053776  -0.0039152
    2  -0.0003161   0.0003996   0.0000927  -0.0001128  -0.0001999   0.0001198
    3   0.0034387  -0.0047388  -0.0046678   0.0033905   0.0000450  -0.0000220
            7           8           9          10          11          12
    1   0.0026559  -0.0019246  -0.0027579   0.0019824  -0.0053793   0.0039154
    2  -0.0003210   0.0002601  -0.0001119   0.0001206   0.0001806  -0.0001118
    3   0.0047058  -0.0034030   0.0046649  -0.0033901  -0.0000454   0.0000223
 Max gradient component =       5.379E-03
 RMS gradient           =       2.730E-03
 Computing fast CPCM-SWIG gradient
 Updating gradient with PCM contributions...
 -- total gradient after adding PCM contribution --
---------------------------------------------------
  Atom         X              Y              Z     
---------------------------------------------------
   1       0.000026      -0.000050       0.000032
   2      -0.000002       0.000079      -0.000028
   3      -0.000008      -0.000016       0.000008
   4       0.000012      -0.000008       0.000005
   5      -0.000016      -0.000025       0.000005
   6       0.000001      -0.000021       0.000009
   7      -0.000016       0.000000      -0.000005
   8      -0.000005      -0.000002       0.000004
   9       0.000006      -0.000006      -0.000011
  10      -0.000011       0.000016      -0.000004
  11       0.000014       0.000003      -0.000005
  12      -0.000001       0.000029      -0.000008
---------------------------------------------------
 Number of fixed atoms: 0
 Gradient time:  CPU 110.69 s  wall 9.01 s
 ----------------------------------------------------------------
             Standard Nuclear Orientation (Angstroms)
    I     Atom           X                Y                Z
 ----------------------------------------------------------------
    1      H       0.5576789192     1.2214781769     2.1480982677
    2      C       0.0265668362     1.2931770227     1.2073316332
    3      C      -1.3615499561     1.3505925728     1.1958671042
    4      H      -1.9120584297     1.3231651174     2.1267705198
    5      C      -2.0430240623     1.4429401725    -0.0114702534
    6      H      -3.1241177537     1.4871082885    -0.0203668822
    7      C      -1.3364401429     1.4781713414    -1.2073485011
    8      H      -1.8675530943     1.5498703168    -2.1471146306
    9      C       0.0516759967     1.4207560137    -1.1958839527
   10      H       0.6021851666     1.4481832658    -2.1267869667
   11      C       0.7331504097     1.3284082763     0.0114539585
   12      H       1.8142441109     1.2842402350     0.0203497032
 ----------------------------------------------------------------
 Nuclear Repulsion Energy =         204.21996457 hartrees
 There are       21 alpha and       21 beta electrons
 Discretize the solute cavity surface with Lebedev spheres
	Using 110 Lebedev grid points for each H atom
	Using 194 Lebedev grid points for other atoms
	Atomic van der Waals radii will be scaled by 1.20
 Remove points where switching function is < 1.0e-08
 Keep 878 surface tesserae and discard 946 interior tesserae
 Molecular Surface Area = 111.929 Angst**2

                       Distance Matrix (Angstroms)
             H (  1)   C (  2)   C (  3)   H (  4)   C (  5)   H (  6)
   C (  2)  1.082711
   C (  3)  2.146358  1.389351
   H (  4)  2.471922  2.145818  1.081847
   C (  5)  3.387689  2.406473  1.389460  2.145594
   H (  6)  4.281171  3.386985  2.145811  2.471065  1.082032
   C (  7)  3.861684  2.778973  2.406731  3.386992  1.389470  2.145879
   H (  8)  4.943526  3.860815  3.386927  4.280125  2.145507  2.471022
   C (  9)  3.387915  2.406731  2.778957  3.860804  2.406470  3.387021
   H ( 10)  4.281124  3.386991  3.860804  4.942651  3.386993  4.280637
   C ( 11)  2.146503  1.389469  2.406470  3.386993  2.778631  3.860663
   H ( 12)  2.471884  2.145879  3.387021  4.280637  3.860663  4.942695
             C (  7)   H (  8)   C (  9)   H ( 10)   C ( 11)
   H (  8)  1.081842
   C (  9)  1.389350  2.145915
   H ( 10)  2.145818  2.471914  1.081847
   C ( 11)  2.406473  3.387052  1.389460  2.145594
   H ( 12)  3.386984  4.280665  2.145812  2.471065  1.082032
 
 Requested basis set is 6-311++G(2df,2p)
 There are 84 shells and 264 basis functions
 A cutoff of  1.0D-12 yielded   3459 shell pairs
 There are     34827 function pairs (     43392 Cartesian)
 Smallest overlap matrix eigenvalue = 8.95E-07
 Linear dependence detected in AO basis
 Tighter screening thresholds may be required for diffuse basis sets
 Use S2THRESH > 14 and THRESH = 14 in case of SCF convergence issues
 Number of orthogonalized atomic orbitals = 263
 Maximum deviation from orthogonality = 1.510E-11
 Guess MOs from SCF MO coefficient file

 -----------------------------------------------------------------------
  General SCF calculation program by
  Eric Jon Sundstrom, Paul Horn, Yuezhi Mao, Dmitri Zuev, Alec White,
  David Stuck, Shaama M.S., Shane Yost, Joonho Lee, David Small,
  Daniel Levine, Susi Lehtola, Hugh Burton, Evgeny Epifanovsky,
  Bang C. Huynh
 -----------------------------------------------------------------------
 Exchange:     0.1500 Hartree-Fock + 1.0000 wB97M-V + LR-HF
 Correlation:  1.0000 wB97M-V
 Using SG-2 standard quadrature grid
 Nonlocal Correlation:  VV10 with C = 0.0100 and b = 6.00 and scale = 1.00000
 Grid used for NLC:  SG-1 standard quadrature
 
 Citation of the SMD model:
 Marenich, A.V.; Cramer, C.J.; Truhlar, D.G.
 J. Phys. Chem. B 2009, 113, 6378-6396.
 iSolventCode=           1
 Solvent: water                                                           
 
 vradii
            1           2           3           4           5           6
    1   1.2000000   1.8500000   1.8500000   1.2000000   1.8500000   1.2000000
            7           8           9          10          11          12
    1   1.8500000   1.2000000   1.8500000   1.2000000   1.8500000   1.2000000
 -------------------------------------------------------
 OpenMP BLAS3 based DFT computing Module                
 Release: version 1.0, May 2013, Q-Chem Inc. Pittsburgh 
 -------------------------------------------------------
 A restricted SCF calculation will be
 performed using Roothaan-Hall, DIIS, GDM
 SCF converges when RMS gradient is below 1.0e-07
 ---------------------------------------
  Cycle       Energy         DIIS error
 ---------------------------------------
    1    -232.2108093563      2.55e-04  Roothaan Step
 ---------------------------------------
  Cycle       Energy         DIIS error
 ---------------------------------------
    1    -232.2166517017      3.01e-04  
    2    -232.2175449706      1.98e-04  Done DIIS. Switching to GDM
 ---------------------------------------
  Cycle       Energy        RMS Gradient
 ---------------------------------------
    1    -232.2175449706      5.79e-03   Normal BFGS step
    2    -232.2177388829      3.40e-03   Normal BFGS step
    3    -232.2178843219      2.88e-04   Normal BFGS step
    4    -232.2178855033      1.14e-04   Normal BFGS step
    5    -232.2178856409      7.53e-06   Normal BFGS step
    6    -232.2178856416      6.96e-06   Normal BFGS step
    7    -232.2178856419      6.68e-07   Normal BFGS step
[...]

Order 1, Length 36
    Atom      X          Y          Z
     1   -8.112682404245804e-04  -2.660782249708252e-04   1.249510262787687e-03
     2    2.764304502891220e-02  -1.160236836684680e-03   4.858674267105666e-03
     3    2.452533394946544e-03   5.337175056612810e-04  -4.241145265136894e-03
     4    1.354998522315131e-03  -5.650537809476782e-05   3.964050718508462e-05
     5    1.307868295818414e-05   1.145178560532877e-05  -1.275276786957658e-03
     6   -5.526377865707230e-06  -7.442024256264312e-05   2.154145120803164e-04
     7   -2.320187644408068e-03   7.355533946500832e-04  -4.329125367683697e-03
     8   -1.366588207183728e-03   5.707614825544977e-05   1.904671035550515e-05
     9   -2.791130337216463e-02   1.103078583238119e-03   4.445339593771472e-03
    10    7.815941249277618e-04  -3.419413551373296e-04   1.259554284854926e-03
    11   -2.270286627689411e-03   1.121476089357935e-03  -5.899865067497329e-02
    12    2.439722226139709e-03  -1.662848030433416e-03   5.675677014228264e-02




 # Finishing finite difference calculation for IDERIV #
 ######################################################
 ######################################################
 Requested basis set is 6-311++G(2df,2p)
 There are 84 shells and 264 basis functions
 **********************************************************************
 **                                                                  **
 **                       VIBRATIONAL ANALYSIS                       **
 **                       --------------------                       **
 **                                                                  **
 **        VIBRATIONAL FREQUENCIES (CM**-1) AND NORMAL MODES         **
 **     FORCE CONSTANTS (mDYN/ANGSTROM) AND REDUCED MASSES (AMU)     **
 **                  INFRARED INTENSITIES (KM/MOL)                   **
 **                                                                  **
 **********************************************************************
 

 Mode:                 1                      2                      3
 Frequency:       412.42                 413.87                 614.28
 Force Cnst:      0.2838                 0.2851                 1.3451
 Red. Mass:       2.8320                 2.8245                 6.0502
 IR Active:          YES                    YES                    YES
 IR Intens:        0.001                  0.006                  0.000
 Raman Active:       YES                    YES                    YES
               X      Y      Z        X      Y      Z        X      Y      Z
 H          0.019  0.470  0.025   -0.010 -0.232 -0.012   -0.076 -0.012  0.258
 C          0.009  0.210  0.011   -0.004 -0.104 -0.006    0.206 -0.014  0.099
 C         -0.008 -0.195 -0.010   -0.005 -0.130 -0.007    0.186  0.010 -0.307
 H         -0.018 -0.439 -0.023   -0.012 -0.290 -0.015    0.178  0.011 -0.312
 C         -0.001 -0.015 -0.001    0.010  0.234  0.012   -0.170  0.014 -0.136
 H         -0.001 -0.034 -0.002    0.022  0.527  0.027   -0.173 -0.005  0.198
 C          0.009  0.210  0.011   -0.004 -0.104 -0.006   -0.206  0.014 -0.099
 H          0.019  0.470  0.025   -0.010 -0.232 -0.012    0.076  0.012 -0.258
 C         -0.008 -0.195 -0.010   -0.005 -0.130 -0.007   -0.186 -0.010  0.307
 H         -0.018 -0.439 -0.023   -0.012 -0.290 -0.015   -0.178 -0.011  0.312
 C         -0.001 -0.015 -0.001    0.010  0.234  0.012    0.170 -0.014  0.136
 H         -0.001 -0.034 -0.002    0.022  0.527  0.027    0.173  0.005 -0.198
 TransDip   0.001 -0.001  0.000    0.000  0.003 -0.001    0.000 -0.000  0.000

 Mode:                 4                      5                      6
 Frequency:       614.32                 697.43                 729.46
 Force Cnst:      1.3453                 0.3109                 1.0326
 Red. Mass:       6.0504                 1.0848                 3.2937
 IR Active:          YES                    YES                    YES
 IR Intens:        0.000                230.357                  0.000
 Raman Active:       YES                    YES                    YES
               X      Y      Z        X      Y      Z        X      Y      Z
 H         -0.254  0.021 -0.207    0.017  0.405  0.022    0.015  0.360  0.020
 C         -0.081  0.020 -0.306   -0.001 -0.033 -0.002    0.008  0.186  0.010
 C         -0.127  0.010 -0.086   -0.001 -0.034 -0.002   -0.007 -0.186 -0.011
 H          0.200 -0.014  0.107    0.017  0.406  0.022   -0.014 -0.363 -0.020
 C         -0.316  0.009  0.071   -0.001 -0.035 -0.002    0.007  0.185  0.010
 H         -0.314  0.018 -0.111    0.017  0.407  0.021    0.014  0.365  0.019
 C          0.081 -0.020  0.306   -0.001 -0.033 -0.002   -0.008 -0.186 -0.010
 H          0.254 -0.021  0.208    0.017  0.405  0.022   -0.015 -0.360 -0.020
 C          0.127 -0.010  0.086   -0.001 -0.034 -0.002    0.007  0.186  0.011
 H         -0.200  0.014 -0.107    0.017  0.406  0.022    0.014  0.363  0.020
 C          0.316 -0.009 -0.071   -0.001 -0.035 -0.002   -0.007 -0.185 -0.010
 H          0.314 -0.018  0.111    0.017  0.407  0.021   -0.014 -0.365 -0.019
 TransDip  -0.000  0.000  0.000    0.019  0.485  0.026    0.000 -0.000  0.000

 Mode:                 7                      8                      9
 Frequency:       885.56                 887.90                1016.81
 Force Cnst:      0.5766                 0.5796                 3.9482
 Red. Mass:       1.2478                 1.2477                 6.4814
 IR Active:          YES                    YES                    YES
 IR Intens:        0.000                  0.000                  0.000
 Raman Active:       YES                    YES                    YES
               X      Y      Z        X      Y      Z        X      Y      Z
 H         -0.007 -0.160 -0.009    0.023  0.545  0.029   -0.145 -0.015 -0.250
 C          0.001  0.024  0.001   -0.003 -0.081 -0.004   -0.141  0.025 -0.249
 C         -0.002 -0.058 -0.003   -0.003 -0.062 -0.003   -0.147 -0.010  0.247
 H          0.016  0.391  0.021    0.017  0.414  0.022   -0.149  0.011  0.247
 C         -0.003 -0.083 -0.004    0.001  0.021  0.001    0.289 -0.015  0.002
 H          0.023  0.555  0.029   -0.006 -0.135 -0.007    0.290  0.004  0.001
 C         -0.001 -0.024 -0.001    0.003  0.081  0.004   -0.141  0.025 -0.249
 H          0.007  0.160  0.009   -0.023 -0.545 -0.029   -0.145 -0.015 -0.250
 C          0.002  0.058  0.003    0.003  0.062  0.003   -0.147 -0.010  0.247
 H         -0.016 -0.391 -0.021   -0.017 -0.414 -0.022   -0.149  0.011  0.247
 C          0.003  0.083  0.004   -0.001 -0.021 -0.001    0.289 -0.015  0.002
 H         -0.023 -0.555 -0.029    0.006  0.135  0.007    0.290  0.004  0.001
 TransDip   0.000 -0.000 -0.000    0.000 -0.000  0.000   -0.000 -0.000 -0.000

 Mode:                10                     11                     12
 Frequency:      1021.07                1022.10                1025.53
 Force Cnst:      0.8514                 0.8524                 3.7221
 Red. Mass:       1.3861                 1.3848                 6.0067
 IR Active:          YES                    YES                    YES
 IR Intens:        0.001                  0.004                  0.000
 Raman Active:       YES                    YES                    YES
               X      Y      Z        X      Y      Z        X      Y      Z
 H         -0.004 -0.079 -0.003    0.024  0.563  0.025   -0.147  0.027 -0.262
 C          0.001  0.015  0.001   -0.006 -0.105 -0.009   -0.135  0.017 -0.239
 C          0.004  0.084  0.004    0.001  0.065  0.007    0.140  0.008 -0.237
 H         -0.019 -0.448 -0.025   -0.015 -0.346 -0.014    0.153  0.003 -0.260
 C         -0.004 -0.099 -0.005    0.005  0.040  0.002    0.275 -0.012  0.002
 H          0.021  0.523  0.026   -0.005 -0.211 -0.011    0.302 -0.009  0.002
 C          0.001  0.015  0.001   -0.006 -0.105 -0.009    0.135 -0.017  0.239
 H         -0.004 -0.079 -0.003    0.024  0.563  0.025    0.147 -0.026  0.262
 C          0.004  0.084  0.004    0.001  0.065  0.007   -0.140 -0.007  0.237
 H         -0.019 -0.448 -0.025   -0.015 -0.346 -0.014   -0.153 -0.004  0.260
 C         -0.004 -0.099 -0.005    0.005  0.040  0.002   -0.275  0.012 -0.002
 H          0.021  0.523  0.026   -0.005 -0.211 -0.011   -0.302  0.008 -0.002
 TransDip  -0.001 -0.000 -0.000    0.002  0.001  0.000   -0.000 -0.000 -0.000

 Mode:                13                     14                     15
 Frequency:      1046.75                1063.76                1063.91
 Force Cnst:      0.8363                 1.0896                 1.0937
 Red. Mass:       1.2954                 1.6343                 1.6400
 IR Active:          YES                    YES                    YES
 IR Intens:        0.000                 19.500                 19.457
 Raman Active:       YES                    YES                    YES
               X      Y      Z        X      Y      Z        X      Y      Z
 H          0.018  0.405  0.022   -0.221  0.009 -0.008    0.424 -0.005 -0.290
 C         -0.002 -0.066 -0.003   -0.076  0.007 -0.080    0.045  0.003 -0.071
 C          0.002  0.066  0.004    0.087 -0.001 -0.050    0.015 -0.006  0.094
 H         -0.017 -0.402 -0.021    0.347 -0.020  0.095    0.322 -0.027  0.282
 C         -0.003 -0.065 -0.004   -0.020 -0.003  0.077   -0.112  0.005 -0.014
 H          0.015  0.399  0.020   -0.026 -0.026  0.539   -0.120  0.012 -0.094
 C          0.002  0.066  0.003   -0.076  0.007 -0.080    0.045  0.003 -0.071
 H         -0.018 -0.405 -0.022   -0.221  0.009 -0.008    0.424 -0.005 -0.290
 C         -0.002 -0.066 -0.004    0.087 -0.001 -0.050    0.015 -0.006  0.094
 H          0.017  0.402  0.021    0.347 -0.020  0.095    0.322 -0.027  0.282
 C          0.003  0.065  0.004   -0.020 -0.003  0.077   -0.112  0.005 -0.014
 H         -0.015 -0.399 -0.020   -0.026 -0.026  0.539   -0.120  0.012 -0.094
 TransDip   0.000 -0.000  0.000    0.022 -0.008  0.139    0.139 -0.004 -0.023

 Mode:                16                     17                     18
 Frequency:      1148.97                1182.72                1183.18
 Force Cnst:      0.8735                 0.9198                 0.9210
 Red. Mass:       1.1230                 1.1160                 1.1167
 IR Active:          YES                    YES                    YES
 IR Intens:        0.002                  0.000                  0.000
 Raman Active:       YES                    YES                    YES
               X      Y      Z        X      Y      Z        X      Y      Z
 H          0.354 -0.004 -0.200    0.171 -0.003 -0.091    0.469 -0.006 -0.267
 C          0.037 -0.000 -0.020    0.020 -0.000 -0.005    0.046 -0.000 -0.028
 C         -0.036  0.003 -0.021    0.034 -0.002  0.015   -0.036  0.003 -0.025
 H         -0.350  0.025 -0.206    0.319 -0.022  0.184   -0.377  0.028 -0.226
 C         -0.001 -0.002  0.041    0.002  0.003 -0.056   -0.005  0.001 -0.010
 H         -0.004 -0.020  0.405    0.007  0.029 -0.566   -0.004  0.005 -0.101
 C          0.037 -0.000 -0.020   -0.020  0.000  0.005   -0.046  0.000  0.028
 H          0.354 -0.004 -0.200   -0.171  0.003  0.091   -0.469  0.006  0.267
 C         -0.036  0.003 -0.021   -0.034  0.002 -0.015    0.036 -0.003  0.025
 H         -0.350  0.025 -0.206   -0.319  0.022 -0.184    0.377 -0.028  0.226
 C         -0.001 -0.002  0.041   -0.002 -0.003  0.056    0.005 -0.001  0.010
 H         -0.004 -0.020  0.405   -0.007 -0.029  0.566    0.004 -0.005  0.101
 TransDip   0.000 -0.000  0.002    0.000 -0.000 -0.000   -0.000  0.000 -0.000

 Mode:                19                     20                     21
 Frequency:      1311.69                1374.85                1514.91
 Force Cnst:      5.4764                 1.3896                 2.8584
 Red. Mass:       5.4023                 1.2478                 2.1140
 IR Active:          YES                    YES                    YES
 IR Intens:        0.002                  0.000                 13.591
 Raman Active:       YES                    YES                    YES
               X      Y      Z        X      Y      Z        X      Y      Z
 H         -0.276  0.004  0.156    0.353 -0.004 -0.200   -0.174 -0.005  0.220
 C          0.224 -0.003 -0.127   -0.052  0.001  0.030    0.108 -0.006  0.039
 C         -0.222  0.016 -0.131   -0.052  0.004 -0.030   -0.111  0.003  0.033
 H          0.272 -0.020  0.160    0.348 -0.025  0.205    0.184 -0.020  0.229
 C         -0.003 -0.014  0.258    0.001  0.003 -0.061    0.003  0.008 -0.154
 H          0.003  0.015 -0.315   -0.004 -0.021  0.401   -0.003 -0.028  0.532
 C          0.224 -0.003 -0.127    0.052 -0.001 -0.030    0.108 -0.006  0.039
 H         -0.276  0.004  0.156   -0.353  0.004  0.200   -0.174 -0.005  0.220
 C         -0.222  0.016 -0.131    0.052 -0.004  0.030   -0.111  0.003  0.033
 H          0.272 -0.020  0.160   -0.348  0.025 -0.205    0.184 -0.020  0.229
 C         -0.003 -0.014  0.258   -0.001 -0.003  0.061    0.003  0.008 -0.154
 H          0.003  0.015 -0.315    0.004  0.021 -0.401   -0.003 -0.028  0.532
 TransDip  -0.000 -0.000 -0.001   -0.000  0.000 -0.000    0.001 -0.006  0.118

 Mode:                22                     23                     24
 Frequency:      1515.25                1661.78                1661.93
 Force Cnst:      2.8473                 9.4941                 9.5045
 Red. Mass:       2.1048                 5.8352                 5.8406
 IR Active:          YES                    YES                    YES
 IR Intens:       13.912                  0.000                  0.000
 Raman Active:       YES                    YES                    YES
               X      Y      Z        X      Y      Z        X      Y      Z
 H          0.436 -0.009 -0.180   -0.354  0.007  0.139    0.020  0.010 -0.206
 C         -0.093 -0.002  0.108    0.267 -0.000 -0.205   -0.164  0.011 -0.077
 C         -0.087  0.009 -0.110   -0.142  0.001  0.092    0.277 -0.022  0.202
 H          0.425 -0.027  0.179   -0.015 -0.010  0.193   -0.351  0.023 -0.162
 C          0.098 -0.004  0.004    0.107  0.009 -0.257   -0.112  0.017 -0.237
 H          0.121 -0.005 -0.008    0.117 -0.020  0.290   -0.134 -0.008  0.264
 C         -0.093 -0.002  0.108   -0.267  0.000  0.205    0.164 -0.011  0.077
 H          0.436 -0.009 -0.180    0.354 -0.007 -0.139   -0.020 -0.010  0.206
 C         -0.087  0.009 -0.110    0.142 -0.001 -0.092   -0.277  0.022 -0.202
 H          0.425 -0.027  0.179    0.015  0.010 -0.193    0.350 -0.023  0.162
 C          0.098 -0.004  0.004   -0.107 -0.009  0.257    0.112 -0.017  0.237
 H          0.121 -0.005 -0.008   -0.117  0.020 -0.290    0.134  0.008 -0.264
 TransDip   0.119 -0.005 -0.001   -0.000  0.000  0.000   -0.000  0.000  0.000

 Mode:                25                     26                     27
 Frequency:      3182.25                3189.94                3190.79
 Force Cnst:      6.4733                 6.5254                 6.5287
 Red. Mass:       1.0849                 1.0884                 1.0884
 IR Active:          YES                    YES                    YES
 IR Intens:        0.036                  0.000                  0.000
 Raman Active:       YES                    YES                    YES
               X      Y      Z        X      Y      Z        X      Y      Z
 H         -0.195  0.026 -0.345   -0.118  0.016 -0.205    0.253 -0.034  0.450
 C          0.016 -0.002  0.029    0.012 -0.001  0.017   -0.021  0.003 -0.039
 C          0.017  0.001 -0.029   -0.015 -0.001  0.022   -0.020 -0.001  0.036
 H         -0.204 -0.010  0.345    0.162  0.008 -0.270    0.241  0.012 -0.410
 C         -0.036  0.001 -0.000    0.050 -0.002  0.000   -0.004  0.000 -0.002
 H          0.422 -0.017  0.003   -0.583  0.024 -0.005    0.047 -0.002  0.002
 C          0.016 -0.002  0.029   -0.012  0.001 -0.017    0.021 -0.003  0.039
 H         -0.195  0.026 -0.345    0.118 -0.016  0.205   -0.253  0.034 -0.450
 C          0.017  0.001 -0.029    0.015  0.001 -0.022    0.020  0.001 -0.036
 H         -0.204 -0.010  0.345   -0.162 -0.008  0.270   -0.241 -0.012  0.410
 C         -0.036  0.001 -0.000   -0.050  0.002 -0.000    0.004 -0.000  0.002
 H          0.422 -0.017  0.003    0.583 -0.024  0.005   -0.047  0.002 -0.002
 TransDip  -0.006  0.000 -0.000   -0.000 -0.000  0.000    0.000 -0.000 -0.000

 Mode:                28                     29                     30
 Frequency:      3203.96                3204.89                3214.26
 Force Cnst:      6.6280                 6.6322                 6.6957
 Red. Mass:       1.0959                 1.0959                 1.1000
 IR Active:          YES                    YES                    YES
 IR Intens:       50.782                 50.565                  0.000
 Raman Active:       YES                    YES                    YES
               X      Y      Z        X      Y      Z        X      Y      Z
 H          0.135 -0.019  0.246    0.252 -0.034  0.441    0.204 -0.028  0.361
 C         -0.010  0.002 -0.023   -0.024  0.003 -0.039   -0.019  0.003 -0.033
 C         -0.012 -0.001  0.026    0.024  0.001 -0.037    0.019  0.001 -0.033
 H          0.157  0.008 -0.273   -0.249 -0.012  0.417   -0.210 -0.010  0.355
 C         -0.051  0.002 -0.001   -0.002 -0.000  0.004    0.036 -0.001  0.000
 H          0.563 -0.023  0.005    0.017 -0.000 -0.004   -0.391  0.016 -0.003
 C         -0.010  0.002 -0.023   -0.024  0.003 -0.039    0.019 -0.003  0.033
 H          0.135 -0.019  0.246    0.252 -0.034  0.441   -0.204  0.028 -0.360
 C         -0.012 -0.001  0.026    0.024  0.001 -0.037   -0.019 -0.001  0.033
 H          0.157  0.008 -0.273   -0.249 -0.012  0.417    0.210  0.010 -0.355
 C         -0.051  0.002 -0.001   -0.002 -0.000  0.004   -0.036  0.001 -0.000
 H          0.563 -0.023  0.005    0.017 -0.000 -0.004    0.391 -0.016  0.003
 TransDip  -0.228  0.010  0.005   -0.006  0.013 -0.227   -0.000  0.000 -0.000

 STANDARD THERMODYNAMIC QUANTITIES AT   298.15 K  AND     1.00 ATM

   This Molecule has  0 Imaginary Frequencies
   Zero point vibrational energy:       63.268 kcal/mol

   Atom    1 Element H  Has Mass    1.00783
   Atom    2 Element C  Has Mass   12.00000
   Atom    3 Element C  Has Mass   12.00000
   Atom    4 Element H  Has Mass    1.00783
   Atom    5 Element C  Has Mass   12.00000
   Atom    6 Element H  Has Mass    1.00783
   Atom    7 Element C  Has Mass   12.00000
   Atom    8 Element H  Has Mass    1.00783
   Atom    9 Element C  Has Mass   12.00000
   Atom   10 Element H  Has Mass    1.00783
   Atom   11 Element C  Has Mass   12.00000
   Atom   12 Element H  Has Mass    1.00783
   Molecular Mass:    78.046980 amu
   Principal axes and moments of inertia in amu*Bohr^2:
                             1           2           3
    Eigenvalues --      314.10096   314.15065   628.25161
          X               0.00803     0.99914     0.04072
          Y              -0.05375    -0.04023     0.99774
          Z               0.99852    -0.01020     0.05338
   Rotational Symmetry Number is   1
   The Molecule is an Asymmetric Top
   Translational Enthalpy:        0.889 kcal/mol
   Rotational Enthalpy:           0.889 kcal/mol
   Vibrational Enthalpy:         64.234 kcal/mol
   gas constant (RT):             0.592 kcal/mol
   Translational Entropy:        38.979  cal/mol.K
   Rotational Entropy:           25.630  cal/mol.K
   Vibrational Entropy:           4.344  cal/mol.K

   Total Enthalpy:               66.604 kcal/mol
   Total Entropy:                68.953  cal/mol.K
 Total job time:  2915.12s(wall), 42013.97s(cpu) 
 Tue Apr 23 19:30:49 2024

        *************************************************************
        *                                                           *
        *  Thank you very much for using Q-Chem.  Have a nice day.  *
        *                                                           *
        *************************************************************


