
Running Job 1 of 1 Q_in.in
qchem Q_in.in_8969.0 /scratch/ari.fischer/qChem2192753.hpc-mn1/qchem8969/ 0
/usr/local/qchem-5.4.1/exe/qcprog.exe_s Q_in.in_8969.0 /scratch/ari.fischer/qChem2192753.hpc-mn1/qchem8969/
                  Welcome to Q-Chem
     A Quantum Leap Into The Future Of Chemistry


 Q-Chem 5.4, Q-Chem, Inc., Pleasanton, CA (2021)

 License issued to: Nanyang Technological University (site)

 E. Epifanovsky,  A. T. B. Gilbert,  Xintian Feng,  Joonho Lee,  Yuezhi Mao,  
 N. Mardirossian,  P. Pokhilko,  A. White,  M. Wormit,  M. P. Coons,  
 A. L. Dempwolff,  Zhengting Gan,  D. Hait,  P. R. Horn,  L. D. Jacobson,  
 I. Kaliman,  J. Kussmann,  A. W. Lange,  Ka Un Lao,  D. S. Levine,  Jie Liu,  
 S. C. McKenzie,  A. F. Morrison,  K. Nanda,  F. Plasser,  D. R. Rehn,  
 M. L. Vidal,  Zhi-Qiang You,  Ying Zhu,  B. Alam,  B. Albrecht,  
 A. Aldossary,  E. Alguire,  J. H. Andersen,  D. Barton,  K. Begam,  A. Behn,  
 Y. A. Bernard,  E. J. Berquist,  H. Burton,  A. Carreras,  K. Carter-Fenk,  
 R. Chakraborty,  A. D. Chien,  K. D. Closser,  V. Cofer-Shabica,  
 S. Dasgupta,  Jia Deng,  M. de Wergifosse,  M. Diedenhofen,  Hainam Do,  
 S. Ehlert,  Po-Tung Fang,  S. Fatehi,  Qingguo Feng,  T. Friedhoff,  
 J. Gayvert,  Qinghui Ge,  G. Gidofalvi,  M. Goldey,  J. Gomes,  
 C. Gonzalez-Espinoza,  S. Gulania,  A. Gunina,  M. W. D. Hanson-Heine,  
 P. H. P. Harbach,  A. W. Hauser,  M. F. Herbst,  M. Hernandez Vera,  
 M. Hodecker,  Z. C. Holden,  S. Houck,  Xunkun Huang,  Kerwin Hui,  
 B. C. Huynh,  M. Ivanov,  Hyunjun Ji,  Hanjie Jiang,  B. Kaduk,  S. Kaehler,  
 K. Khistyaev,  Jaehoon Kim,  P. Klunzinger,  Z. Koczor-Benda,  
 Joong Hoon Koh,  D. Kosenkov,  L. Koulias,  T. Kowalczyk,  C. M. Krauter,  
 K. Kue,  A. Kunitsa,  T. Kus,  A. Landau,  K. V. Lawler,  D. Lefrancois,  
 S. Lehtola,  Rain Li,  Yi-Pei Li,  Jiashu Liang,  M. Liebenthal,  
 Hung-Hsuan Lin,  You-Sheng Lin,  Fenglai Liu,  Kuan-Yu Liu,  
 M. Loipersberger,  A. Luenser,  A. Manjanath,  P. Manohar,  E. Mansoor,  
 S. F. Manzer,  Shan-Ping Mao,  A. V. Marenich,  T. Markovich,  S. Mason,  
 S. A. Maurer,  P. F. McLaughlin,  M. F. S. J. Menger,  J.-M. Mewes,  
 S. A. Mewes,  P. Morgante,  J. W. Mullinax,  K. J. Oosterbaan,  G. Paran,  
 Alexander C. Paul,  Suranjan K. Paul,  F. Pavosevic,  Zheng Pei,  S. Prager,  
 E. I. Proynov,  E. Ramos,  B. Rana,  A. E. Rask,  A. Rettig,  R. M. Richard,  
 F. Rob,  E. Rossomme,  T. Scheele,  M. Scheurer,  M. Schneider,  
 N. Sergueev,  S. M. Sharada,  W. Skomorowski,  D. W. Small,  C. J. Stein,  
 Yu-Chuan Su,  E. J. Sundstrom,  Zhen Tao,  J. Thirman,  T. Tsuchimochi,  
 N. M. Tubman,  S. P. Veccham,  O. Vydrov,  J. Wenzel,  J. Witte,  A. Yamada,  
 Kun Yao,  S. Yeganeh,  S. R. Yost,  A. Zech,  Igor Ying Zhang,  Xing Zhang,  
 Yu Zhang,  D. Zuev,  A. Aspuru-Guzik,  A. T. Bell,  N. A. Besley,  
 K. B. Bravaya,  B. R. Brooks,  D. Casanova,  Jeng-Da Chai,  S. Coriani,  
 C. J. Cramer,  A. E. DePrince, III,  R. A. DiStasio Jr.,  A. Dreuw,  
 B. D. Dunietz,  T. R. Furlani,  W. A. Goddard III,  S. Grimme,  
 S. Hammes-Schiffer,  T. Head-Gordon,  W. J. Hehre,  Chao-Ping Hsu,  
 T.-C. Jagau,  Yousung Jung,  A. Klamt,  Jing Kong,  D. S. Lambrecht,  
 WanZhen Liang,  N. J. Mayhall,  C. W. McCurdy,  J. B. Neaton,  
 C. Ochsenfeld,  J. A. Parkhill,  R. Peverati,  V. A. Rassolov,  Yihan Shao,  
 L. V. Slipchenko,  T. Stauch,  R. P. Steele,  J. E. Subotnik,  
 A. J. W. Thom,  A. Tkatchenko,  D. G. Truhlar,  T. Van Voorhis,  
 T. A. Wesolowski,  K. B. Whaley,  H. L. Woodcock III,  P. M. Zimmerman,  
 S. Faraji,  P. M. W. Gill,  M. Head-Gordon,  J. M. Herbert,  A. I. Krylov

 Additional authors for Version 5.4.1: 
 S. Kotaru,  Shaozhi Li,  Xiangyuan Li,  F. Matz,  A. Molle,  Haisheng Ren,  
 Yingli Su,  Hung-Yi Tsai,  C. Utku,  Fang Wang

 Contributors to earlier versions of Q-Chem not listed above: 
 R. D. Adamson,  B. Austin,  R. Baer,  J. Baker,  G. J. O. Beran,  
 K. Brandhorst,  S. T. Brown,  E. F. C. Byrd,  A. K. Chakraborty,  
 G. K. L. Chan,  Chun-Min Chang,  Yunqing Chen,  C.-L. Cheng,  
 Siu Hung Chien,  D. M. Chipman,  D. L. Crittenden,  H. Dachsel,  
 R. J. Doerksen,  A. D. Dutoi,  R. G. Edgar,  J. Fosso-Tande,  
 L. Fusti-Molnar,  D. Ghosh,  A. Ghysels,  A. Golubeva-Zadorozhnaya,  
 J. Gonthier,  M. S. Gordon,  S. R. Gwaltney,  G. Hawkins,  J. E. Herr,  
 A. Heyden,  S. Hirata,  E. G. Hohenstein,  G. Kedziora,  F. J. Keil,  
 C. Kelley,  Jihan Kim,  R. A. King,  R. Z. Khaliullin,  P. P. Korambath,  
 W. Kurlancheek,  A. Laurent,  A. M. Lee,  M. S. Lee,  S. V. Levchenko,  
 Ching Yeh Lin,  D. Liotard,  E. Livshits,  R. C. Lochan,  I. Lotan,  
 L. A. Martinez-Martinez,  P. E. Maslen,  N. Nair,  D. P. O'Neill,  
 D. Neuhauser,  E. Neuscamman,  C. M. Oana,  R. Olivares-Amaya,  R. Olson,  
 T. M. Perrine,  B. Peters,  P. A. Pieniazek,  A. Prociuk,  Y. M. Rhee,  
 J. Ritchie,  M. A. Rohrdanz,  E. Rosta,  N. J. Russ,  H. F. Schaefer III,  
 M. W. Schmidt,  N. E. Schultz,  S. Sharma,  N. Shenvi,  C. D. Sherrill,  
 A. C. Simmonett,  A. Sodt,  T. Stein,  D. Stuck,  K. S. Thanthiriwatte,  
 V. Vanovschi,  L. Vogt,  Tao Wang,  A. Warshel,  M. A. Watson,  
 C. F. Williams,  Q. Wu,  X. Xu,  Jun Yang,  W. Zhang,  Yan Zhao

 Please cite Q-Chem as follows:
 Y. Shao et al., Mol. Phys. 113, 184-215 (2015)
 DOI: 10.1080/00268976.2014.952696

 Q-Chem 5.4.1 for Intel X86 EM64T Linux

 Parts of Q-Chem use Armadillo 9.800.1 (Horizon Scraper).
 http://arma.sourceforge.net/

 Q-Chem begins on Thu Jun 27 13:56:09 2024  

 Host: 
0

     Scratch files written to /scratch/ari.fischer/qChem2192753.hpc-mn1/qchem8969//
 Aug1521 |scratch|qcdevops|jenkins|workspace|build_RNUM 8249   
 Processing $rem in /usr/local/qchem-5.4.1/config/preferences:
 Processing $rem in /home/ari.fischer/.qchemrc:
 Symmetry turned off for PCM/SM12/SMD calculation


!!********************************************.
!!******************Warning*******************.
!!Desired Analytical derivatives not available.
!!Finite difference job might take a long time.
!!********************************************.
!!********************************************.


 2-order derivative to be evaluated numerically with 1-order analytical derivatives

 Checking the input file for inconsistencies... 	...done.

--------------------------------------------------------------
User input:
--------------------------------------------------------------
$molecule
0 2
C         2.7113354948   -0.3862062290   -0.3546185345
O         1.7838797532    0.3927828743   -1.0487036198
C         3.1052475793    0.3976053238    0.9139173844
O         2.0433512278    0.4272322065    1.8202252471
C         3.5304614905    1.8317725050    0.6575277374
C         4.7311709083    1.9505904522   -0.2697666860
O         4.2624988793    2.5573210842   -1.5069562394
O         4.9157688903    2.1312853702   -2.5504925918
C         5.8324622436    2.8280813043    0.3206188150
O         6.3497092496    2.0730386444    1.3960627531
O         6.8286701333    3.1539079313   -0.6089735043
H         5.3446360651    0.7987337163    2.3266607583
H         1.6586689065    0.0021591403   -1.9214830455
H         3.7479772215    2.2942108031    1.6188232050
H         2.6905053614    2.3742628508    0.2292530491
H         5.1689594380    0.9906775910   -0.5428761855
H         5.4272491992    3.7762586244    0.6725800577
H         6.8138741079    2.6670202406    1.9977651686
H         7.1715885512    2.3394482766   -1.0007736557
O         2.0858255987   -1.5976441946    0.0197631223
O         4.1915239031   -0.3895818236    1.4131032373
O         4.6675783738    0.1642150891    2.6373202916
H         1.6425055136   -0.4547198897    1.8212866828
H         3.5921397132   -0.5982132448   -0.9620916838
H         2.7620516963   -2.2779226466    0.1196135362
$end

$rem
BASIS = 6-311++G(2df,2p)
GUI = 2
JOB_TYPE = Frequency
METHOD = wB97M-V
SOLVENT_METHOD = SMD
SCF_ALGORITHM = DIIS_GDM
MAX_SCF_CYCLES = 400
SCF_CONVERGENCE = 7
THRESH = 12
$end
--------------------------------------------------------------
 ----------------------------------------------------------------
             Standard Nuclear Orientation (Angstroms)
    I     Atom           X                Y                Z
 ----------------------------------------------------------------
    1      C       2.7113354948    -0.3862062290    -0.3546185345
    2      O       1.7838797532     0.3927828743    -1.0487036198
    3      C       3.1052475793     0.3976053238     0.9139173844
    4      O       2.0433512278     0.4272322065     1.8202252471
    5      C       3.5304614905     1.8317725050     0.6575277374
    6      C       4.7311709083     1.9505904522    -0.2697666860
    7      O       4.2624988793     2.5573210842    -1.5069562394
    8      O       4.9157688903     2.1312853702    -2.5504925918
    9      C       5.8324622436     2.8280813043     0.3206188150
   10      O       6.3497092496     2.0730386444     1.3960627531
   11      O       6.8286701333     3.1539079313    -0.6089735043
   12      H       5.3446360651     0.7987337163     2.3266607583
   13      H       1.6586689065     0.0021591403    -1.9214830455
   14      H       3.7479772215     2.2942108031     1.6188232050
   15      H       2.6905053614     2.3742628508     0.2292530491
   16      H       5.1689594380     0.9906775910    -0.5428761855
   17      H       5.4272491992     3.7762586244     0.6725800577
   18      H       6.8138741079     2.6670202406     1.9977651686
   19      H       7.1715885512     2.3394482766    -1.0007736557
   20      O       2.0858255987    -1.5976441946     0.0197631223
   21      O       4.1915239031    -0.3895818236     1.4131032373
   22      O       4.6675783738     0.1642150891     2.6373202916
   23      H       1.6425055136    -0.4547198897     1.8212866828
   24      H       3.5921397132    -0.5982132448    -0.9620916838
   25      H       2.7620516963    -2.2779226466     0.1196135362
 ----------------------------------------------------------------
 Nuclear Repulsion Energy =        1088.82974731 hartrees
 There are       57 alpha and       56 beta electrons
 Requested basis set is 6-311++G(2df,2p)
 There are 178 shells and 586 basis functions

 Total QAlloc Memory Limit 288000 MB
 Mega-Array Size       188 MB
 MEM_STATIC part       192 MB
 
 Citation of the SMD model:
 Marenich, A.V.; Cramer, C.J.; Truhlar, D.G.
 J. Phys. Chem. B 2009, 113, 6378-6396.
 iSolventCode=           1
 Solvent: water                                                           
 
 vradii
            1           2           3           4           5           6
    1   1.8500000   1.5200000   1.8500000   1.5200000   1.8500000   1.8500000
            7           8           9          10          11          12
    1   1.5200000   1.5200000   1.8500000   1.5200000   1.5200000   1.2000000
           13          14          15          16          17          18
    1   1.2000000   1.2000000   1.2000000   1.2000000   1.2000000   1.2000000
           19          20          21          22          23          24
    1   1.2000000   1.5200000   1.5200000   1.5200000   1.2000000   1.2000000
           25
    1   1.2000000
 Changing PCM_VDW_RADII to SMD_RADIUS
 Discretize the solute cavity surface with Lebedev spheres
	Using 110 Lebedev grid points for each H atom
	Using 194 Lebedev grid points for other atoms
	Atomic van der Waals radii will be scaled by 1.20
 Remove points where switching function is < 1.0e-08
 Keep 1917 surface tesserae and discard 2009 interior tesserae
 Molecular Surface Area = 206.190 Angst**2
 A cutoff of  1.0D-12 yielded  13240 shell pairs
 There are    140291 function pairs (    173497 Cartesian)
 Smallest overlap matrix eigenvalue = 4.67E-06
 Guess from superposition of atomic densities
 Warning:  Energy on first SCF cycle will be non-variational
 SAD guess density has 113.000000 electrons

 -----------------------------------------------------------------------
  General SCF calculation program by
  Eric Jon Sundstrom, Paul Horn, Yuezhi Mao, Dmitri Zuev, Alec White,
  David Stuck, Shaama M.S., Shane Yost, Joonho Lee, David Small,
  Daniel Levine, Susi Lehtola, Hugh Burton, Evgeny Epifanovsky,
  Bang C. Huynh
 -----------------------------------------------------------------------
 Exchange:     0.1500 Hartree-Fock + 1.0000 wB97M-V + LR-HF
 Correlation:  1.0000 wB97M-V
 Using SG-2 standard quadrature grid
 Nonlocal Correlation:  VV10 with C = 0.0100 and b = 6.00 and scale = 1.00000
 Grid used for NLC:  SG-1 standard quadrature
 using 16 threads for integral computing
 -------------------------------------------------------
 OpenMP Integral computing Module                
 Release: version 1.0, May 2013, Q-Chem Inc. Pittsburgh 
 -------------------------------------------------------
 
 Citation of the SMD model:
 Marenich, A.V.; Cramer, C.J.; Truhlar, D.G.
 J. Phys. Chem. B 2009, 113, 6378-6396.
 iSolventCode=           1
 Solvent: water                                                           
 
 vradii
            1           2           3           4           5           6
    1   1.8500000   1.5200000   1.8500000   1.5200000   1.8500000   1.8500000
            7           8           9          10          11          12
    1   1.5200000   1.5200000   1.8500000   1.5200000   1.5200000   1.2000000
           13          14          15          16          17          18
    1   1.2000000   1.2000000   1.2000000   1.2000000   1.2000000   1.2000000
           19          20          21          22          23          24
    1   1.2000000   1.5200000   1.5200000   1.5200000   1.2000000   1.2000000
           25
    1   1.2000000
 -------------------------------------------------------
 OpenMP BLAS3 based DFT computing Module                
 Release: version 1.0, May 2013, Q-Chem Inc. Pittsburgh 
 -------------------------------------------------------
 A unrestricted SCF calculation will be
 performed using DIIS, GDM
 SCF converges when RMS gradient is below 1.0e-07
 ---------------------------------------
  Cycle       Energy         DIIS error
 ---------------------------------------
    1    -876.8596686493      1.02e-02  
    2    -873.7866469668      1.38e-03  Done DIIS. Switching to GDM
 ---------------------------------------
  Cycle       Energy        RMS Gradient
 ---------------------------------------
    1    -873.7866469668      1.01e-01   Descent step
    2    -873.9918537080      3.15e-02   Normal BFGS step
    3    -874.0385370924      2.81e-02   Normal BFGS step
    4    -874.0410875605      2.00e-02   Normal BFGS step
    5    -874.0441107097      5.21e-03   Normal BFGS step
    6    -874.0443213755      3.81e-03   Normal BFGS step
    7    -874.0444230403      2.46e-03   Normal BFGS step
    8    -874.0444486717      8.50e-04   Normal BFGS step
    9    -874.0444546009      5.30e-04   Normal BFGS step
   10    -874.0444565406      3.10e-04   Normal BFGS step
   11    -874.0444569154      3.10e-04   Normal BFGS step
   12    -874.0444571294      2.62e-04   Normal BFGS step
   13    -874.0444573063      1.87e-04   Normal BFGS step
   14    -874.0444574704      6.93e-05   Normal BFGS step
   15    -874.0444575000      1.94e-05   Normal BFGS step
   16    -874.0444575082      4.65e-06   Normal BFGS step
   17    -874.0444575088      2.26e-06   Normal BFGS step
   18    -874.0444575090      1.30e-06   Normal BFGS step
   19    -874.0444575090      5.21e-07   Normal BFGS step
   20    -874.0444575091      1.76e-07   Normal BFGS step
   21    -874.0444575092      5.85e-08  Convergence criterion met
 ---------------------------------------
 SCF time:   CPU 6297.81s  wall 442.00s 
<S^2> =          0.753941576
(3)  G-ENP(liq) elect-nuc-pol free energy of system     -874.044457509 a.u.
(4)  G-CDS(liq) cavity-dispersion-solvent structure 
     free energy                                                3.8520 kcal/mol
(6)  G-S(liq) free energy of system                     -874.038319009 a.u.
 SCF   energy in the final basis set =     -874.0383190085
 Total energy in the final basis set =     -874.0383190085
 
 --------------------------------------------------------------
 
                    Orbital Energies (a.u.)
 --------------------------------------------------------------
 
 Alpha MOs
 -- Occupied --
-19.4672 -19.4189 -19.4039 -19.3898 -19.3602 -19.3533 -19.3517 -19.3516
-19.3513 -10.4626 -10.4584 -10.4556 -10.4169 -10.3529  -1.3475  -1.2775
 -1.2152  -1.2127  -1.1741  -1.1456  -1.1432  -1.0453  -1.0299  -0.9115
 -0.8535  -0.8113  -0.7599  -0.7194  -0.6913  -0.6869  -0.6660  -0.6562
 -0.6462  -0.6411  -0.6165  -0.6102  -0.6008  -0.5906  -0.5764  -0.5501
 -0.5460  -0.5274  -0.5246  -0.5018  -0.4884  -0.4785  -0.4643  -0.4582
 -0.4482  -0.4456  -0.4262  -0.4235  -0.4104  -0.4069  -0.4038  -0.3944
 -0.3858
 -- Virtual --
  0.0257   0.0326   0.0383   0.0438   0.0548   0.0570   0.0649   0.0713
  0.0805   0.0848   0.0983   0.1065   0.1106   0.1210   0.1234   0.1297
  0.1368   0.1426   0.1490   0.1493   0.1552   0.1569   0.1600   0.1642
  0.1705   0.1733   0.1795   0.1797   0.1875   0.1990   0.2055   0.2153
  0.2232   0.2287   0.2405   0.2448   0.2475   0.2551   0.2608   0.2640
  0.2697   0.2783   0.2838   0.2854   0.2863   0.2963   0.2979   0.3029
  0.3060   0.3105   0.3154   0.3201   0.3259   0.3310   0.3365   0.3376
  0.3431   0.3501   0.3570   0.3596   0.3627   0.3650   0.3697   0.3711
  0.3814   0.3844   0.3880   0.3949   0.3998   0.4034   0.4117   0.4136
  0.4169   0.4218   0.4237   0.4314   0.4339   0.4439   0.4456   0.4539
  0.4585   0.4645   0.4744   0.4795   0.4846   0.4940   0.5045   0.5110
  0.5223   0.5277   0.5546   0.5751   0.5940   0.6005   0.6152   0.6228
  0.6288   0.6433   0.6526   0.6645   0.6718   0.6787   0.6834   0.6897
  0.7044   0.7067   0.7163   0.7273   0.7299   0.7414   0.7463   0.7556
  0.7671   0.7713   0.7894   0.7946   0.8016   0.8133   0.8382   0.8547
  0.8581   0.8776   0.8842   0.9118   0.9193   0.9491   0.9630   0.9738
  0.9816   0.9946   1.0105   1.0210   1.0320   1.0409   1.0566   1.0659
  1.0724   1.0818   1.0985   1.1067   1.1088   1.1338   1.1417   1.1479
  1.1503   1.1570   1.1660   1.1678   1.1784   1.1962   1.1998   1.2005
  1.2057   1.2111   1.2244   1.2253   1.2347   1.2394   1.2505   1.2550
  1.2593   1.2669   1.2690   1.2780   1.2839   1.2954   1.3069   1.3215
  1.3253   1.3359   1.3585   1.3622   1.3664   1.3734   1.3828   1.3943
  1.4019   1.4253   1.4350   1.4520   1.4618   1.4767   1.4792   1.4926
  1.4971   1.5085   1.5215   1.5234   1.5298   1.5493   1.5539   1.5624
  1.5739   1.5866   1.5992   1.6094   1.6116   1.6277   1.6420   1.6572
  1.6652   1.6664   1.6855   1.6970   1.7055   1.7131   1.7369   1.7387
  1.7522   1.7693   1.7782   1.7882   1.8036   1.8191   1.8314   1.8663
  1.8762   1.8780   1.8948   1.9273   1.9401   1.9497   1.9621   1.9788
  2.0025   2.0062   2.0209   2.0521   2.0819   2.0870   2.1055   2.1228
  2.1535   2.1819   2.2035   2.2168   2.2425   2.2553   2.2760   2.2830
  2.2979   2.3299   2.3618   2.3710   2.3807   2.3993   2.4029   2.4136
  2.4296   2.4545   2.4754   2.4871   2.4966   2.5058   2.5134   2.5340
  2.5656   2.6075   2.6307   2.6642   2.7302   2.7423   2.7579   2.7741
  2.8036   2.8361   2.8510   2.8755   2.8948   2.9205   2.9367   2.9574
  2.9761   2.9947   3.0194   3.0509   3.0726   3.0904   3.1092   3.1396
  3.1540   3.1783   3.2031   3.2191   3.2556   3.2673   3.2734   3.2843
  3.3401   3.3589   3.3744   3.3774   3.4007   3.4205   3.4486   3.4582
  3.4655   3.4923   3.5299   3.5447   3.5655   3.5678   3.5796   3.5929
  3.6069   3.6468   3.6557   3.6732   3.6846   3.6975   3.7272   3.7301
  3.7458   3.7541   3.7742   3.7999   3.8101   3.8144   3.8347   3.8484
  3.8555   3.8652   3.8883   3.8922   3.9038   3.9107   3.9206   3.9383
  3.9539   3.9739   3.9838   3.9965   4.0106   4.0298   4.0448   4.0476
  4.1014   4.1081   4.1300   4.1419   4.1515   4.1783   4.2027   4.2161
  4.2292   4.2432   4.2534   4.2647   4.2789   4.2964   4.3260   4.3334
  4.3628   4.3653   4.3908   4.4052   4.4172   4.4219   4.4443   4.4478
  4.4884   4.4953   4.5337   4.5658   4.5827   4.6012   4.6054   4.6268
  4.6413   4.6685   4.7040   4.7129   4.7443   4.7484   4.7880   4.8406
  4.8703   4.9079   4.9235   4.9473   4.9989   5.0473   5.0713   5.0949
  5.0997   5.1014   5.1167   5.1740   5.1965   5.2080   5.2316   5.2479
  5.2571   5.2632   5.2649   5.2777   5.2972   5.2987   5.3028   5.3176
  5.3254   5.3302   5.3329   5.3346   5.3509   5.3635   5.3687   5.3909
  5.3998   5.4205   5.4292   5.4360   5.4493   5.4550   5.4794   5.4962
  5.5032   5.5132   5.5358   5.5390   5.5436   5.5648   5.5826   5.6022
  5.6228   5.6275   5.6318   5.6478   5.6510   5.6609   5.6702   5.6830
  5.6944   5.7087   5.7609   5.7710   5.7984   5.8003   5.8290   5.8486
  5.8839   5.8956   5.9448   5.9876   6.0344   6.0415   6.0581   6.1014
  6.1179   6.1323   6.1424   6.1779   6.2922   6.4761   6.5054   6.5184
  6.5617   6.5798   6.6206   6.7606   6.7880   6.8103   6.8585   6.8806
  6.8990   6.9737   7.0219   7.0630   7.0833   7.0911   7.0988   7.1269
  7.1623   7.1636   7.1747   7.2292   7.2337   7.2514   7.2656   7.2749
  7.2783   7.2977   7.3202   7.3230   7.3440   7.3605   7.3617   7.3837
  7.3935   7.4074   7.4184   7.4294   7.4575   7.4680   7.4863   7.5305
  7.5523   7.5924   7.6301   7.6710   7.7063   7.7166   7.7471   7.7731
  7.7939   7.8159   7.8304   7.8664   7.9011   7.9273   7.9766   8.0355
  8.0496   8.1330   8.2320  24.6475  24.7191  24.8038  24.8377  24.8732
 50.4431  50.5155  50.5673  50.5939  50.6166  50.6340  50.6435  50.6687
 50.7193
 
 Beta MOs
 -- Occupied --
-19.4568 -19.4039 -19.4002 -19.3898 -19.3601 -19.3533 -19.3516 -19.3516
-19.3513 -10.4626 -10.4580 -10.4556 -10.4173 -10.3528  -1.3214  -1.2775
 -1.2152  -1.2123  -1.1741  -1.1454  -1.1432  -1.0445  -1.0046  -0.9017
 -0.8489  -0.8108  -0.7561  -0.7189  -0.6869  -0.6845  -0.6624  -0.6558
 -0.6364  -0.6268  -0.6103  -0.6052  -0.5886  -0.5820  -0.5663  -0.5490
 -0.5318  -0.5252  -0.5122  -0.4960  -0.4861  -0.4778  -0.4637  -0.4544
 -0.4474  -0.4377  -0.4258  -0.4180  -0.4079  -0.4034  -0.3941  -0.3865
 -- Virtual --
 -0.0322   0.0257   0.0329   0.0384   0.0441   0.0549   0.0573   0.0652
  0.0714   0.0807   0.0853   0.0985   0.1070   0.1109   0.1214   0.1248
  0.1300   0.1385   0.1429   0.1493   0.1497   0.1556   0.1571   0.1604
  0.1647   0.1711   0.1742   0.1799   0.1808   0.1884   0.2003   0.2066
  0.2162   0.2258   0.2291   0.2417   0.2455   0.2481   0.2575   0.2619
  0.2678   0.2708   0.2789   0.2846   0.2863   0.2873   0.2972   0.2987
  0.3051   0.3068   0.3130   0.3160   0.3208   0.3260   0.3317   0.3366
  0.3389   0.3437   0.3504   0.3573   0.3604   0.3635   0.3651   0.3699
  0.3713   0.3822   0.3856   0.3886   0.3952   0.4010   0.4044   0.4126
  0.4147   0.4174   0.4235   0.4245   0.4317   0.4344   0.4446   0.4459
  0.4544   0.4593   0.4647   0.4745   0.4814   0.4851   0.4943   0.5048
  0.5116   0.5226   0.5279   0.5552   0.5755   0.5942   0.6012   0.6154
  0.6231   0.6292   0.6443   0.6533   0.6647   0.6720   0.6789   0.6839
  0.6900   0.7048   0.7074   0.7166   0.7274   0.7304   0.7420   0.7465
  0.7563   0.7672   0.7716   0.7899   0.7957   0.8021   0.8137   0.8389
  0.8551   0.8584   0.8780   0.8844   0.9120   0.9197   0.9502   0.9634
  0.9744   0.9819   0.9952   1.0109   1.0230   1.0333   1.0419   1.0572
  1.0665   1.0742   1.0825   1.1002   1.1077   1.1091   1.1357   1.1446
  1.1489   1.1555   1.1599   1.1679   1.1691   1.1812   1.1982   1.2009
  1.2034   1.2085   1.2127   1.2263   1.2321   1.2384   1.2404   1.2526
  1.2569   1.2626   1.2680   1.2736   1.2796   1.2917   1.2969   1.3101
  1.3234   1.3281   1.3383   1.3599   1.3650   1.3685   1.3742   1.3847
  1.3964   1.4034   1.4271   1.4369   1.4538   1.4638   1.4778   1.4807
  1.4936   1.4980   1.5113   1.5223   1.5249   1.5304   1.5516   1.5560
  1.5635   1.5754   1.5915   1.6016   1.6105   1.6151   1.6292   1.6470
  1.6594   1.6675   1.6696   1.6905   1.7034   1.7106   1.7161   1.7412
  1.7446   1.7608   1.7755   1.7792   1.7900   1.8071   1.8226   1.8345
  1.8699   1.8771   1.8805   1.8960   1.9285   1.9417   1.9508   1.9641
  1.9806   2.0049   2.0076   2.0244   2.0549   2.0865   2.0896   2.1069
  2.1230   2.1547   2.1833   2.2038   2.2228   2.2441   2.2615   2.2794
  2.2908   2.2999   2.3335   2.3671   2.3721   2.3833   2.4004   2.4069
  2.4162   2.4307   2.4552   2.4761   2.4888   2.4978   2.5069   2.5146
  2.5348   2.5662   2.6084   2.6314   2.6673   2.7307   2.7463   2.7595
  2.7748   2.8039   2.8365   2.8515   2.8758   2.8950   2.9210   2.9372
  2.9578   2.9763   2.9948   3.0199   3.0520   3.0730   3.0914   3.1098
  3.1402   3.1543   3.1787   3.2034   3.2194   3.2558   3.2674   3.2739
  3.2848   3.3405   3.3593   3.3746   3.3774   3.4011   3.4208   3.4487
  3.4584   3.4665   3.4924   3.5304   3.5449   3.5659   3.5681   3.5800
  3.5934   3.6073   3.6470   3.6562   3.6734   3.6851   3.6982   3.7273
  3.7303   3.7461   3.7544   3.7745   3.8000   3.8105   3.8145   3.8351
  3.8487   3.8556   3.8653   3.8888   3.8923   3.9040   3.9108   3.9208
  3.9386   3.9540   3.9740   3.9843   3.9968   4.0107   4.0301   4.0451
  4.0482   4.1015   4.1086   4.1303   4.1420   4.1523   4.1786   4.2029
  4.2165   4.2295   4.2435   4.2537   4.2648   4.2796   4.2968   4.3267
  4.3337   4.3630   4.3658   4.3916   4.4056   4.4181   4.4224   4.4446
  4.4495   4.4901   4.4968   4.5344   4.5664   4.5871   4.6046   4.6153
  4.6288   4.6424   4.6717   4.7086   4.7225   4.7493   4.7609   4.7883
  4.8448   4.8759   4.9118   4.9338   4.9590   5.0038   5.0612   5.0734
  5.1006   5.1435   5.1490   5.1905   5.1980   5.2065   5.2176   5.2320
  5.2524   5.2593   5.2654   5.2792   5.2940   5.3026   5.3066   5.3130
  5.3200   5.3294   5.3314   5.3334   5.3422   5.3585   5.3655   5.3761
  5.3922   5.4079   5.4224   5.4328   5.4447   5.4522   5.4577   5.4887
  5.4987   5.5060   5.5159   5.5361   5.5401   5.5483   5.5673   5.5916
  5.6066   5.6237   5.6289   5.6331   5.6482   5.6558   5.6625   5.6712
  5.6868   5.6965   5.7116   5.7612   5.7723   5.8075   5.8086   5.8297
  5.8530   5.8861   5.8999   5.9452   5.9878   6.0352   6.0417   6.0584
  6.1016   6.1203   6.1325   6.1433   6.1780   6.2922   6.5048   6.5253
  6.5284   6.5668   6.5803   6.6324   6.7639   6.7889   6.8106   6.8815
  6.9412   6.9757   7.0181   7.0327   7.0667   7.0841   7.0925   7.1004
  7.1539   7.1635   7.1737   7.1770   7.2446   7.2487   7.2538   7.2689
  7.2759   7.2806   7.2994   7.3230   7.3371   7.3455   7.3616   7.3758
  7.3843   7.3944   7.4104   7.4218   7.4496   7.4645   7.4793   7.5093
  7.5316   7.5574   7.5930   7.6309   7.6717   7.7068   7.7168   7.7473
  7.7732   7.7940   7.8218   7.8318   7.8724   7.9016   7.9274   7.9767
  8.0397   8.0598   8.1514   8.2320  24.6474  24.7191  24.8040  24.8378
 24.8732  50.4558  50.5157  50.5745  50.5940  50.6176  50.6342  50.6440
 50.6695  50.7193
 --------------------------------------------------------------
 
          Ground-State Mulliken Net Atomic Charges

     Atom                 Charge (a.u.)    Spin (a.u.)
  --------------------------------------------------------
      1 C                     0.039033      -0.000914
      2 O                    -0.406219      -0.000240
      3 C                    -0.122961       0.000592
      4 O                    -0.423438      -0.000126
      5 C                    -0.519311      -0.004187
      6 C                    -0.124740       0.010643
      7 O                     0.126784       0.312269
      8 O                    -0.237011       0.667136
      9 C                    -0.344136       0.011507
     10 O                    -0.421868       0.001459
     11 O                    -0.442792      -0.000921
     12 H                     0.411960       0.000094
     13 H                     0.342773       0.000123
     14 H                     0.322964       0.000211
     15 H                     0.305875       0.000275
     16 H                     0.395143       0.001521
     17 H                     0.319472      -0.000723
     18 H                     0.357219       0.000476
     19 H                     0.348285       0.000553
     20 O                    -0.467461       0.000020
     21 O                    -0.138135       0.000338
     22 O                    -0.348931      -0.000020
     23 H                     0.350784       0.000117
     24 H                     0.332736      -0.000101
     25 H                     0.343978      -0.000103
  --------------------------------------------------------
  Sum of atomic charges =     0.000000
  Sum of spin   charges =     1.000000

 -----------------------------------------------------------------
                    Cartesian Multipole Moments
 -----------------------------------------------------------------
    Charge (ESU x 10^10)
                 0.0000
    Dipole Moment (Debye)
         X       3.4142      Y      -0.9399      Z      -0.1713
       Tot       3.5453
    Quadrupole Moments (Debye-Ang)
        XX     -58.0736     XY       2.0484     YY     -78.6401
        XZ      10.0118     YZ      18.0157     ZZ     -91.0597
    Octopole Moments (Debye-Ang^2)
       XXX    -843.4674    XXY     -61.3905    XYY    -323.7180
       YYY    -286.8812    XXZ      71.9358    XYZ     107.8986
       YYZ      39.2660    XZZ    -367.6720    YZZ     -98.3664
       ZZZ     -62.5822
    Hexadecapole Moments (Debye-Ang^3)
      XXXX   -8383.2015   XXXY   -1311.9490   XXYY   -1883.0364
      XYYY   -1618.8049   YYYY   -1650.2420   XXXZ     419.2193
      XXYZ     654.3018   XYYZ     254.2707   YYYZ     257.1728
      XXZZ   -1795.9310   XYZZ    -474.0737   YYZZ    -453.2488
      XZZZ    -153.9071   YZZZ     178.3631   ZZZZ   -1119.1852
 -----------------------------------------------------------------
 Calculating analytic gradient of the SCF energy
 Gradient of CDS energy
            1           2           3           4           5           6
    1  -0.0026681   0.0023777  -0.0030451   0.0032458  -0.0000894  -0.0000189
    2   0.0012386  -0.0020016   0.0000362   0.0000417   0.0001714   0.0000911
    3  -0.0019000   0.0020726   0.0026211  -0.0027128   0.0000802  -0.0000281
            7           8           9          10          11          12
    1   0.0000097  -0.0000866   0.0029853  -0.0003901  -0.0028189   0.0003208
    2  -0.0000714   0.0000374   0.0008292   0.0004021  -0.0009445  -0.0000046
    3  -0.0000472  -0.0000214  -0.0019246  -0.0008972   0.0024211   0.0002526
           13          14          15          16          17          18
    1  -0.0002472   0.0000845  -0.0001336  -0.0000053  -0.0001596   0.0002361
    2   0.0001020  -0.0000333  -0.0000082  -0.0001017   0.0000839  -0.0000180
    3  -0.0004331   0.0001263  -0.0001611  -0.0000116   0.0000316   0.0004614
           19          20          21          22          23          24
    1   0.0004468   0.0003070  -0.0000024  -0.0002667  -0.0003342   0.0002252
    2  -0.0001163   0.0009072   0.0001199  -0.0001240  -0.0001951   0.0000702
    3  -0.0001904  -0.0001131   0.0000317  -0.0001069   0.0002899   0.0001369
           25
    1   0.0000272
    2  -0.0005122
    3   0.0000222
 Gradient of SCF Energy
            1           2           3           4           5           6
    1  -0.0096495  -0.0023964   0.0011351  -0.0017167   0.0014005  -0.0123807
    2   0.0032616   0.0069804  -0.0033593   0.0044324  -0.0126031   0.0217123
    3   0.0071343   0.0138508   0.0055590   0.0025951  -0.0108850   0.0029067
            7           8           9          10          11          12
    1   0.0003853  -0.0007036   0.0068386  -0.0075469  -0.0028397   0.0063111
    2  -0.0010002   0.0009100  -0.0187401  -0.0116262   0.0147281   0.0078569
    3   0.0006836  -0.0015180  -0.0040411  -0.0169163   0.0004902  -0.0027760
           13          14          15          16          17          18
    1   0.0013123   0.0044100  -0.0005170   0.0076023  -0.0056323   0.0072849
    2  -0.0064327   0.0055146   0.0030444  -0.0111353   0.0106958   0.0119803
    3  -0.0131800   0.0051942  -0.0002892  -0.0026059   0.0071304   0.0148446
           19          20          21          22          23          24
    1   0.0043922  -0.0139515   0.0020709  -0.0085808   0.0004316   0.0105892
    2  -0.0128463   0.0104758   0.0001959  -0.0065320  -0.0032970  -0.0037493
    3  -0.0032730  -0.0013073   0.0014841   0.0036943   0.0000486  -0.0083828
           25
    1   0.0117512
    2  -0.0104668
    3  -0.0004413
 Max gradient component =       2.171E-02
 RMS gradient           =       8.014E-03
 Computing fast CPCM-SWIG gradient
 Updating gradient with PCM contributions...
 -- total gradient after adding PCM contribution --
---------------------------------------------------
  Atom         X              Y              Z     
---------------------------------------------------
   1       0.000027       0.000017      -0.000008
   2      -0.000018      -0.000035       0.000013
   3       0.000036       0.000008      -0.000006
   4      -0.000044       0.000022      -0.000028
   5       0.000016      -0.000006       0.000014
   6       0.000011      -0.000001      -0.000004
   7       0.000021      -0.000014       0.000005
   8       0.000029      -0.000032      -0.000003
   9       0.000008       0.000017      -0.000038
  10       0.000022      -0.000003       0.000016
  11       0.000010      -0.000036       0.000010
  12      -0.000016       0.000013       0.000024
  13       0.000044       0.000015      -0.000014
  14      -0.000011       0.000020      -0.000019
  15      -0.000005      -0.000009      -0.000029
  16       0.000005      -0.000010       0.000003
  17       0.000009      -0.000009      -0.000010
  18      -0.000020       0.000004       0.000010
  19       0.000019      -0.000019       0.000010
  20      -0.000032      -0.000007      -0.000003
  21      -0.000061       0.000008      -0.000011
  22      -0.000021       0.000029       0.000005
  23      -0.000001       0.000026       0.000025
  24      -0.000015      -0.000010      -0.000001
  25      -0.000013       0.000013       0.000037
---------------------------------------------------
 Number of fixed atoms: 0
 Gradient time:  CPU 892.37 s  wall 73.92 s
 ######################################################
 ######################################################
 # Starting finite difference calculation for IDERIV  #
 Finite diff step size:  1.88973e-03 a.u.
 ----------------------------------------------------------------
             Standard Nuclear Orientation (Angstroms)
    I     Atom           X                Y                Z
 ----------------------------------------------------------------
    1      C       2.7123354948    -0.3862062290    -0.3546185345
    2      O       1.7838797532     0.3927828743    -1.0487036198
    3      C       3.1052475793     0.3976053238     0.9139173844
    4      O       2.0433512278     0.4272322065     1.8202252471
    5      C       3.5304614905     1.8317725050     0.6575277374
    6      C       4.7311709083     1.9505904522    -0.2697666860
    7      O       4.2624988793     2.5573210842    -1.5069562394
    8      O       4.9157688903     2.1312853702    -2.5504925918
    9      C       5.8324622436     2.8280813043     0.3206188150
   10      O       6.3497092496     2.0730386444     1.3960627531
   11      O       6.8286701333     3.1539079313    -0.6089735043
   12      H       5.3446360651     0.7987337163     2.3266607583
   13      H       1.6586689065     0.0021591403    -1.9214830455
   14      H       3.7479772215     2.2942108031     1.6188232050
   15      H       2.6905053614     2.3742628508     0.2292530491
   16      H       5.1689594380     0.9906775910    -0.5428761855
   17      H       5.4272491992     3.7762586244     0.6725800577
   18      H       6.8138741079     2.6670202406     1.9977651686
   19      H       7.1715885512     2.3394482766    -1.0007736557
   20      O       2.0858255987    -1.5976441946     0.0197631223
   21      O       4.1915239031    -0.3895818236     1.4131032373
   22      O       4.6675783738     0.1642150891     2.6373202916
   23      H       1.6425055136    -0.4547198897     1.8212866828
   24      H       3.5921397132    -0.5982132448    -0.9620916838
   25      H       2.7620516963    -2.2779226466     0.1196135362
 ----------------------------------------------------------------
 Nuclear Repulsion Energy =        1088.82885234 hartrees
 There are       57 alpha and       56 beta electrons
 Discretize the solute cavity surface with Lebedev spheres
	Using 110 Lebedev grid points for each H atom
	Using 194 Lebedev grid points for other atoms
	Atomic van der Waals radii will be scaled by 1.20
 Remove points where switching function is < 1.0e-08
 Keep 1917 surface tesserae and discard 2009 interior tesserae
 Molecular Surface Area = 206.188 Angst**2
 Requested basis set is 6-311++G(2df,2p)
 There are 178 shells and 586 basis functions
 A cutoff of  1.0D-12 yielded  13240 shell pairs
 There are    140291 function pairs (    173497 Cartesian)
 Smallest overlap matrix eigenvalue = 4.67E-06
 Guess MOs from SCF MO coefficient file

 -----------------------------------------------------------------------
  General SCF calculation program by
  Eric Jon Sundstrom, Paul Horn, Yuezhi Mao, Dmitri Zuev, Alec White,
  David Stuck, Shaama M.S., Shane Yost, Joonho Lee, David Small,
  Daniel Levine, Susi Lehtola, Hugh Burton, Evgeny Epifanovsky,
  Bang C. Huynh
 -----------------------------------------------------------------------
 Exchange:     0.1500 Hartree-Fock + 1.0000 wB97M-V + LR-HF
 Correlation:  1.0000 wB97M-V
 Using SG-2 standard quadrature grid
 Nonlocal Correlation:  VV10 with C = 0.0100 and b = 6.00 and scale = 1.00000
 Grid used for NLC:  SG-1 standard quadrature
 
 Citation of the SMD model:
 Marenich, A.V.; Cramer, C.J.; Truhlar, D.G.
 J. Phys. Chem. B 2009, 113, 6378-6396.
 iSolventCode=           1
 Solvent: water                                                           
 
 vradii
            1           2           3           4           5           6
    1   1.8500000   1.5200000   1.8500000   1.5200000   1.8500000   1.8500000
            7           8           9          10          11          12
    1   1.5200000   1.5200000   1.8500000   1.5200000   1.5200000   1.2000000
           13          14          15          16          17          18
    1   1.2000000   1.2000000   1.2000000   1.2000000   1.2000000   1.2000000
           19          20          21          22          23          24
    1   1.2000000   1.5200000   1.5200000   1.5200000   1.2000000   1.2000000
           25
    1   1.2000000
 -------------------------------------------------------
 OpenMP BLAS3 based DFT computing Module                
 Release: version 1.0, May 2013, Q-Chem Inc. Pittsburgh 
 -------------------------------------------------------
 A unrestricted SCF calculation will be
 performed using Roothaan-Hall, DIIS, GDM
 SCF converges when RMS gradient is below 1.0e-07
 ---------------------------------------
  Cycle       Energy         DIIS error
 ---------------------------------------
    1    -873.9781592834      1.93e-04  Roothaan Step
 ---------------------------------------
  Cycle       Energy         DIIS error
 ---------------------------------------
    1    -874.0330585734      2.15e-04  
    2    -874.0407441168      1.74e-04  Done DIIS. Switching to GDM
 ---------------------------------------
  Cycle       Energy        RMS Gradient
 ---------------------------------------
    1    -874.0407441168      8.76e-03   Normal BFGS step
    2    -874.0402797547      1.35e-02  Line search: overstep
    3    -874.0441791555      2.16e-03   Normal BFGS step
    4    -874.0443934551      7.20e-04   Normal BFGS step
    5    -874.0444380267      1.05e-03   Normal BFGS step
    6    -874.0444498038      1.04e-04   Normal BFGS step
    7    -874.0444507532      2.89e-04   Normal BFGS step
    8    -874.0444511803      7.96e-05   Normal BFGS step
    9    -874.0444512582      8.89e-05   Normal BFGS step
   10    -874.0444513060      2.83e-05   Normal BFGS step
   11    -874.0444513146      5.98e-06   Normal BFGS step
   12    -874.0444513157      4.70e-06   Normal BFGS step
   13    -874.0444513160      4.67e-06   Normal BFGS step
   14    -874.0444513161      4.15e-06   Normal BFGS step
   15    -874.0444513161      3.43e-06   Normal BFGS step
   16    -874.0444513162      2.04e-06   Normal BFGS step
   17    -874.0444513162      7.37e-07   Normal BFGS step
   18    -874.0444513162      3.19e-07   Normal BFGS step
   19    -874.0444513162      1.39e-07   Normal BFGS step
   20    -874.0444513160      6.26e-08  Convergence criterion met
 ---------------------------------------
 SCF time:   CPU 6222.59s  wall 437.00s 
<S^2> =          0.753941553
(3)  G-ENP(liq) elect-nuc-pol free energy of system     -874.044451316 a.u.
(4)  G-CDS(liq) cavity-dispersion-solvent structure 
     free energy                                                3.8488 kcal/mol
(6)  G-S(liq) free energy of system                     -874.038317786 a.u.
 SCF   energy in the final basis set =     -874.0383177858
 Total energy in the final basis set =     -874.0383177858
 
 --------------------------------------------------------------
 
                    Orbital Energies (a.u.)
 --------------------------------------------------------------
 
 Alpha MOs
 -- Occupied --
-19.4672 -19.4189 -19.4039 -19.3898 -19.3602 -19.3532 -19.3517 -19.3516
-19.3513 -10.4626 -10.4584 -10.4556 -10.4169 -10.3529  -1.3475  -1.2775
 -1.2151  -1.2127  -1.1741  -1.1456  -1.1431  -1.0454  -1.0299  -0.9115
 -0.8535  -0.8113  -0.7599  -0.7194  -0.6913  -0.6869  -0.6659  -0.6563
 -0.6462  -0.6411  -0.6165  -0.6101  -0.6008  -0.5906  -0.5764  -0.5501
 -0.5460  -0.5273  -0.5246  -0.5018  -0.4884  -0.4785  -0.4643  -0.4582
 -0.4482  -0.4456  -0.4262  -0.4235  -0.4104  -0.4069  -0.4038  -0.3945
 -0.3858
 -- Virtual --
  0.0257   0.0326   0.0383   0.0438   0.0548   0.0570   0.0649   0.0713
  0.0805   0.0848   0.0983   0.1066   0.1106   0.1210   0.1234   0.1297
  0.1368   0.1426   0.1490   0.1492   0.1552   0.1569   0.1600   0.1642
  0.1705   0.1733   0.1795   0.1797   0.1875   0.1990   0.2055   0.2153
  0.2232   0.2287   0.2405   0.2448   0.2475   0.2551   0.2608   0.2640
  0.2697   0.2782   0.2838   0.2854   0.2863   0.2963   0.2979   0.3029
  0.3059   0.3105   0.3154   0.3201   0.3259   0.3310   0.3365   0.3377
  0.3431   0.3501   0.3570   0.3595   0.3627   0.3650   0.3697   0.3711
  0.3815   0.3844   0.3880   0.3950   0.3998   0.4034   0.4117   0.4136
  0.4169   0.4217   0.4237   0.4313   0.4339   0.4438   0.4456   0.4539
  0.4585   0.4645   0.4744   0.4795   0.4846   0.4940   0.5045   0.5110
  0.5223   0.5277   0.5546   0.5750   0.5940   0.6005   0.6152   0.6228
  0.6288   0.6433   0.6527   0.6645   0.6718   0.6787   0.6835   0.6897
  0.7044   0.7067   0.7163   0.7273   0.7299   0.7414   0.7463   0.7557
  0.7671   0.7713   0.7894   0.7946   0.8016   0.8134   0.8382   0.8547
  0.8581   0.8776   0.8842   0.9118   0.9193   0.9491   0.9630   0.9738
  0.9815   0.9947   1.0105   1.0210   1.0320   1.0409   1.0566   1.0659
  1.0724   1.0819   1.0985   1.1066   1.1088   1.1338   1.1417   1.1479
  1.1503   1.1570   1.1660   1.1678   1.1784   1.1962   1.1998   1.2005
  1.2057   1.2111   1.2244   1.2253   1.2348   1.2394   1.2505   1.2550
  1.2593   1.2669   1.2690   1.2781   1.2840   1.2954   1.3069   1.3215
  1.3253   1.3359   1.3585   1.3622   1.3664   1.3735   1.3828   1.3943
  1.4019   1.4253   1.4351   1.4520   1.4618   1.4767   1.4791   1.4926
  1.4972   1.5085   1.5215   1.5234   1.5298   1.5493   1.5539   1.5625
  1.5740   1.5866   1.5992   1.6095   1.6115   1.6276   1.6421   1.6572
  1.6650   1.6664   1.6855   1.6971   1.7055   1.7131   1.7369   1.7387
  1.7522   1.7692   1.7782   1.7882   1.8035   1.8191   1.8314   1.8662
  1.8762   1.8780   1.8948   1.9273   1.9401   1.9497   1.9621   1.9788
  2.0026   2.0062   2.0209   2.0521   2.0819   2.0871   2.1055   2.1228
  2.1535   2.1819   2.2034   2.2168   2.2424   2.2553   2.2759   2.2829
  2.2979   2.3298   2.3619   2.3709   2.3805   2.3992   2.4028   2.4135
  2.4295   2.4544   2.4754   2.4871   2.4966   2.5058   2.5134   2.5340
  2.5654   2.6074   2.6307   2.6642   2.7302   2.7423   2.7578   2.7740
  2.8035   2.8362   2.8509   2.8755   2.8947   2.9204   2.9367   2.9572
  2.9761   2.9948   3.0193   3.0509   3.0725   3.0904   3.1092   3.1394
  3.1539   3.1783   3.2032   3.2190   3.2556   3.2672   3.2733   3.2843
  3.3400   3.3588   3.3742   3.3774   3.4006   3.4205   3.4486   3.4581
  3.4654   3.4920   3.5299   3.5447   3.5654   3.5678   3.5796   3.5929
  3.6068   3.6468   3.6558   3.6732   3.6847   3.6975   3.7272   3.7301
  3.7458   3.7541   3.7742   3.7998   3.8101   3.8143   3.8347   3.8488
  3.8556   3.8652   3.8884   3.8923   3.9040   3.9107   3.9206   3.9384
  3.9540   3.9738   3.9836   3.9966   4.0106   4.0299   4.0449   4.0477
  4.1013   4.1082   4.1300   4.1419   4.1515   4.1783   4.2027   4.2162
  4.2292   4.2432   4.2533   4.2648   4.2789   4.2963   4.3260   4.3334
  4.3628   4.3653   4.3908   4.4053   4.4173   4.4220   4.4444   4.4481
  4.4886   4.4956   4.5338   4.5660   4.5827   4.6013   4.6054   4.6268
  4.6418   4.6685   4.7041   4.7130   4.7443   4.7485   4.7880   4.8406
  4.8704   4.9079   4.9235   4.9473   4.9989   5.0473   5.0714   5.0950
  5.0997   5.1014   5.1167   5.1740   5.1965   5.2080   5.2316   5.2479
  5.2571   5.2632   5.2649   5.2777   5.2972   5.2987   5.3028   5.3176
  5.3254   5.3303   5.3329   5.3347   5.3510   5.3635   5.3687   5.3913
  5.3998   5.4207   5.4292   5.4360   5.4493   5.4549   5.4794   5.4963
  5.5033   5.5133   5.5358   5.5389   5.5436   5.5650   5.5827   5.6022
  5.6228   5.6274   5.6318   5.6476   5.6509   5.6609   5.6702   5.6830
  5.6942   5.7087   5.7611   5.7710   5.7984   5.8003   5.8289   5.8486
  5.8837   5.8955   5.9446   5.9870   6.0339   6.0404   6.0580   6.1010
  6.1178   6.1323   6.1423   6.1770   6.2920   6.4761   6.5054   6.5185
  6.5617   6.5793   6.6206   6.7606   6.7865   6.8103   6.8585   6.8806
  6.8989   6.9737   7.0219   7.0631   7.0832   7.0911   7.0988   7.1269
  7.1623   7.1635   7.1747   7.2292   7.2337   7.2514   7.2656   7.2749
  7.2783   7.2976   7.3202   7.3229   7.3439   7.3604   7.3617   7.3837
  7.3935   7.4073   7.4184   7.4294   7.4575   7.4679   7.4863   7.5304
  7.5523   7.5923   7.6301   7.6710   7.7063   7.7164   7.7471   7.7731
  7.7938   7.8159   7.8300   7.8664   7.9011   7.9271   7.9765   8.0355
  8.0497   8.1330   8.2320  24.6475  24.7189  24.8036  24.8377  24.8733
 50.4431  50.5155  50.5673  50.5939  50.6166  50.6340  50.6435  50.6686
 50.7192
 
 Beta MOs
 -- Occupied --
-19.4568 -19.4039 -19.4002 -19.3898 -19.3601 -19.3532 -19.3517 -19.3516
-19.3513 -10.4626 -10.4580 -10.4556 -10.4173 -10.3528  -1.3214  -1.2775
 -1.2150  -1.2123  -1.1741  -1.1454  -1.1430  -1.0445  -1.0046  -0.9017
 -0.8490  -0.8109  -0.7561  -0.7188  -0.6869  -0.6845  -0.6623  -0.6559
 -0.6364  -0.6267  -0.6103  -0.6052  -0.5886  -0.5820  -0.5663  -0.5490
 -0.5318  -0.5251  -0.5122  -0.4960  -0.4861  -0.4778  -0.4638  -0.4544
 -0.4474  -0.4377  -0.4258  -0.4180  -0.4079  -0.4034  -0.3942  -0.3865
 -- Virtual --
 -0.0322   0.0257   0.0329   0.0384   0.0441   0.0549   0.0573   0.0652
  0.0714   0.0807   0.0853   0.0985   0.1070   0.1110   0.1214   0.1248
  0.1300   0.1385   0.1429   0.1493   0.1497   0.1556   0.1571   0.1604
  0.1647   0.1711   0.1743   0.1799   0.1808   0.1884   0.2003   0.2065
  0.2161   0.2258   0.2291   0.2416   0.2455   0.2481   0.2575   0.2619
  0.2678   0.2708   0.2788   0.2846   0.2863   0.2873   0.2972   0.2987
  0.3051   0.3068   0.3130   0.3160   0.3208   0.3260   0.3316   0.3366
  0.3390   0.3437   0.3504   0.3572   0.3604   0.3634   0.3651   0.3699
  0.3713   0.3822   0.3856   0.3886   0.3952   0.4011   0.4044   0.4126
  0.4147   0.4174   0.4235   0.4245   0.4317   0.4344   0.4446   0.4458
  0.4544   0.4593   0.4647   0.4745   0.4814   0.4851   0.4943   0.5048
  0.5116   0.5226   0.5279   0.5552   0.5754   0.5942   0.6012   0.6154
  0.6231   0.6292   0.6443   0.6534   0.6647   0.6720   0.6789   0.6839
  0.6900   0.7048   0.7074   0.7166   0.7275   0.7304   0.7420   0.7465
  0.7563   0.7672   0.7716   0.7899   0.7958   0.8021   0.8138   0.8389
  0.8551   0.8584   0.8780   0.8844   0.9120   0.9197   0.9502   0.9634
  0.9744   0.9819   0.9952   1.0109   1.0230   1.0333   1.0418   1.0572
  1.0665   1.0742   1.0826   1.1002   1.1077   1.1091   1.1357   1.1446
  1.1489   1.1555   1.1599   1.1679   1.1691   1.1812   1.1982   1.2009
  1.2034   1.2085   1.2127   1.2263   1.2322   1.2384   1.2405   1.2527
  1.2570   1.2626   1.2680   1.2736   1.2797   1.2917   1.2970   1.3101
  1.3234   1.3281   1.3382   1.3599   1.3650   1.3685   1.3742   1.3847
  1.3963   1.4034   1.4271   1.4370   1.4539   1.4638   1.4778   1.4807
  1.4936   1.4981   1.5113   1.5224   1.5249   1.5304   1.5516   1.5559
  1.5636   1.5754   1.5916   1.6016   1.6106   1.6150   1.6292   1.6471
  1.6594   1.6675   1.6696   1.6906   1.7034   1.7106   1.7160   1.7412
  1.7446   1.7608   1.7755   1.7792   1.7900   1.8070   1.8226   1.8346
  1.8698   1.8772   1.8805   1.8959   1.9285   1.9417   1.9509   1.9641
  1.9806   2.0050   2.0076   2.0244   2.0549   2.0865   2.0897   2.1069
  2.1230   2.1546   2.1833   2.2037   2.2228   2.2440   2.2615   2.2793
  2.2908   2.2999   2.3334   2.3671   2.3720   2.3830   2.4003   2.4069
  2.4161   2.4306   2.4551   2.4761   2.4888   2.4978   2.5068   2.5145
  2.5348   2.5659   2.6083   2.6314   2.6673   2.7306   2.7463   2.7594
  2.7747   2.8038   2.8366   2.8515   2.8757   2.8949   2.9210   2.9372
  2.9576   2.9763   2.9948   3.0199   3.0519   3.0729   3.0913   3.1097
  3.1401   3.1543   3.1787   3.2035   3.2194   3.2558   3.2674   3.2738
  3.2848   3.3404   3.3592   3.3744   3.3774   3.4010   3.4208   3.4486
  3.4583   3.4665   3.4921   3.5303   3.5449   3.5658   3.5682   3.5799
  3.5933   3.6072   3.6470   3.6563   3.6734   3.6851   3.6982   3.7274
  3.7303   3.7461   3.7543   3.7745   3.8000   3.8104   3.8144   3.8351
  3.8490   3.8557   3.8653   3.8888   3.8924   3.9041   3.9108   3.9207
  3.9387   3.9541   3.9739   3.9842   3.9968   4.0107   4.0302   4.0451
  4.0483   4.1014   4.1087   4.1303   4.1421   4.1523   4.1786   4.2028
  4.2166   4.2296   4.2435   4.2536   4.2649   4.2796   4.2967   4.3267
  4.3336   4.3630   4.3658   4.3917   4.4057   4.4181   4.4226   4.4447
  4.4498   4.4903   4.4971   4.5344   4.5666   4.5872   4.6047   4.6153
  4.6288   4.6429   4.6718   4.7087   4.7226   4.7493   4.7610   4.7883
  4.8448   4.8760   4.9119   4.9338   4.9590   5.0038   5.0612   5.0736
  5.1006   5.1435   5.1490   5.1905   5.1980   5.2064   5.2176   5.2320
  5.2524   5.2594   5.2654   5.2792   5.2941   5.3026   5.3066   5.3130
  5.3201   5.3294   5.3315   5.3334   5.3423   5.3586   5.3655   5.3761
  5.3926   5.4079   5.4226   5.4329   5.4446   5.4522   5.4577   5.4887
  5.4987   5.5061   5.5159   5.5361   5.5400   5.5484   5.5676   5.5916
  5.6067   5.6237   5.6289   5.6331   5.6480   5.6557   5.6625   5.6712
  5.6868   5.6963   5.7116   5.7614   5.7723   5.8075   5.8086   5.8296
  5.8529   5.8859   5.8999   5.9450   5.9872   6.0347   6.0406   6.0582
  6.1012   6.1201   6.1324   6.1433   6.1771   6.2921   6.5049   6.5253
  6.5284   6.5668   6.5798   6.6324   6.7638   6.7874   6.8106   6.8814
  6.9412   6.9756   7.0181   7.0327   7.0667   7.0840   7.0925   7.1004
  7.1539   7.1634   7.1737   7.1770   7.2447   7.2487   7.2538   7.2689
  7.2759   7.2807   7.2993   7.3229   7.3371   7.3454   7.3616   7.3758
  7.3843   7.3943   7.4104   7.4218   7.4496   7.4644   7.4792   7.5093
  7.5314   7.5573   7.5929   7.6309   7.6717   7.7068   7.7166   7.7474
  7.7732   7.7939   7.8216   7.8315   7.8724   7.9016   7.9272   7.9767
  8.0397   8.0598   8.1514   8.2320  24.6474  24.7189  24.8037  24.8378
 24.8733  50.4558  50.5157  50.5745  50.5939  50.6176  50.6342  50.6440
 50.6693  50.7192
 --------------------------------------------------------------
 
          Ground-State Mulliken Net Atomic Charges

     Atom                 Charge (a.u.)    Spin (a.u.)
  --------------------------------------------------------
      1 C                     0.038490      -0.000916
      2 O                    -0.406419      -0.000240
      3 C                    -0.122741       0.000596
      4 O                    -0.423404      -0.000126
      5 C                    -0.519217      -0.004187
      6 C                    -0.124892       0.010653
      7 O                     0.126771       0.312262
      8 O                    -0.236996       0.667141
      9 C                    -0.344160       0.011500
     10 O                    -0.421861       0.001459
     11 O                    -0.442790      -0.000921
     12 H                     0.411970       0.000094
     13 H                     0.342721       0.000123
     14 H                     0.322974       0.000211
     15 H                     0.305892       0.000274
     16 H                     0.395193       0.001521
     17 H                     0.319476      -0.000723
     18 H                     0.357222       0.000476
     19 H                     0.348285       0.000553
     20 O                    -0.467518       0.000020
     21 O                    -0.138005       0.000338
     22 O                    -0.348991      -0.000020
     23 H                     0.350802       0.000117
     24 H                     0.333308      -0.000104
     25 H                     0.343890      -0.000103
  --------------------------------------------------------
  Sum of atomic charges =     0.000000
  Sum of spin   charges =     1.000000

 -----------------------------------------------------------------
                    Cartesian Multipole Moments
 -----------------------------------------------------------------
    Charge (ESU x 10^10)
                 0.0000
    Dipole Moment (Debye)
         X       3.4187      Y      -0.9397      Z      -0.1700
       Tot       3.5495
    Quadrupole Moments (Debye-Ang)
        XX     -58.0475     XY       2.0485     YY     -78.6407
        XZ      10.0099     YZ      18.0179     ZZ     -91.0582
    Octopole Moments (Debye-Ang^2)
       XXX    -843.3586    XXY     -61.3909    XYY    -323.7203
       YYY    -286.8726    XXZ      71.9157    XYZ     107.9055
       YYZ      39.2676    XZZ    -367.6682    YZZ     -98.3666
       ZZZ     -62.5735
    Hexadecapole Moments (Debye-Ang^3)
      XXXX   -8382.7899   XXXY   -1311.9354   XXYY   -1883.0306
      XYYY   -1618.7639   YYYY   -1650.2448   XXXZ     419.1183
      XXYZ     654.3233   XYYZ     254.2715   YYYZ     257.1790
      XXZZ   -1795.9163   XYZZ    -474.0723   YYZZ    -453.2458
      XZZZ    -153.9003   YZZZ     178.3723   ZZZZ   -1119.1740
 -----------------------------------------------------------------
 Calculating analytic gradient of the SCF energy
 Gradient of CDS energy
            1           2           3           4           5           6
    1  -0.0025921   0.0023366  -0.0030451   0.0032455  -0.0000894  -0.0000189
    2   0.0012634  -0.0019646   0.0000362   0.0000418   0.0001714   0.0000911
    3  -0.0018865   0.0020403   0.0026211  -0.0027131   0.0000802  -0.0000281
            7           8           9          10          11          12
    1   0.0000094  -0.0000867   0.0029853  -0.0003901  -0.0028189   0.0003208
    2  -0.0000715   0.0000374   0.0008292   0.0004021  -0.0009445  -0.0000046
    3  -0.0000473  -0.0000214  -0.0019246  -0.0008972   0.0024211   0.0002526
           13          14          15          16          17          18
    1  -0.0002479   0.0000845  -0.0001339  -0.0000053  -0.0001596   0.0002361
    2   0.0001027  -0.0000333  -0.0000083  -0.0001017   0.0000839  -0.0000180
    3  -0.0004335   0.0001263  -0.0001613  -0.0000117   0.0000316   0.0004614
           19          20          21          22          23          24
    1   0.0004468   0.0002746  -0.0000024  -0.0002667  -0.0003343   0.0002247
    2  -0.0001163   0.0008446   0.0001199  -0.0001240  -0.0001951   0.0000706
    3  -0.0001904  -0.0000938   0.0000318  -0.0001069   0.0002898   0.0001373
           25
    1   0.0000269
    2  -0.0005124
    3   0.0000223
 Gradient of SCF Energy
            1           2           3           4           5           6
    1  -0.0084023  -0.0027666   0.0009935  -0.0017348   0.0013986  -0.0123870
    2   0.0032108   0.0071355  -0.0033830   0.0044508  -0.0126153   0.0217208
    3   0.0070655   0.0136783   0.0055101   0.0026663  -0.0108992   0.0029138
            7           8           9          10          11          12
    1   0.0003834  -0.0007028   0.0068393  -0.0075474  -0.0028396   0.0063129
    2  -0.0010035   0.0009115  -0.0187437  -0.0116261   0.0147319   0.0078593
    3   0.0006859  -0.0015202  -0.0040446  -0.0169181   0.0004916  -0.0027787
           13          14          15          16          17          18
    1   0.0013009   0.0044113  -0.0005144   0.0076031  -0.0056332   0.0072859
    2  -0.0064124   0.0055161   0.0030463  -0.0111468   0.0106983   0.0119811
    3  -0.0131776   0.0051972  -0.0002871  -0.0026082   0.0071316   0.0148463
           19          20          21          22          23          24
    1   0.0043927  -0.0142635   0.0020429  -0.0085899   0.0004357   0.0102068
    2  -0.0128498   0.0102460   0.0001798  -0.0065312  -0.0032904  -0.0036755
    3  -0.0032746  -0.0012208   0.0014314   0.0036895   0.0000556  -0.0081736
           25
    1   0.0117742
    2  -0.0104104
    3  -0.0004602
 Max gradient component =       2.172E-02
 RMS gradient           =       7.988E-03
 Computing fast CPCM-SWIG gradient
 Updating gradient with PCM contributions...
 -- total gradient after adding PCM contribution --
---------------------------------------------------
  Atom         X              Y              Z     
---------------------------------------------------
   1       0.001267      -0.000035      -0.000093
   2      -0.000368       0.000118      -0.000145
   3      -0.000107      -0.000020      -0.000060
   4      -0.000059       0.000044       0.000049
   5       0.000014      -0.000021       0.000005
   6       0.000011      -0.000002      -0.000004
   7       0.000021      -0.000015       0.000005
   8       0.000029      -0.000032      -0.000004
   9       0.000006       0.000017      -0.000039
  10       0.000022      -0.000003       0.000016
  11       0.000011      -0.000035       0.000010
  12      -0.000016       0.000013       0.000023
  13       0.000025       0.000032      -0.000022
  14      -0.000010       0.000020      -0.000018
  15      -0.000005      -0.000008      -0.000030
  16       0.000002      -0.000011       0.000003
  17       0.000010      -0.000009      -0.000010
  18      -0.000020       0.000004       0.000010
  19       0.000018      -0.000019       0.000010
  20      -0.000329      -0.000229       0.000080
  21      -0.000088      -0.000009      -0.000064
  22      -0.000027       0.000034       0.000000
  23      -0.000000       0.000030       0.000028
  24      -0.000414       0.000072       0.000228
  25       0.000007       0.000064       0.000020
---------------------------------------------------
 Number of fixed atoms: 0
 Gradient time:  CPU 893.94 s  wall 73.56 s
 ----------------------------------------------------------------
             Standard Nuclear Orientation (Angstroms)
    I     Atom           X                Y                Z
 ----------------------------------------------------------------
    1      C       2.7103354948    -0.3862062290    -0.3546185345
    2      O       1.7838797532     0.3927828743    -1.0487036198
    3      C       3.1052475793     0.3976053238     0.9139173844
    4      O       2.0433512278     0.4272322065     1.8202252471
    5      C       3.5304614905     1.8317725050     0.6575277374
    6      C       4.7311709083     1.9505904522    -0.2697666860
    7      O       4.2624988793     2.5573210842    -1.5069562394
    8      O       4.9157688903     2.1312853702    -2.5504925918
    9      C       5.8324622436     2.8280813043     0.3206188150
   10      O       6.3497092496     2.0730386444     1.3960627531
   11      O       6.8286701333     3.1539079313    -0.6089735043
   12      H       5.3446360651     0.7987337163     2.3266607583
   13      H       1.6586689065     0.0021591403    -1.9214830455
   14      H       3.7479772215     2.2942108031     1.6188232050
   15      H       2.6905053614     2.3742628508     0.2292530491
   16      H       5.1689594380     0.9906775910    -0.5428761855
   17      H       5.4272491992     3.7762586244     0.6725800577
   18      H       6.8138741079     2.6670202406     1.9977651686
   19      H       7.1715885512     2.3394482766    -1.0007736557
   20      O       2.0858255987    -1.5976441946     0.0197631223
   21      O       4.1915239031    -0.3895818236     1.4131032373
   22      O       4.6675783738     0.1642150891     2.6373202916
   23      H       1.6425055136    -0.4547198897     1.8212866828
   24      H       3.5921397132    -0.5982132448    -0.9620916838
   25      H       2.7620516963    -2.2779226466     0.1196135362
 ----------------------------------------------------------------
 Nuclear Repulsion Energy =        1088.83063778 hartrees
 There are       57 alpha and       56 beta electrons
 Discretize the solute cavity surface with Lebedev spheres
	Using 110 Lebedev grid points for each H atom
	Using 194 Lebedev grid points for other atoms
	Atomic van der Waals radii will be scaled by 1.20
 Remove points where switching function is < 1.0e-08
 Keep 1917 surface tesserae and discard 2009 interior tesserae
 Molecular Surface Area = 206.192 Angst**2
 Requested basis set is 6-311++G(2df,2p)
 There are 178 shells and 586 basis functions
 A cutoff of  1.0D-12 yielded  13240 shell pairs
 There are    140291 function pairs (    173497 Cartesian)
 Smallest overlap matrix eigenvalue = 4.67E-06
 Guess MOs from SCF MO coefficient file

 -----------------------------------------------------------------------
  General SCF calculation program by
  Eric Jon Sundstrom, Paul Horn, Yuezhi Mao, Dmitri Zuev, Alec White,
  David Stuck, Shaama M.S., Shane Yost, Joonho Lee, David Small,
  Daniel Levine, Susi Lehtola, Hugh Burton, Evgeny Epifanovsky,
  Bang C. Huynh
 -----------------------------------------------------------------------
 Exchange:     0.1500 Hartree-Fock + 1.0000 wB97M-V + LR-HF
 Correlation:  1.0000 wB97M-V
 Using SG-2 standard quadrature grid
 Nonlocal Correlation:  VV10 with C = 0.0100 and b = 6.00 and scale = 1.00000
 Grid used for NLC:  SG-1 standard quadrature
 
 Citation of the SMD model:
 Marenich, A.V.; Cramer, C.J.; Truhlar, D.G.
 J. Phys. Chem. B 2009, 113, 6378-6396.
 iSolventCode=           1
 Solvent: water                                                           
 
 vradii
            1           2           3           4           5           6
    1   1.8500000   1.5200000   1.8500000   1.5200000   1.8500000   1.8500000
            7           8           9          10          11          12
    1   1.5200000   1.5200000   1.8500000   1.5200000   1.5200000   1.2000000
           13          14          15          16          17          18
    1   1.2000000   1.2000000   1.2000000   1.2000000   1.2000000   1.2000000
           19          20          21          22          23          24
    1   1.2000000   1.5200000   1.5200000   1.5200000   1.2000000   1.2000000
           25
    1   1.2000000
 -------------------------------------------------------
 OpenMP BLAS3 based DFT computing Module                
 Release: version 1.0, May 2013, Q-Chem Inc. Pittsburgh 
 -------------------------------------------------------
 A unrestricted SCF calculation will be
 performed using Roothaan-Hall, DIIS, GDM
 SCF converges when RMS gradient is below 1.0e-07
 ---------------------------------------
  Cycle       Energy         DIIS error
 ---------------------------------------
    1    -873.9781753500      1.93e-04  Roothaan Step
 ---------------------------------------
  Cycle       Energy         DIIS error
 ---------------------------------------
    1    -874.0330986229      2.14e-04  
    2    -874.0407804807      1.74e-04  Done DIIS. Switching to GDM
 ---------------------------------------
  Cycle       Energy        RMS Gradient
 ---------------------------------------
    1    -874.0407804807      8.75e-03   Normal BFGS step
    2    -874.0403238806      1.35e-02  Line search: overstep
    3    -874.0441898202      2.16e-03   Normal BFGS step
    4    -874.0444037328      7.19e-04   Normal BFGS step
    5    -874.0444482743      1.05e-03   Normal BFGS step
    6    -874.0444599895      1.05e-04   Normal BFGS step
    7    -874.0444609409      2.89e-04   Normal BFGS step
    8    -874.0444613680      7.98e-05   Normal BFGS step
    9    -874.0444614461      8.88e-05   Normal BFGS step
   10    -874.0444614940      2.82e-05   Normal BFGS step
   11    -874.0444615026      5.97e-06   Normal BFGS step
   12    -874.0444615037      4.53e-06   Normal BFGS step
   13    -874.0444615040      4.51e-06   Normal BFGS step
   14    -874.0444615040      4.02e-06   Normal BFGS step
   15    -874.0444615040      3.34e-06   Normal BFGS step
   16    -874.0444615041      2.03e-06   Normal BFGS step
   17    -874.0444615041      7.55e-07   Normal BFGS step
   18    -874.0444615041      3.23e-07   Normal BFGS step
   19    -874.0444615041      1.40e-07   Normal BFGS step
   20    -874.0444615040      6.26e-08  Convergence criterion met
 ---------------------------------------
 SCF time:   CPU 6242.11s  wall 438.00s 
<S^2> =          0.753941597
(3)  G-ENP(liq) elect-nuc-pol free energy of system     -874.044461504 a.u.
(4)  G-CDS(liq) cavity-dispersion-solvent structure 
     free energy                                                3.8552 kcal/mol
(6)  G-S(liq) free energy of system                     -874.038317890 a.u.
 SCF   energy in the final basis set =     -874.0383178905
 Total energy in the final basis set =     -874.0383178905
 
 --------------------------------------------------------------
 
                    Orbital Energies (a.u.)
 --------------------------------------------------------------
 
 Alpha MOs
 -- Occupied --
-19.4672 -19.4189 -19.4039 -19.3898 -19.3602 -19.3533 -19.3516 -19.3516
-19.3513 -10.4625 -10.4584 -10.4556 -10.4169 -10.3529  -1.3475  -1.2775
 -1.2153  -1.2127  -1.1742  -1.1456  -1.1433  -1.0453  -1.0299  -0.9115
 -0.8534  -0.8113  -0.7599  -0.7194  -0.6913  -0.6869  -0.6660  -0.6562
 -0.6463  -0.6411  -0.6165  -0.6102  -0.6008  -0.5906  -0.5764  -0.5501
 -0.5460  -0.5274  -0.5247  -0.5018  -0.4884  -0.4785  -0.4643  -0.4582
 -0.4482  -0.4456  -0.4261  -0.4235  -0.4104  -0.4069  -0.4038  -0.3943
 -0.3858
 -- Virtual --
  0.0257   0.0326   0.0383   0.0438   0.0548   0.0570   0.0649   0.0713
  0.0805   0.0848   0.0983   0.1065   0.1106   0.1210   0.1234   0.1297
  0.1368   0.1426   0.1489   0.1493   0.1552   0.1569   0.1600   0.1642
  0.1705   0.1733   0.1794   0.1797   0.1875   0.1990   0.2055   0.2154
  0.2232   0.2288   0.2405   0.2448   0.2475   0.2551   0.2608   0.2641
  0.2698   0.2783   0.2838   0.2854   0.2864   0.2963   0.2979   0.3029
  0.3060   0.3105   0.3155   0.3202   0.3259   0.3310   0.3365   0.3376
  0.3431   0.3501   0.3570   0.3596   0.3627   0.3650   0.3697   0.3711
  0.3814   0.3844   0.3880   0.3949   0.3998   0.4034   0.4117   0.4136
  0.4169   0.4218   0.4237   0.4314   0.4340   0.4439   0.4457   0.4539
  0.4585   0.4645   0.4744   0.4795   0.4846   0.4940   0.5046   0.5110
  0.5223   0.5276   0.5546   0.5751   0.5941   0.6005   0.6152   0.6228
  0.6288   0.6433   0.6526   0.6645   0.6718   0.6787   0.6834   0.6898
  0.7044   0.7067   0.7163   0.7272   0.7299   0.7415   0.7463   0.7556
  0.7671   0.7712   0.7894   0.7945   0.8016   0.8132   0.8382   0.8548
  0.8581   0.8776   0.8842   0.9118   0.9194   0.9491   0.9630   0.9738
  0.9816   0.9945   1.0105   1.0210   1.0320   1.0410   1.0566   1.0659
  1.0723   1.0818   1.0985   1.1067   1.1088   1.1339   1.1417   1.1480
  1.1503   1.1570   1.1660   1.1678   1.1784   1.1962   1.1998   1.2005
  1.2058   1.2111   1.2244   1.2253   1.2347   1.2393   1.2505   1.2550
  1.2593   1.2669   1.2689   1.2780   1.2839   1.2953   1.3069   1.3215
  1.3253   1.3359   1.3584   1.3622   1.3664   1.3734   1.3828   1.3943
  1.4019   1.4253   1.4349   1.4519   1.4617   1.4767   1.4792   1.4927
  1.4971   1.5085   1.5215   1.5234   1.5298   1.5493   1.5539   1.5623
  1.5739   1.5866   1.5991   1.6093   1.6116   1.6277   1.6419   1.6572
  1.6653   1.6664   1.6855   1.6970   1.7055   1.7131   1.7369   1.7387
  1.7522   1.7694   1.7782   1.7882   1.8036   1.8191   1.8313   1.8664
  1.8761   1.8780   1.8948   1.9273   1.9401   1.9496   1.9621   1.9788
  2.0024   2.0062   2.0209   2.0521   2.0819   2.0870   2.1056   2.1228
  2.1536   2.1819   2.2036   2.2168   2.2427   2.2553   2.2760   2.2830
  2.2978   2.3300   2.3618   2.3710   2.3809   2.3995   2.4030   2.4136
  2.4296   2.4545   2.4754   2.4872   2.4967   2.5059   2.5135   2.5340
  2.5659   2.6076   2.6307   2.6642   2.7302   2.7423   2.7579   2.7741
  2.8037   2.8360   2.8510   2.8756   2.8948   2.9206   2.9367   2.9576
  2.9762   2.9947   3.0194   3.0509   3.0727   3.0905   3.1092   3.1397
  3.1540   3.1783   3.2030   3.2191   3.2556   3.2673   3.2735   3.2843
  3.3402   3.3591   3.3745   3.3773   3.4009   3.4205   3.4487   3.4583
  3.4655   3.4926   3.5300   3.5446   3.5655   3.5678   3.5797   3.5929
  3.6069   3.6468   3.6557   3.6732   3.6846   3.6976   3.7271   3.7301
  3.7458   3.7542   3.7741   3.7999   3.8101   3.8145   3.8347   3.8481
  3.8555   3.8652   3.8883   3.8921   3.9037   3.9106   3.9207   3.9382
  3.9538   3.9739   3.9839   3.9964   4.0106   4.0296   4.0448   4.0475
  4.1014   4.1080   4.1300   4.1418   4.1515   4.1783   4.2028   4.2160
  4.2291   4.2432   4.2534   4.2646   4.2790   4.2965   4.3260   4.3334
  4.3628   4.3654   4.3907   4.4052   4.4171   4.4217   4.4442   4.4475
  4.4882   4.4950   4.5337   4.5657   4.5826   4.6011   4.6053   4.6267
  4.6409   4.6684   4.7039   4.7129   4.7443   4.7483   4.7880   4.8406
  4.8702   4.9079   4.9235   4.9473   4.9989   5.0473   5.0711   5.0949
  5.0997   5.1014   5.1167   5.1740   5.1966   5.2080   5.2316   5.2479
  5.2570   5.2632   5.2649   5.2777   5.2972   5.2987   5.3028   5.3175
  5.3253   5.3302   5.3329   5.3344   5.3509   5.3635   5.3687   5.3905
  5.3998   5.4203   5.4291   5.4361   5.4493   5.4551   5.4794   5.4962
  5.5032   5.5132   5.5359   5.5390   5.5435   5.5646   5.5826   5.6021
  5.6228   5.6275   5.6318   5.6480   5.6511   5.6609   5.6702   5.6830
  5.6947   5.7087   5.7608   5.7710   5.7984   5.8003   5.8290   5.8487
  5.8841   5.8956   5.9450   5.9882   6.0347   6.0427   6.0582   6.1017
  6.1181   6.1324   6.1424   6.1789   6.2923   6.4761   6.5054   6.5184
  6.5617   6.5803   6.6206   6.7607   6.7895   6.8103   6.8585   6.8807
  6.8990   6.9737   7.0219   7.0630   7.0834   7.0911   7.0988   7.1269
  7.1623   7.1637   7.1747   7.2292   7.2337   7.2514   7.2656   7.2749
  7.2783   7.2978   7.3202   7.3231   7.3441   7.3606   7.3617   7.3837
  7.3936   7.4074   7.4185   7.4294   7.4576   7.4681   7.4864   7.5307
  7.5524   7.5924   7.6301   7.6710   7.7064   7.7168   7.7471   7.7731
  7.7940   7.8160   7.8308   7.8664   7.9011   7.9275   7.9766   8.0355
  8.0496   8.1330   8.2320  24.6476  24.7193  24.8041  24.8378  24.8731
 50.4431  50.5155  50.5673  50.5940  50.6166  50.6340  50.6435  50.6689
 50.7193
 
 Beta MOs
 -- Occupied --
-19.4568 -19.4039 -19.4001 -19.3898 -19.3601 -19.3533 -19.3516 -19.3515
-19.3513 -10.4625 -10.4580 -10.4556 -10.4173 -10.3528  -1.3214  -1.2775
 -1.2153  -1.2123  -1.1741  -1.1454  -1.1433  -1.0445  -1.0046  -0.9017
 -0.8489  -0.8108  -0.7561  -0.7189  -0.6869  -0.6845  -0.6625  -0.6557
 -0.6364  -0.6268  -0.6102  -0.6053  -0.5886  -0.5820  -0.5663  -0.5490
 -0.5318  -0.5252  -0.5122  -0.4960  -0.4860  -0.4778  -0.4637  -0.4544
 -0.4474  -0.4377  -0.4258  -0.4180  -0.4078  -0.4034  -0.3940  -0.3865
 -- Virtual --
 -0.0322   0.0257   0.0329   0.0384   0.0441   0.0549   0.0573   0.0652
  0.0714   0.0807   0.0853   0.0985   0.1070   0.1109   0.1214   0.1248
  0.1300   0.1385   0.1429   0.1493   0.1497   0.1556   0.1571   0.1604
  0.1647   0.1711   0.1742   0.1799   0.1808   0.1884   0.2003   0.2066
  0.2162   0.2258   0.2291   0.2417   0.2456   0.2481   0.2575   0.2619
  0.2679   0.2708   0.2789   0.2846   0.2864   0.2873   0.2972   0.2988
  0.3051   0.3068   0.3130   0.3161   0.3208   0.3260   0.3317   0.3366
  0.3389   0.3438   0.3504   0.3573   0.3604   0.3635   0.3651   0.3699
  0.3713   0.3822   0.3855   0.3885   0.3952   0.4010   0.4044   0.4126
  0.4147   0.4174   0.4235   0.4245   0.4317   0.4345   0.4447   0.4460
  0.4544   0.4593   0.4647   0.4745   0.4814   0.4851   0.4943   0.5049
  0.5116   0.5226   0.5279   0.5552   0.5755   0.5943   0.6012   0.6154
  0.6231   0.6292   0.6443   0.6532   0.6647   0.6720   0.6789   0.6838
  0.6901   0.7048   0.7074   0.7166   0.7274   0.7304   0.7420   0.7465
  0.7563   0.7673   0.7715   0.7899   0.7957   0.8021   0.8136   0.8389
  0.8551   0.8584   0.8780   0.8844   0.9120   0.9197   0.9502   0.9634
  0.9744   0.9819   0.9951   1.0109   1.0230   1.0333   1.0419   1.0572
  1.0665   1.0742   1.0825   1.1003   1.1077   1.1091   1.1357   1.1446
  1.1489   1.1555   1.1599   1.1678   1.1691   1.1812   1.1982   1.2009
  1.2034   1.2085   1.2127   1.2263   1.2321   1.2384   1.2404   1.2526
  1.2569   1.2626   1.2681   1.2736   1.2796   1.2916   1.2969   1.3101
  1.3234   1.3281   1.3383   1.3599   1.3650   1.3685   1.3742   1.3847
  1.3964   1.4034   1.4271   1.4368   1.4538   1.4638   1.4779   1.4807
  1.4937   1.4980   1.5113   1.5223   1.5249   1.5304   1.5515   1.5560
  1.5634   1.5753   1.5915   1.6016   1.6104   1.6151   1.6293   1.6469
  1.6595   1.6676   1.6696   1.6905   1.7034   1.7106   1.7161   1.7411
  1.7446   1.7609   1.7755   1.7792   1.7900   1.8071   1.8226   1.8345
  1.8700   1.8770   1.8805   1.8960   1.9285   1.9417   1.9508   1.9641
  1.9806   2.0048   2.0076   2.0244   2.0550   2.0865   2.0896   2.1069
  2.1231   2.1548   2.1833   2.2039   2.2228   2.2443   2.2615   2.2795
  2.2908   2.2998   2.3335   2.3671   2.3722   2.3835   2.4005   2.4070
  2.4162   2.4307   2.4552   2.4761   2.4889   2.4978   2.5070   2.5147
  2.5348   2.5664   2.6085   2.6314   2.6674   2.7307   2.7463   2.7596
  2.7748   2.8040   2.8365   2.8516   2.8758   2.8950   2.9211   2.9372
  2.9580   2.9764   2.9947   3.0200   3.0520   3.0731   3.0914   3.1098
  3.1403   3.1543   3.1787   3.2032   3.2194   3.2557   3.2675   3.2740
  3.2848   3.3406   3.3595   3.3747   3.3774   3.4013   3.4208   3.4487
  3.4585   3.4665   3.4927   3.5305   3.5449   3.5659   3.5681   3.5800
  3.5934   3.6073   3.6470   3.6561   3.6734   3.6850   3.6982   3.7273
  3.7302   3.7462   3.7544   3.7744   3.8000   3.8105   3.8146   3.8351
  3.8484   3.8556   3.8653   3.8888   3.8923   3.9038   3.9107   3.9209
  3.9385   3.9539   3.9741   3.9844   3.9967   4.0108   4.0299   4.0450
  4.0481   4.1015   4.1086   4.1303   4.1420   4.1523   4.1786   4.2029
  4.2164   4.2295   4.2435   4.2537   4.2647   4.2797   4.2968   4.3266
  4.3337   4.3630   4.3658   4.3916   4.4056   4.4180   4.4222   4.4445
  4.4492   4.4899   4.4966   4.5343   4.5663   4.5871   4.6045   4.6152
  4.6287   4.6419   4.6717   4.7085   4.7225   4.7492   4.7609   4.7883
  4.8448   4.8758   4.9118   4.9338   4.9590   5.0037   5.0612   5.0732
  5.1006   5.1435   5.1490   5.1904   5.1981   5.2065   5.2176   5.2320
  5.2523   5.2593   5.2654   5.2791   5.2940   5.3026   5.3066   5.3130
  5.3199   5.3294   5.3313   5.3335   5.3422   5.3584   5.3654   5.3761
  5.3919   5.4078   5.4222   5.4328   5.4447   5.4522   5.4578   5.4887
  5.4986   5.5059   5.5159   5.5362   5.5401   5.5482   5.5671   5.5916
  5.6066   5.6237   5.6290   5.6331   5.6484   5.6559   5.6624   5.6712
  5.6869   5.6967   5.7116   5.7611   5.7723   5.8075   5.8086   5.8298
  5.8530   5.8863   5.9000   5.9454   5.9884   6.0356   6.0429   6.0585
  6.1019   6.1204   6.1326   6.1434   6.1790   6.2923   6.5048   6.5253
  6.5284   6.5668   6.5808   6.6324   6.7639   6.7904   6.8106   6.8816
  6.9412   6.9757   7.0181   7.0327   7.0667   7.0842   7.0925   7.1004
  7.1540   7.1635   7.1737   7.1770   7.2446   7.2487   7.2538   7.2689
  7.2759   7.2806   7.2995   7.3231   7.3371   7.3456   7.3617   7.3758
  7.3843   7.3944   7.4104   7.4219   7.4496   7.4645   7.4793   7.5093
  7.5317   7.5574   7.5930   7.6309   7.6717   7.7069   7.7170   7.7473
  7.7732   7.7940   7.8219   7.8321   7.8724   7.9016   7.9276   7.9767
  8.0397   8.0598   8.1514   8.2321  24.6474  24.7193  24.8042  24.8379
 24.8731  50.4558  50.5157  50.5745  50.5940  50.6176  50.6342  50.6440
 50.6696  50.7194
 --------------------------------------------------------------
 
          Ground-State Mulliken Net Atomic Charges

     Atom                 Charge (a.u.)    Spin (a.u.)
  --------------------------------------------------------
      1 C                     0.039575      -0.000913
      2 O                    -0.406018      -0.000240
      3 C                    -0.123180       0.000588
      4 O                    -0.423472      -0.000127
      5 C                    -0.519404      -0.004187
      6 C                    -0.124589       0.010634
      7 O                     0.126797       0.312275
      8 O                    -0.237027       0.667130
      9 C                    -0.344113       0.011515
     10 O                    -0.421874       0.001459
     11 O                    -0.442795      -0.000921
     12 H                     0.411950       0.000094
     13 H                     0.342825       0.000123
     14 H                     0.322954       0.000211
     15 H                     0.305857       0.000275
     16 H                     0.395092       0.001521
     17 H                     0.319468      -0.000723
     18 H                     0.357216       0.000476
     19 H                     0.348285       0.000553
     20 O                    -0.467404       0.000021
     21 O                    -0.138265       0.000338
     22 O                    -0.348871      -0.000020
     23 H                     0.350767       0.000117
     24 H                     0.332162      -0.000099
     25 H                     0.344065      -0.000103
  --------------------------------------------------------
  Sum of atomic charges =     0.000000
  Sum of spin   charges =     1.000000

 -----------------------------------------------------------------
                    Cartesian Multipole Moments
 -----------------------------------------------------------------
    Charge (ESU x 10^10)
                 0.0000
    Dipole Moment (Debye)
         X       3.4097      Y      -0.9401      Z      -0.1726
       Tot       3.5411
    Quadrupole Moments (Debye-Ang)
        XX     -58.0997     XY       2.0483     YY     -78.6395
        XZ      10.0137     YZ      18.0135     ZZ     -91.0612
    Octopole Moments (Debye-Ang^2)
       XXX    -843.5763    XXY     -61.3901    XYY    -323.7158
       YYY    -286.8898    XXZ      71.9560    XYZ     107.8917
       YYZ      39.2644    XZZ    -367.6759    YZZ     -98.3662
       ZZZ     -62.5909
    Hexadecapole Moments (Debye-Ang^3)
      XXXX   -8383.6140   XXXY   -1311.9623   XXYY   -1883.0423
      XYYY   -1618.8459   YYYY   -1650.2392   XXXZ     419.3207
      XXYZ     654.2803   XYYZ     254.2700   YYYZ     257.1665
      XXZZ   -1795.9458   XYZZ    -474.0750   YYZZ    -453.2518
      XZZZ    -153.9139   YZZZ     178.3538   ZZZZ   -1119.1964
 -----------------------------------------------------------------
 Calculating analytic gradient of the SCF energy
[...]
 C          0.016  0.004 -0.000   -0.034 -0.008  0.048   -0.011 -0.046 -0.003
 C          0.030 -0.008 -0.134   -0.036  0.005 -0.040   -0.064  0.010 -0.001
 O         -0.028  0.038  0.014   -0.008  0.017 -0.000    0.004  0.003 -0.002
 O          0.010 -0.009 -0.004    0.001 -0.002  0.003   -0.002  0.001  0.001
 C         -0.039  0.005  0.028    0.071 -0.056 -0.063    0.061 -0.055 -0.073
 O          0.006  0.010  0.000   -0.007  0.035 -0.002   -0.005  0.032  0.001
 O          0.003 -0.015 -0.006   -0.014  0.022  0.016   -0.008  0.023  0.014
 H         -0.003 -0.012 -0.028   -0.003 -0.017 -0.042   -0.017  0.005 -0.025
 H         -0.041  0.041 -0.018    0.101 -0.105  0.041   -0.148  0.152 -0.060
 H         -0.336 -0.257  0.211    0.128  0.217 -0.099   -0.046 -0.115  0.037
 H          0.122  0.102 -0.083    0.131  0.128 -0.109    0.092  0.050 -0.079
 H         -0.022 -0.275  0.716    0.354  0.054  0.376    0.370  0.156  0.152
 H          0.114  0.047  0.085   -0.061 -0.194  0.130   -0.053 -0.188  0.123
 H          0.026 -0.056  0.047    0.061 -0.165  0.135    0.062 -0.163  0.136
 H          0.139  0.097 -0.109   -0.250 -0.179  0.208   -0.234 -0.167  0.194
 O          0.003  0.006 -0.001   -0.008  0.005  0.007    0.010 -0.007 -0.011
 O          0.001 -0.001 -0.009   -0.001  0.015  0.003    0.004 -0.018  0.001
 O         -0.004  0.002  0.000    0.001 -0.004  0.005   -0.004  0.001  0.000
 H          0.058 -0.014 -0.057    0.295 -0.118 -0.301   -0.381  0.148  0.381
 H         -0.108 -0.017 -0.158    0.194  0.177  0.192   -0.227 -0.221 -0.197
 H          0.009  0.012 -0.007    0.057  0.062 -0.019   -0.068 -0.074  0.022
 TransDip  -0.057 -0.084  0.008    0.260 -0.257 -0.142   -0.110  0.142  0.113

 Mode:                52                     53                     54
 Frequency:      1408.36                1420.88                1434.90
 Force Cnst:      1.8144                 1.5481                 1.9012
 Red. Mass:       1.5526                 1.3015                 1.5672
 IR Active:          YES                    YES                    YES
 IR Intens:       35.602                 30.947                 53.986
 Raman Active:       YES                    YES                    YES
               X      Y      Z        X      Y      Z        X      Y      Z
 C          0.021 -0.103  0.006   -0.015  0.057 -0.022    0.035 -0.095  0.055
 O          0.001  0.008 -0.008   -0.001 -0.002  0.009    0.001  0.002 -0.019
 C         -0.042 -0.008  0.064   -0.017 -0.026  0.002    0.058  0.079 -0.056
 O          0.012 -0.001 -0.013    0.002  0.006  0.001   -0.013 -0.016  0.007
 C          0.080  0.100 -0.061   -0.004  0.005 -0.005   -0.062 -0.091  0.044
 C         -0.054 -0.033  0.046    0.040  0.009  0.025    0.051  0.027 -0.016
 O          0.005 -0.005  0.007    0.000 -0.003  0.005   -0.001  0.000 -0.003
 O          0.002 -0.000 -0.008    0.002 -0.001 -0.004   -0.001  0.000  0.004
 C         -0.007 -0.011 -0.055   -0.062  0.033 -0.100   -0.009  0.048 -0.016
 O          0.000  0.021  0.006    0.004  0.034  0.016    0.000 -0.001  0.005
 O          0.004  0.003  0.003    0.010 -0.034 -0.001   -0.000 -0.030 -0.002
 H         -0.010 -0.005 -0.029   -0.008 -0.018 -0.062   -0.003 -0.000 -0.011
 H          0.006 -0.014  0.001    0.035 -0.030  0.015   -0.087  0.079 -0.037
 H         -0.190 -0.333  0.211    0.043  0.022 -0.025    0.140  0.226 -0.156
 H         -0.220 -0.254  0.081   -0.041 -0.025  0.030    0.149  0.162 -0.045
 H          0.207  0.160 -0.231   -0.148 -0.033 -0.111   -0.277 -0.140  0.076
 H          0.054 -0.111  0.260   -0.026 -0.274  0.747   -0.165 -0.121  0.273
 H          0.047 -0.115  0.098    0.090 -0.202  0.171    0.004  0.005 -0.005
 H         -0.032 -0.031  0.036    0.194  0.111 -0.131    0.170  0.110 -0.131
 O         -0.029  0.015  0.011    0.019 -0.005 -0.005   -0.038  0.003  0.008
 O          0.003 -0.000 -0.006    0.003  0.006  0.002   -0.001 -0.009  0.000
 O         -0.003  0.000 -0.000   -0.002 -0.003  0.004   -0.001  0.001  0.002
 H          0.037 -0.014 -0.036    0.044 -0.017 -0.040   -0.131  0.049  0.123
 H          0.043  0.549 -0.194   -0.018 -0.334  0.112    0.039  0.616 -0.189
 H          0.160  0.181 -0.067   -0.091 -0.102  0.038    0.159  0.176 -0.068
 TransDip  -0.033 -0.165  0.090   -0.017  0.027 -0.175    0.179  0.130 -0.079

 Mode:                55                     56                     57
 Frequency:      1457.16                1461.26                1474.52
 Force Cnst:      1.3906                 1.9468                 2.3387
 Red. Mass:       1.1115                 1.5475                 1.8256
 IR Active:          YES                    YES                    YES
 IR Intens:       18.290                 73.475                 10.666
 Raman Active:       YES                    YES                    YES
               X      Y      Z        X      Y      Z        X      Y      Z
 C          0.022  0.010  0.032    0.009 -0.010  0.013    0.107  0.061  0.170
 O          0.001 -0.005 -0.009   -0.000 -0.000 -0.004    0.004 -0.027 -0.044
 C         -0.021 -0.016 -0.002    0.006  0.013 -0.016   -0.062 -0.113 -0.076
 O          0.003  0.007  0.001   -0.003 -0.002  0.002   -0.004  0.029  0.022
 C         -0.048  0.047  0.041   -0.021 -0.020  0.008    0.026  0.017  0.002
 C          0.009  0.017 -0.001    0.083  0.025  0.012   -0.006 -0.011  0.008
 O         -0.001 -0.000 -0.001   -0.004 -0.001  0.002   -0.000 -0.000  0.001
 O         -0.000  0.000  0.001    0.002 -0.001 -0.002    0.000 -0.000 -0.001
 C         -0.003 -0.001  0.006   -0.143 -0.108 -0.040    0.005  0.002  0.003
 O          0.000 -0.001 -0.001    0.014  0.032  0.007   -0.001 -0.001 -0.000
 O          0.001 -0.002 -0.001    0.020  0.051 -0.004   -0.000 -0.001 -0.000
 H          0.015  0.055  0.127   -0.011 -0.002 -0.031   -0.017 -0.042 -0.115
 H         -0.066  0.061 -0.027   -0.020  0.019 -0.009   -0.335  0.325 -0.140
 H          0.592 -0.356  0.072    0.078  0.070 -0.062   -0.104  0.259 -0.083
 H          0.037 -0.334 -0.576   -0.016  0.005  0.032   -0.064  0.047  0.201
 H         -0.051 -0.016  0.028   -0.201 -0.082 -0.062    0.063  0.033 -0.047
 H         -0.027 -0.002 -0.013    0.754  0.269 -0.069   -0.020 -0.005 -0.004
 H         -0.001 -0.001  0.000    0.088 -0.239  0.206   -0.004  0.016 -0.014
 H          0.014  0.009 -0.010   -0.234 -0.163  0.200    0.003  0.002 -0.003
 O         -0.003 -0.002 -0.002   -0.006 -0.001  0.001   -0.014 -0.011 -0.011
 O         -0.005 -0.004 -0.001    0.001 -0.000  0.001   -0.000  0.018  0.001
 O          0.004  0.003 -0.007   -0.001 -0.001  0.002    0.003 -0.004  0.012
 H          0.051 -0.019 -0.054   -0.018  0.006  0.018    0.209 -0.084 -0.219
 H         -0.095 -0.032 -0.116   -0.001  0.082 -0.034   -0.416 -0.125 -0.492
 H          0.013  0.012 -0.007    0.023  0.024 -0.010    0.055  0.049 -0.031
 TransDip   0.082 -0.106 -0.027   -0.190 -0.173  0.098    0.063  0.083 -0.011

 Mode:                58                     59                     60
 Frequency:      1507.29                3087.80                3101.55
 Force Cnst:      1.4628                 6.1081                 6.1131
 Red. Mass:       1.0928                 1.0873                 1.0786
 IR Active:          YES                    YES                    YES
 IR Intens:       88.420                 38.322                  8.118
 Raman Active:       YES                    YES                    YES
               X      Y      Z        X      Y      Z        X      Y      Z
 C          0.007  0.002  0.009   -0.066  0.017  0.048    0.012 -0.003 -0.009
 O         -0.000 -0.001 -0.002    0.000 -0.000 -0.001   -0.000 -0.000  0.000
 C         -0.003 -0.013  0.001   -0.001 -0.000 -0.000   -0.000 -0.000  0.000
 O          0.002  0.002  0.000    0.000 -0.000 -0.000    0.000  0.000 -0.000
 C          0.006 -0.003 -0.004   -0.001  0.002  0.001   -0.016  0.032  0.022
 C         -0.001 -0.000 -0.003    0.007 -0.016 -0.005    0.021 -0.048 -0.015
 O          0.000 -0.000  0.001    0.000 -0.000 -0.000    0.000 -0.000 -0.000
 O          0.000 -0.000 -0.000   -0.000  0.000  0.000   -0.000  0.000  0.000
 C         -0.001 -0.001 -0.014   -0.001  0.004  0.002   -0.013  0.034  0.013
 O         -0.002  0.003 -0.001   -0.000  0.000 -0.000   -0.000 -0.000 -0.000
 O         -0.001 -0.001  0.002   -0.000 -0.000  0.000   -0.000 -0.001 -0.000
 H          0.260  0.235  0.913    0.000  0.000 -0.000    0.001  0.001 -0.001
 H         -0.016  0.016 -0.007   -0.000  0.006  0.000    0.000 -0.002  0.000
 H         -0.094  0.075 -0.017   -0.005 -0.009 -0.020   -0.100 -0.192 -0.406
 H         -0.000  0.062  0.083    0.013 -0.009  0.008    0.277 -0.175  0.150
 H          0.013  0.007 -0.004   -0.085  0.192  0.054   -0.250  0.568  0.162
 H          0.013 -0.017  0.043    0.021 -0.050 -0.019    0.166 -0.395 -0.150
 H          0.002 -0.060  0.056   -0.000  0.001 -0.000    0.001  0.003 -0.002
 H         -0.001 -0.001  0.003   -0.001  0.001  0.001   -0.003  0.009  0.003
 O         -0.001  0.000 -0.000    0.001 -0.000  0.000   -0.000  0.000 -0.000
 O         -0.034 -0.030 -0.008   -0.000  0.000  0.000   -0.000 -0.000  0.000
 O          0.019  0.019 -0.049    0.000 -0.000  0.000   -0.000 -0.000  0.000
 H          0.018 -0.006 -0.018    0.001  0.000 -0.002    0.000 -0.000 -0.001
 H         -0.017 -0.009 -0.020    0.777 -0.190 -0.549   -0.150  0.037  0.105
 H          0.007  0.007 -0.001   -0.009 -0.002 -0.001    0.002  0.000  0.000
 TransDip   0.099  0.064  0.277   -0.186  0.009  0.069    0.000  0.078  0.047

 Mode:                61                     62                     63
 Frequency:      3104.38                3115.56                3147.66
 Force Cnst:      6.0785                 6.2165                 6.4333
 Red. Mass:       1.0705                 1.0870                 1.1021
 IR Active:          YES                    YES                    YES
 IR Intens:        0.890                 34.955                  1.167
 Raman Active:       YES                    YES                    YES
               X      Y      Z        X      Y      Z        X      Y      Z
 C          0.006 -0.001 -0.004    0.006 -0.002 -0.004   -0.000  0.001 -0.000
 O          0.000  0.000  0.000    0.000  0.000  0.000   -0.000 -0.000 -0.000
 C          0.001 -0.000 -0.001    0.000 -0.000 -0.000   -0.001 -0.000 -0.001
 O         -0.000 -0.000  0.000   -0.000  0.000  0.000    0.000 -0.000  0.000
 C          0.020 -0.043 -0.031    0.003 -0.007 -0.005   -0.060  0.012 -0.069
 C          0.012 -0.027 -0.008    0.021 -0.046 -0.014   -0.001  0.001  0.000
 O          0.000 -0.000  0.000    0.000 -0.000  0.000   -0.000 -0.000 -0.000
 O         -0.000  0.000  0.000   -0.000  0.000  0.000    0.000  0.000  0.000
 C         -0.014  0.034  0.013    0.024 -0.057 -0.022    0.000 -0.000 -0.000
 O         -0.000 -0.000 -0.000    0.000  0.001  0.000   -0.000  0.000  0.000
 O          0.000 -0.001 -0.000   -0.000  0.001  0.000    0.000  0.000  0.000
 H          0.001 -0.000 -0.001   -0.004 -0.004  0.001    0.001 -0.002  0.001
 H         -0.000  0.000 -0.000   -0.000 -0.000 -0.000   -0.000 -0.001 -0.000
 H          0.140  0.269  0.569    0.021  0.044  0.098    0.119  0.258  0.523
 H         -0.370  0.231 -0.197   -0.064  0.038 -0.031    0.616 -0.399  0.313
 H         -0.146  0.323  0.093   -0.240  0.559  0.162    0.004 -0.009 -0.004
 H          0.168 -0.395 -0.150   -0.271  0.658  0.251   -0.002  0.006  0.003
 H          0.001  0.003 -0.001   -0.003 -0.004  0.001   -0.000 -0.001 -0.000
 H         -0.002  0.008  0.002   -0.003 -0.014 -0.001   -0.000 -0.000 -0.000
 O         -0.000 -0.000 -0.000   -0.000  0.000  0.000    0.000 -0.000  0.000
 O         -0.000  0.000 -0.000   -0.000 -0.000  0.000    0.000 -0.000  0.000
 O         -0.000  0.000 -0.000    0.000  0.000 -0.000   -0.000  0.000 -0.000
 H         -0.000  0.001  0.001    0.000  0.000  0.000    0.000 -0.001  0.001
 H         -0.069  0.017  0.048   -0.074  0.018  0.051    0.002 -0.001 -0.002
 H          0.001  0.000  0.000    0.001  0.000  0.000    0.000 -0.000  0.000
 TransDip   0.005  0.017 -0.024    0.127 -0.136 -0.033   -0.011 -0.004 -0.032

 Mode:                64                     65                     66
 Frequency:      3543.45                3743.49                3784.68
 Force Cnst:      7.9172                 8.7951                 8.9973
 Red. Mass:       1.0702                 1.0652                 1.0661
 IR Active:          YES                    YES                    YES
 IR Intens:      716.158                176.426                119.877
 Raman Active:       YES                    YES                    YES
               X      Y      Z        X      Y      Z        X      Y      Z
 C          0.000 -0.000 -0.000    0.000  0.000 -0.000    0.000  0.000  0.000
 O          0.000 -0.000  0.000    0.000  0.000  0.000   -0.000  0.000  0.000
 C         -0.001  0.001  0.000   -0.001 -0.001  0.001   -0.000  0.000 -0.000
 O          0.000 -0.000 -0.000   -0.027 -0.056  0.001   -0.000 -0.000  0.000
 C          0.000 -0.000 -0.000    0.000  0.000 -0.000   -0.000 -0.000 -0.000
 C          0.000 -0.000  0.000    0.000  0.000  0.000   -0.000  0.000  0.000
 O         -0.000 -0.000 -0.000    0.000  0.000 -0.000    0.000 -0.000  0.000
 O         -0.000  0.000  0.000    0.000 -0.000 -0.000   -0.000 -0.000 -0.000
 C          0.001 -0.001  0.002   -0.000 -0.000 -0.000    0.000 -0.002 -0.001
 O         -0.001 -0.000 -0.002    0.000 -0.000 -0.000   -0.001 -0.001 -0.001
 O          0.000  0.001 -0.000   -0.000  0.000  0.000    0.023 -0.052 -0.026
 H          0.698  0.639 -0.316   -0.004 -0.003  0.002    0.004  0.004 -0.002
 H          0.001  0.000  0.002   -0.001 -0.001 -0.003   -0.000 -0.000 -0.000
 H          0.001  0.000  0.001    0.000  0.000 -0.000    0.000 -0.000  0.000
 H         -0.000 -0.001  0.000    0.001 -0.000 -0.000   -0.000 -0.000  0.000
 H         -0.001  0.002  0.000   -0.000 -0.000 -0.000    0.002 -0.001 -0.000
 H         -0.003  0.005 -0.001    0.000  0.000  0.000   -0.006  0.013  0.007
 H          0.010  0.017  0.010    0.000  0.000  0.000    0.014  0.017  0.017
 H          0.002 -0.006 -0.002    0.000 -0.001 -0.000   -0.363  0.832  0.414
 O          0.000 -0.000  0.000    0.001 -0.001  0.000   -0.000  0.000 -0.000
 O          0.001  0.000  0.001    0.000 -0.000 -0.000    0.000 -0.000  0.000
 O         -0.045 -0.042  0.019    0.000  0.000 -0.000   -0.000 -0.000  0.000
 H          0.002  0.005  0.000    0.432  0.899 -0.024    0.000  0.001  0.000
 H         -0.000  0.000  0.000   -0.001 -0.002 -0.000   -0.000  0.000 -0.000
 H         -0.002  0.001 -0.000   -0.015  0.015 -0.002    0.000 -0.000  0.000
 TransDip   0.588  0.586 -0.215    0.213  0.368  0.006   -0.174  0.237  0.191

 Mode:                67                     68                     69
 Frequency:      3816.95                3820.37                3824.35
 Force Cnst:      9.1560                 9.1705                 9.1910
 Red. Mass:       1.0666                 1.0664                 1.0666
 IR Active:          YES                    YES                    YES
 IR Intens:      173.352                160.548                154.488
 Raman Active:       YES                    YES                    YES
               X      Y      Z        X      Y      Z        X      Y      Z
 C         -0.000 -0.000 -0.000    0.000 -0.001 -0.001    0.002 -0.000 -0.000
 O         -0.000 -0.000 -0.000   -0.009 -0.024 -0.057   -0.001 -0.002 -0.006
 C         -0.000 -0.000  0.000    0.000 -0.000  0.000    0.000  0.000 -0.000
 O          0.000  0.000 -0.000   -0.000 -0.000  0.000    0.001  0.001  0.000
 C          0.000 -0.000 -0.000    0.000  0.000  0.000    0.000 -0.000  0.000
 C          0.000 -0.000  0.000   -0.000 -0.000 -0.000   -0.000 -0.000  0.000
 O          0.000  0.000  0.000    0.000 -0.000 -0.000    0.000 -0.000 -0.000
 O          0.000 -0.000 -0.000   -0.000 -0.000 -0.000   -0.000  0.000 -0.000
 C          0.000 -0.001 -0.001   -0.000  0.000 -0.000   -0.000  0.000 -0.000
 O         -0.030 -0.037 -0.040    0.000  0.000  0.000    0.000  0.000  0.000
 O         -0.001  0.001  0.001    0.000 -0.000 -0.000    0.000 -0.000 -0.000
 H         -0.014 -0.015  0.007   -0.001 -0.001  0.000   -0.001 -0.001  0.001
 H          0.000  0.001  0.003    0.135  0.391  0.903    0.014  0.039  0.091
 H         -0.000  0.000  0.001    0.000  0.000  0.000    0.000  0.001  0.000
 H          0.000  0.000  0.000    0.000 -0.000  0.000   -0.000  0.000 -0.000
 H         -0.000  0.001  0.000   -0.000 -0.000  0.000   -0.000 -0.000  0.000
 H          0.001  0.002  0.005    0.000  0.000 -0.000    0.000  0.000  0.000
 H          0.481  0.607  0.629   -0.002 -0.002 -0.002   -0.002 -0.002 -0.002
 H          0.010 -0.023 -0.012   -0.000  0.000  0.000   -0.000  0.001  0.000
 O          0.000 -0.000  0.000   -0.004  0.004 -0.001    0.042 -0.046  0.007
 O         -0.000 -0.000 -0.000    0.000  0.000  0.000    0.000  0.000  0.000
 O          0.001  0.001 -0.000    0.000  0.000  0.000    0.000  0.000 -0.000
 H         -0.000 -0.000 -0.000    0.002  0.004 -0.000   -0.008 -0.019 -0.001
 H          0.000 -0.000  0.000    0.001 -0.001  0.005   -0.003  0.005  0.001
 H         -0.002  0.002 -0.000    0.069 -0.072  0.011   -0.686  0.711 -0.102
 TransDip   0.205  0.178  0.322    0.127  0.048  0.383   -0.191  0.349 -0.002

 STANDARD THERMODYNAMIC QUANTITIES AT   298.15 K  AND     1.00 ATM

   This Molecule has  0 Imaginary Frequencies
   Zero point vibrational energy:      119.369 kcal/mol

   Atom    1 Element C  Has Mass   12.00000
   Atom    2 Element O  Has Mass   15.99491
   Atom    3 Element C  Has Mass   12.00000
   Atom    4 Element O  Has Mass   15.99491
   Atom    5 Element C  Has Mass   12.00000
   Atom    6 Element C  Has Mass   12.00000
   Atom    7 Element O  Has Mass   15.99491
   Atom    8 Element O  Has Mass   15.99491
   Atom    9 Element C  Has Mass   12.00000
   Atom   10 Element O  Has Mass   15.99491
   Atom   11 Element O  Has Mass   15.99491
   Atom   12 Element H  Has Mass    1.00783
   Atom   13 Element H  Has Mass    1.00783
   Atom   14 Element H  Has Mass    1.00783
   Atom   15 Element H  Has Mass    1.00783
   Atom   16 Element H  Has Mass    1.00783
   Atom   17 Element H  Has Mass    1.00783
   Atom   18 Element H  Has Mass    1.00783
   Atom   19 Element H  Has Mass    1.00783
   Atom   20 Element O  Has Mass   15.99491
   Atom   21 Element O  Has Mass   15.99491
   Atom   22 Element O  Has Mass   15.99491
   Atom   23 Element H  Has Mass    1.00783
   Atom   24 Element H  Has Mass    1.00783
   Atom   25 Element H  Has Mass    1.00783
   Molecular Mass:   215.040320 amu
   Principal axes and moments of inertia in amu*Bohr^2:
                             1           2           3
    Eigenvalues --     1889.21321  3466.46118  4681.90067
          X               0.72574     0.36722    -0.58177
          Y               0.65242    -0.09905     0.75136
          Z              -0.21829     0.92484     0.31147
   Rotational Symmetry Number is   1
   The Molecule is an Asymmetric Top
   Translational Enthalpy:        0.889 kcal/mol
   Rotational Enthalpy:           0.889 kcal/mol
   Vibrational Enthalpy:        127.526 kcal/mol
   gas constant (RT):             0.592 kcal/mol
   Translational Entropy:        42.000  cal/mol.K
   Rotational Entropy:           31.794  cal/mol.K
   Vibrational Entropy:          52.289  cal/mol.K

   Total Enthalpy:              129.896 kcal/mol
   Total Entropy:               126.084  cal/mol.K
 Total job time:  78404.50s(wall), 1090278.30s(cpu) 
 Fri Jun 28 11:42:53 2024

        *************************************************************
        *                                                           *
        *  Thank you very much for using Q-Chem.  Have a nice day.  *
        *                                                           *
        *************************************************************


