
Running Job 1 of 1 Q_in.in
qchem Q_in.in_119100.0 /scratch/ari.fischer/qChem2183390.hpc-mn1/qchem119100/ 0
/usr/local/qchem-5.4.1/exe/qcprog.exe_s Q_in.in_119100.0 /scratch/ari.fischer/qChem2183390.hpc-mn1/qchem119100/
                  Welcome to Q-Chem
     A Quantum Leap Into The Future Of Chemistry


 Q-Chem 5.4, Q-Chem, Inc., Pleasanton, CA (2021)

 License issued to: Nanyang Technological University (site)

 E. Epifanovsky,  A. T. B. Gilbert,  Xintian Feng,  Joonho Lee,  Yuezhi Mao,  
 N. Mardirossian,  P. Pokhilko,  A. White,  M. Wormit,  M. P. Coons,  
 A. L. Dempwolff,  Zhengting Gan,  D. Hait,  P. R. Horn,  L. D. Jacobson,  
 I. Kaliman,  J. Kussmann,  A. W. Lange,  Ka Un Lao,  D. S. Levine,  Jie Liu,  
 S. C. McKenzie,  A. F. Morrison,  K. Nanda,  F. Plasser,  D. R. Rehn,  
 M. L. Vidal,  Zhi-Qiang You,  Ying Zhu,  B. Alam,  B. Albrecht,  
 A. Aldossary,  E. Alguire,  J. H. Andersen,  D. Barton,  K. Begam,  A. Behn,  
 Y. A. Bernard,  E. J. Berquist,  H. Burton,  A. Carreras,  K. Carter-Fenk,  
 R. Chakraborty,  A. D. Chien,  K. D. Closser,  V. Cofer-Shabica,  
 S. Dasgupta,  Jia Deng,  M. de Wergifosse,  M. Diedenhofen,  Hainam Do,  
 S. Ehlert,  Po-Tung Fang,  S. Fatehi,  Qingguo Feng,  T. Friedhoff,  
 J. Gayvert,  Qinghui Ge,  G. Gidofalvi,  M. Goldey,  J. Gomes,  
 C. Gonzalez-Espinoza,  S. Gulania,  A. Gunina,  M. W. D. Hanson-Heine,  
 P. H. P. Harbach,  A. W. Hauser,  M. F. Herbst,  M. Hernandez Vera,  
 M. Hodecker,  Z. C. Holden,  S. Houck,  Xunkun Huang,  Kerwin Hui,  
 B. C. Huynh,  M. Ivanov,  Hyunjun Ji,  Hanjie Jiang,  B. Kaduk,  S. Kaehler,  
 K. Khistyaev,  Jaehoon Kim,  P. Klunzinger,  Z. Koczor-Benda,  
 Joong Hoon Koh,  D. Kosenkov,  L. Koulias,  T. Kowalczyk,  C. M. Krauter,  
 K. Kue,  A. Kunitsa,  T. Kus,  A. Landau,  K. V. Lawler,  D. Lefrancois,  
 S. Lehtola,  Rain Li,  Yi-Pei Li,  Jiashu Liang,  M. Liebenthal,  
 Hung-Hsuan Lin,  You-Sheng Lin,  Fenglai Liu,  Kuan-Yu Liu,  
 M. Loipersberger,  A. Luenser,  A. Manjanath,  P. Manohar,  E. Mansoor,  
 S. F. Manzer,  Shan-Ping Mao,  A. V. Marenich,  T. Markovich,  S. Mason,  
 S. A. Maurer,  P. F. McLaughlin,  M. F. S. J. Menger,  J.-M. Mewes,  
 S. A. Mewes,  P. Morgante,  J. W. Mullinax,  K. J. Oosterbaan,  G. Paran,  
 Alexander C. Paul,  Suranjan K. Paul,  F. Pavosevic,  Zheng Pei,  S. Prager,  
 E. I. Proynov,  E. Ramos,  B. Rana,  A. E. Rask,  A. Rettig,  R. M. Richard,  
 F. Rob,  E. Rossomme,  T. Scheele,  M. Scheurer,  M. Schneider,  
 N. Sergueev,  S. M. Sharada,  W. Skomorowski,  D. W. Small,  C. J. Stein,  
 Yu-Chuan Su,  E. J. Sundstrom,  Zhen Tao,  J. Thirman,  T. Tsuchimochi,  
 N. M. Tubman,  S. P. Veccham,  O. Vydrov,  J. Wenzel,  J. Witte,  A. Yamada,  
 Kun Yao,  S. Yeganeh,  S. R. Yost,  A. Zech,  Igor Ying Zhang,  Xing Zhang,  
 Yu Zhang,  D. Zuev,  A. Aspuru-Guzik,  A. T. Bell,  N. A. Besley,  
 K. B. Bravaya,  B. R. Brooks,  D. Casanova,  Jeng-Da Chai,  S. Coriani,  
 C. J. Cramer,  A. E. DePrince, III,  R. A. DiStasio Jr.,  A. Dreuw,  
 B. D. Dunietz,  T. R. Furlani,  W. A. Goddard III,  S. Grimme,  
 S. Hammes-Schiffer,  T. Head-Gordon,  W. J. Hehre,  Chao-Ping Hsu,  
 T.-C. Jagau,  Yousung Jung,  A. Klamt,  Jing Kong,  D. S. Lambrecht,  
 WanZhen Liang,  N. J. Mayhall,  C. W. McCurdy,  J. B. Neaton,  
 C. Ochsenfeld,  J. A. Parkhill,  R. Peverati,  V. A. Rassolov,  Yihan Shao,  
 L. V. Slipchenko,  T. Stauch,  R. P. Steele,  J. E. Subotnik,  
 A. J. W. Thom,  A. Tkatchenko,  D. G. Truhlar,  T. Van Voorhis,  
 T. A. Wesolowski,  K. B. Whaley,  H. L. Woodcock III,  P. M. Zimmerman,  
 S. Faraji,  P. M. W. Gill,  M. Head-Gordon,  J. M. Herbert,  A. I. Krylov

 Additional authors for Version 5.4.1: 
 S. Kotaru,  Shaozhi Li,  Xiangyuan Li,  F. Matz,  A. Molle,  Haisheng Ren,  
 Yingli Su,  Hung-Yi Tsai,  C. Utku,  Fang Wang

 Contributors to earlier versions of Q-Chem not listed above: 
 R. D. Adamson,  B. Austin,  R. Baer,  J. Baker,  G. J. O. Beran,  
 K. Brandhorst,  S. T. Brown,  E. F. C. Byrd,  A. K. Chakraborty,  
 G. K. L. Chan,  Chun-Min Chang,  Yunqing Chen,  C.-L. Cheng,  
 Siu Hung Chien,  D. M. Chipman,  D. L. Crittenden,  H. Dachsel,  
 R. J. Doerksen,  A. D. Dutoi,  R. G. Edgar,  J. Fosso-Tande,  
 L. Fusti-Molnar,  D. Ghosh,  A. Ghysels,  A. Golubeva-Zadorozhnaya,  
 J. Gonthier,  M. S. Gordon,  S. R. Gwaltney,  G. Hawkins,  J. E. Herr,  
 A. Heyden,  S. Hirata,  E. G. Hohenstein,  G. Kedziora,  F. J. Keil,  
 C. Kelley,  Jihan Kim,  R. A. King,  R. Z. Khaliullin,  P. P. Korambath,  
 W. Kurlancheek,  A. Laurent,  A. M. Lee,  M. S. Lee,  S. V. Levchenko,  
 Ching Yeh Lin,  D. Liotard,  E. Livshits,  R. C. Lochan,  I. Lotan,  
 L. A. Martinez-Martinez,  P. E. Maslen,  N. Nair,  D. P. O'Neill,  
 D. Neuhauser,  E. Neuscamman,  C. M. Oana,  R. Olivares-Amaya,  R. Olson,  
 T. M. Perrine,  B. Peters,  P. A. Pieniazek,  A. Prociuk,  Y. M. Rhee,  
 J. Ritchie,  M. A. Rohrdanz,  E. Rosta,  N. J. Russ,  H. F. Schaefer III,  
 M. W. Schmidt,  N. E. Schultz,  S. Sharma,  N. Shenvi,  C. D. Sherrill,  
 A. C. Simmonett,  A. Sodt,  T. Stein,  D. Stuck,  K. S. Thanthiriwatte,  
 V. Vanovschi,  L. Vogt,  Tao Wang,  A. Warshel,  M. A. Watson,  
 C. F. Williams,  Q. Wu,  X. Xu,  Jun Yang,  W. Zhang,  Yan Zhao

 Please cite Q-Chem as follows:
 Y. Shao et al., Mol. Phys. 113, 184-215 (2015)
 DOI: 10.1080/00268976.2014.952696

 Q-Chem 5.4.1 for Intel X86 EM64T Linux

 Parts of Q-Chem use Armadillo 9.800.1 (Horizon Scraper).
 http://arma.sourceforge.net/

 Q-Chem begins on Sat Jun 22 19:15:15 2024  

 Host: 
0

     Scratch files written to /scratch/ari.fischer/qChem2183390.hpc-mn1/qchem119100//
 Aug1521 |scratch|qcdevops|jenkins|workspace|build_RNUM 8249   
 Processing $rem in /usr/local/qchem-5.4.1/config/preferences:
 Processing $rem in /home/ari.fischer/.qchemrc:
 Symmetry turned off for PCM/SM12/SMD calculation

 Checking the input file for inconsistencies... 	...done.

--------------------------------------------------------------
User input:
--------------------------------------------------------------
$molecule
0 2
C         2.7064859367   -0.3971484771   -0.3595752768
O         1.8047174567    0.4009983946   -1.0661511421
C         3.1110067550    0.3891610057    0.9063393986
O         2.0508812892    0.3959425261    1.8159268167
C         3.5226046138    1.8305616773    0.6563322905
C         4.7269260531    1.9537792497   -0.2705547885
O         4.2523820389    2.5580330455   -1.5084054329
O         5.0080532754    2.2300508606   -2.5292921602
C         5.8326650325    2.8284347941    0.3236728031
O         6.3617769252    2.0475925109    1.3796376928
O         6.8163713726    3.1831361623   -0.6079195040
H         5.3661422305    0.8045398372    2.2945419956
H         1.6410077403   -0.0381429722   -1.9177122719
H         3.7365931416    2.2908322865    1.6251740018
H         2.6760671502    2.3705534947    0.2252069577
H         5.1647196504    0.9890302467   -0.5443081207
H         5.4234585514    3.7708643930    0.6992004271
H         6.8402864306    2.6402435264    1.9835126469
H         7.1555131792    2.3625199586   -1.0080221330
O         2.0344155940   -1.5808443365    0.0365530649
O         4.2147819736   -0.3882995251    1.3912197168
O         4.6773922414    0.1799123929    2.6249087022
H         1.6383911909   -0.4872800096    1.7304795164
H         3.5870503359   -0.6506102531   -0.9616059007
H         2.7099493406   -2.2375447890    0.2786259993
$end

$rem
BASIS = 6-311++G(2df,2p)
GUI = 2
JOB_TYPE = Optimization
METHOD = wB97M-V
SCF_ALGORITHM = DIIS_GDM
MAX_SCF_CYCLES = 400
GEOM_OPT_MAX_CYCLES = 150
SCF_CONVERGENCE = 7
THRESH = 12
Solvent_method = SMD
$end
--------------------------------------------------------------
 ----------------------------------------------------------------
             Standard Nuclear Orientation (Angstroms)
    I     Atom           X                Y                Z
 ----------------------------------------------------------------
    1      C       2.7064859367    -0.3971484771    -0.3595752768
    2      O       1.8047174567     0.4009983946    -1.0661511421
    3      C       3.1110067550     0.3891610057     0.9063393986
    4      O       2.0508812892     0.3959425261     1.8159268167
    5      C       3.5226046138     1.8305616773     0.6563322905
    6      C       4.7269260531     1.9537792497    -0.2705547885
    7      O       4.2523820389     2.5580330455    -1.5084054329
    8      O       5.0080532754     2.2300508606    -2.5292921602
    9      C       5.8326650325     2.8284347941     0.3236728031
   10      O       6.3617769252     2.0475925109     1.3796376928
   11      O       6.8163713726     3.1831361623    -0.6079195040
   12      H       5.3661422305     0.8045398372     2.2945419956
   13      H       1.6410077403    -0.0381429722    -1.9177122719
   14      H       3.7365931416     2.2908322865     1.6251740018
   15      H       2.6760671502     2.3705534947     0.2252069577
   16      H       5.1647196504     0.9890302467    -0.5443081207
   17      H       5.4234585514     3.7708643930     0.6992004271
   18      H       6.8402864306     2.6402435264     1.9835126469
   19      H       7.1555131792     2.3625199586    -1.0080221330
   20      O       2.0344155940    -1.5808443365     0.0365530649
   21      O       4.2147819736    -0.3882995251     1.3912197168
   22      O       4.6773922414     0.1799123929     2.6249087022
   23      H       1.6383911909    -0.4872800096     1.7304795164
   24      H       3.5870503359    -0.6506102531    -0.9616059007
   25      H       2.7099493406    -2.2375447890     0.2786259993
 ----------------------------------------------------------------
 Nuclear Repulsion Energy =        1088.47374945 hartrees
 There are       57 alpha and       56 beta electrons
 Requested basis set is 6-311++G(2df,2p)
 There are 178 shells and 586 basis functions

 Total QAlloc Memory Limit 288000 MB
 Mega-Array Size       188 MB
 MEM_STATIC part       192 MB
 
 Citation of the SMD model:
 Marenich, A.V.; Cramer, C.J.; Truhlar, D.G.
 J. Phys. Chem. B 2009, 113, 6378-6396.
 iSolventCode=           1
 Solvent: water                                                           
 
 vradii
            1           2           3           4           5           6
    1   1.8500000   1.5200000   1.8500000   1.5200000   1.8500000   1.8500000
            7           8           9          10          11          12
    1   1.5200000   1.5200000   1.8500000   1.5200000   1.5200000   1.2000000
           13          14          15          16          17          18
    1   1.2000000   1.2000000   1.2000000   1.2000000   1.2000000   1.2000000
           19          20          21          22          23          24
    1   1.2000000   1.5200000   1.5200000   1.5200000   1.2000000   1.2000000
           25
    1   1.2000000
 Changing PCM_VDW_RADII to SMD_RADIUS
 Discretize the solute cavity surface with Lebedev spheres
	Using 110 Lebedev grid points for each H atom
	Using 194 Lebedev grid points for other atoms
	Atomic van der Waals radii will be scaled by 1.20
 Remove points where switching function is < 1.0e-08
 Keep 1908 surface tesserae and discard 2018 interior tesserae
 Molecular Surface Area = 205.121 Angst**2
 A cutoff of  1.0D-12 yielded  13231 shell pairs
 There are    140144 function pairs (    173307 Cartesian)
 Smallest overlap matrix eigenvalue = 4.65E-06

 Scale SEOQF with 1.000000e-02/1.000000e-01/1.000000e-01

 Standard Electronic Orientation quadrupole field applied
 Nucleus-field energy     =     0.0000000101 hartrees
 Guess from superposition of atomic densities
 Warning:  Energy on first SCF cycle will be non-variational
 SAD guess density has 113.000000 electrons

 -----------------------------------------------------------------------
  General SCF calculation program by
  Eric Jon Sundstrom, Paul Horn, Yuezhi Mao, Dmitri Zuev, Alec White,
  David Stuck, Shaama M.S., Shane Yost, Joonho Lee, David Small,
  Daniel Levine, Susi Lehtola, Hugh Burton, Evgeny Epifanovsky,
  Bang C. Huynh
 -----------------------------------------------------------------------
 Exchange:     0.1500 Hartree-Fock + 1.0000 wB97M-V + LR-HF
 Correlation:  1.0000 wB97M-V
 Using SG-2 standard quadrature grid
 Nonlocal Correlation:  VV10 with C = 0.0100 and b = 6.00 and scale = 1.00000
 Grid used for NLC:  SG-1 standard quadrature
 
 Citation of the SMD model:
 Marenich, A.V.; Cramer, C.J.; Truhlar, D.G.
 J. Phys. Chem. B 2009, 113, 6378-6396.
 iSolventCode=           1
 Solvent: water                                                           
 
 vradii
            1           2           3           4           5           6
    1   1.8500000   1.5200000   1.8500000   1.5200000   1.8500000   1.8500000
            7           8           9          10          11          12
    1   1.5200000   1.5200000   1.8500000   1.5200000   1.5200000   1.2000000
           13          14          15          16          17          18
    1   1.2000000   1.2000000   1.2000000   1.2000000   1.2000000   1.2000000
           19          20          21          22          23          24
    1   1.2000000   1.5200000   1.5200000   1.5200000   1.2000000   1.2000000
           25
    1   1.2000000
 using 16 threads for integral computing
 -------------------------------------------------------
 OpenMP Integral computing Module                
 Release: version 1.0, May 2013, Q-Chem Inc. Pittsburgh 
 -------------------------------------------------------
 -------------------------------------------------------
 OpenMP BLAS3 based DFT computing Module                
 Release: version 1.0, May 2013, Q-Chem Inc. Pittsburgh 
 -------------------------------------------------------
 A unrestricted SCF calculation will be
 performed using DIIS, GDM
 SCF converges when RMS gradient is below 1.0e-07
 ---------------------------------------
  Cycle       Energy         DIIS error
 ---------------------------------------
    1    -876.7741242551      1.02e-02  
    2    -873.7862806160      1.37e-03  Done DIIS. Switching to GDM
 ---------------------------------------
  Cycle       Energy        RMS Gradient
 ---------------------------------------
    1    -873.7862806160      1.08e-01   Descent step
    2    -873.9907492185      3.13e-02   Normal BFGS step
    3    -874.0369174706      2.86e-02   Normal BFGS step
    4    -874.0396069488      2.03e-02   Normal BFGS step
    5    -874.0427898527      5.18e-03   Normal BFGS step
    6    -874.0430264228      3.98e-03   Normal BFGS step
    7    -874.0431427841      2.67e-03   Normal BFGS step
    8    -874.0431709609      9.92e-04   Normal BFGS step
    9    -874.0431781223      6.13e-04   Normal BFGS step
   10    -874.0431803916      3.11e-04   Normal BFGS step
   11    -874.0431808399      3.22e-04   Normal BFGS step
   12    -874.0431810794      2.79e-04   Normal BFGS step
   13    -874.0431812724      2.10e-04   Normal BFGS step
   14    -874.0431814746      7.66e-05   Normal BFGS step
   15    -874.0431815113      2.23e-05   Normal BFGS step
   16    -874.0431815218      4.98e-06   Normal BFGS step
   17    -874.0431815226      2.59e-06   Normal BFGS step
   18    -874.0431815228      1.36e-06   Normal BFGS step
   19    -874.0431815229      5.43e-07   Normal BFGS step
   20    -874.0431815229      1.80e-07   Normal BFGS step
   21    -874.0431815231      7.55e-08  Convergence criterion met
 ---------------------------------------
 SCF time:   CPU 6185.79s  wall 433.00s 
<S^2> =          0.753954449
(3)  G-ENP(liq) elect-nuc-pol free energy of system     -874.043181523 a.u.
(4)  G-CDS(liq) cavity-dispersion-solvent structure 
     free energy                                                3.7939 kcal/mol
(6)  G-S(liq) free energy of system                     -874.037135531 a.u.
 SCF   energy in the final basis set =     -874.0371355315
 Total energy in the final basis set =     -874.0371355315
 
 --------------------------------------------------------------
 
                    Orbital Energies (a.u.)
 --------------------------------------------------------------
 
 Alpha MOs
 -- Occupied --
-19.4666 -19.4197 -19.4040 -19.3895 -19.3620 -19.3552 -19.3546 -19.3528
-19.3514 -10.4624 -10.4591 -10.4570 -10.4176 -10.3542  -1.3420  -1.2735
 -1.2158  -1.2120  -1.1722  -1.1452  -1.1430  -1.0440  -1.0291  -0.9100
 -0.8516  -0.8094  -0.7577  -0.7163  -0.6892  -0.6823  -0.6642  -0.6570
 -0.6445  -0.6393  -0.6155  -0.6082  -0.5986  -0.5881  -0.5750  -0.5510
 -0.5456  -0.5275  -0.5264  -0.5012  -0.4882  -0.4768  -0.4650  -0.4596
 -0.4483  -0.4445  -0.4279  -0.4255  -0.4108  -0.4082  -0.4040  -0.3952
 -0.3854
 -- Virtual --
  0.0258   0.0326   0.0382   0.0438   0.0546   0.0574   0.0646   0.0712
  0.0806   0.0848   0.0982   0.1057   0.1099   0.1197   0.1219   0.1303
  0.1365   0.1428   0.1480   0.1491   0.1546   0.1574   0.1591   0.1632
  0.1708   0.1739   0.1794   0.1805   0.1868   0.1984   0.2056   0.2148
  0.2215   0.2277   0.2376   0.2429   0.2480   0.2548   0.2592   0.2630
  0.2684   0.2773   0.2826   0.2834   0.2851   0.2947   0.2974   0.3011
  0.3040   0.3101   0.3142   0.3194   0.3270   0.3298   0.3351   0.3380
  0.3417   0.3500   0.3572   0.3583   0.3614   0.3638   0.3684   0.3708
  0.3804   0.3845   0.3872   0.3945   0.3998   0.4037   0.4094   0.4127
  0.4145   0.4225   0.4240   0.4318   0.4332   0.4407   0.4476   0.4555
  0.4589   0.4655   0.4737   0.4763   0.4848   0.4949   0.5044   0.5151
  0.5237   0.5290   0.5519   0.5751   0.5916   0.5970   0.6047   0.6181
  0.6266   0.6426   0.6507   0.6618   0.6740   0.6782   0.6797   0.6863
  0.7035   0.7064   0.7163   0.7261   0.7318   0.7446   0.7457   0.7525
  0.7666   0.7697   0.7851   0.7935   0.7977   0.8157   0.8354   0.8584
  0.8610   0.8777   0.8855   0.9024   0.9220   0.9502   0.9611   0.9674
  0.9794   0.9887   1.0061   1.0175   1.0302   1.0449   1.0581   1.0655
  1.0737   1.0937   1.1031   1.1088   1.1117   1.1318   1.1427   1.1488
  1.1540   1.1618   1.1633   1.1712   1.1806   1.1949   1.1964   1.1989
  1.2028   1.2093   1.2237   1.2249   1.2349   1.2406   1.2542   1.2589
  1.2608   1.2675   1.2738   1.2793   1.2861   1.3023   1.3060   1.3234
  1.3282   1.3367   1.3523   1.3634   1.3660   1.3738   1.3804   1.3946
  1.4061   1.4282   1.4334   1.4530   1.4600   1.4705   1.4774   1.4912
  1.4953   1.5034   1.5192   1.5219   1.5326   1.5401   1.5511   1.5616
  1.5737   1.5787   1.5942   1.6037   1.6180   1.6224   1.6417   1.6540
  1.6616   1.6727   1.6853   1.6955   1.7085   1.7115   1.7312   1.7362
  1.7492   1.7598   1.7817   1.7922   1.7977   1.8124   1.8310   1.8593
  1.8699   1.8831   1.8885   1.9258   1.9381   1.9483   1.9614   1.9754
  2.0006   2.0065   2.0295   2.0474   2.0773   2.0845   2.1025   2.1225
  2.1496   2.1790   2.2113   2.2205   2.2438   2.2511   2.2729   2.2798
  2.3066   2.3293   2.3569   2.3699   2.3868   2.4042   2.4076   2.4224
  2.4353   2.4515   2.4696   2.4870   2.4972   2.5067   2.5202   2.5382
  2.5779   2.6100   2.6305   2.6681   2.7267   2.7394   2.7552   2.7789
  2.7942   2.8352   2.8538   2.8667   2.9054   2.9214   2.9383   2.9514
  2.9675   2.9866   3.0264   3.0483   3.0739   3.0894   3.1165   3.1333
  3.1506   3.1758   3.1905   3.2150   3.2585   3.2671   3.2731   3.2813
  3.3331   3.3567   3.3729   3.3808   3.4016   3.4103   3.4434   3.4533
  3.4602   3.4892   3.5303   3.5429   3.5610   3.5633   3.5857   3.5940
  3.6082   3.6379   3.6573   3.6738   3.6851   3.7018   3.7198   3.7284
  3.7449   3.7535   3.7738   3.7999   3.8105   3.8174   3.8373   3.8473
  3.8597   3.8629   3.8851   3.8931   3.8952   3.9109   3.9249   3.9330
  3.9479   3.9743   3.9812   3.9941   4.0130   4.0242   4.0350   4.0441
  4.0890   4.1021   4.1200   4.1424   4.1512   4.1711   4.1923   4.2159
  4.2204   4.2414   4.2422   4.2579   4.2701   4.3023   4.3145   4.3260
  4.3501   4.3514   4.3755   4.3916   4.4081   4.4230   4.4348   4.4409
  4.4808   4.4955   4.5275   4.5595   4.5792   4.5925   4.6007   4.6191
  4.6288   4.6650   4.7018   4.7038   4.7337   4.7422   4.7853   4.8355
  4.8675   4.8993   4.9166   4.9398   5.0005   5.0431   5.0707   5.0952
  5.0981   5.0989   5.1138   5.1763   5.1983   5.2096   5.2343   5.2484
  5.2520   5.2621   5.2726   5.2768   5.2909   5.2955   5.3052   5.3178
  5.3266   5.3295   5.3323   5.3425   5.3531   5.3655   5.3684   5.3967
  5.4026   5.4118   5.4231   5.4369   5.4508   5.4541   5.4773   5.4871
  5.4963   5.5103   5.5285   5.5357   5.5409   5.5577   5.5801   5.5986
  5.6103   5.6139   5.6183   5.6339   5.6450   5.6501   5.6561   5.6762
  5.6982   5.7075   5.7522   5.7657   5.7882   5.7950   5.8222   5.8374
  5.8775   5.8837   5.9393   5.9672   6.0096   6.0246   6.0364   6.0724
  6.0986   6.1156   6.1392   6.1636   6.2616   6.4432   6.4964   6.5116
  6.5541   6.5745   6.5854   6.7560   6.7807   6.8023   6.8475   6.8544
  6.8989   6.9691   7.0197   7.0549   7.0824   7.0866   7.0934   7.1184
  7.1587   7.1636   7.1682   7.2160   7.2208   7.2259   7.2495   7.2516
  7.2637   7.2769   7.3049   7.3219   7.3363   7.3464   7.3531   7.3718
  7.3911   7.4000   7.4236   7.4261   7.4538   7.4638   7.4804   7.5294
  7.5558   7.5959   7.6159   7.6621   7.6942   7.7028   7.7474   7.7499
  7.7869   7.8162   7.8334   7.8638   7.9000   7.9284   7.9699   8.0295
  8.0422   8.1117   8.2313  24.6321  24.7073  24.7893  24.8214  24.8590
 50.4352  50.5141  50.5625  50.5928  50.6111  50.6308  50.6393  50.6616
 50.7141
 
 Beta MOs
 -- Occupied --
-19.4564 -19.4040 -19.4008 -19.3895 -19.3619 -19.3552 -19.3546 -19.3526
-19.3514 -10.4624 -10.4588 -10.4570 -10.4180 -10.3541  -1.3161  -1.2735
 -1.2158  -1.2115  -1.1722  -1.1448  -1.1429  -1.0430  -1.0032  -0.9002
 -0.8474  -0.8090  -0.7540  -0.7158  -0.6843  -0.6806  -0.6615  -0.6551
 -0.6357  -0.6252  -0.6089  -0.6038  -0.5870  -0.5799  -0.5642  -0.5501
 -0.5329  -0.5268  -0.5112  -0.4962  -0.4848  -0.4763  -0.4646  -0.4538
 -0.4472  -0.4376  -0.4271  -0.4191  -0.4074  -0.4038  -0.3953  -0.3869
 -- Virtual --
 -0.0342   0.0258   0.0329   0.0383   0.0441   0.0547   0.0576   0.0649
  0.0713   0.0808   0.0853   0.0984   0.1062   0.1102   0.1199   0.1236
  0.1308   0.1381   0.1432   0.1486   0.1494   0.1552   0.1575   0.1597
  0.1637   0.1716   0.1747   0.1797   0.1817   0.1878   0.1999   0.2065
  0.2155   0.2243   0.2280   0.2386   0.2435   0.2489   0.2582   0.2615
  0.2661   0.2692   0.2775   0.2833   0.2840   0.2862   0.2959   0.2982
  0.3035   0.3047   0.3116   0.3147   0.3199   0.3272   0.3310   0.3362
  0.3382   0.3423   0.3503   0.3575   0.3590   0.3619   0.3640   0.3685
  0.3710   0.3811   0.3851   0.3880   0.3946   0.4010   0.4045   0.4101
  0.4135   0.4155   0.4230   0.4262   0.4322   0.4335   0.4416   0.4478
  0.4560   0.4596   0.4657   0.4740   0.4778   0.4853   0.4953   0.5047
  0.5159   0.5239   0.5293   0.5527   0.5754   0.5918   0.5976   0.6048
  0.6184   0.6269   0.6435   0.6516   0.6620   0.6742   0.6785   0.6800
  0.6866   0.7038   0.7072   0.7168   0.7263   0.7323   0.7450   0.7461
  0.7533   0.7668   0.7699   0.7853   0.7944   0.7982   0.8161   0.8361
  0.8585   0.8612   0.8778   0.8862   0.9026   0.9224   0.9510   0.9620
  0.9679   0.9797   0.9893   1.0064   1.0195   1.0317   1.0458   1.0586
  1.0663   1.0752   1.0941   1.1037   1.1107   1.1129   1.1336   1.1463
  1.1500   1.1592   1.1641   1.1646   1.1732   1.1832   1.1969   1.1981
  1.2006   1.2081   1.2110   1.2254   1.2306   1.2363   1.2416   1.2555
  1.2611   1.2632   1.2707   1.2764   1.2820   1.2961   1.3040   1.3083
  1.3245   1.3317   1.3393   1.3544   1.3654   1.3679   1.3747   1.3827
  1.3968   1.4079   1.4313   1.4342   1.4548   1.4618   1.4722   1.4778
  1.4923   1.4956   1.5054   1.5208   1.5232   1.5337   1.5421   1.5530
  1.5628   1.5751   1.5850   1.5951   1.6043   1.6204   1.6252   1.6469
  1.6554   1.6664   1.6747   1.6906   1.7040   1.7138   1.7159   1.7354
  1.7431   1.7582   1.7629   1.7827   1.7938   1.8019   1.8152   1.8338
  1.8622   1.8711   1.8838   1.8912   1.9266   1.9409   1.9508   1.9621
  1.9771   2.0016   2.0083   2.0333   2.0499   2.0786   2.0897   2.1045
  2.1234   2.1513   2.1803   2.2117   2.2298   2.2453   2.2558   2.2775
  2.2855   2.3083   2.3316   2.3614   2.3712   2.3918   2.4055   2.4101
  2.4241   2.4370   2.4522   2.4706   2.4885   2.4992   2.5069   2.5213
  2.5389   2.5783   2.6105   2.6313   2.6711   2.7269   2.7423   2.7587
  2.7794   2.7946   2.8355   2.8545   2.8670   2.9056   2.9221   2.9388
  2.9518   2.9677   2.9867   3.0269   3.0492   3.0742   3.0904   3.1172
  3.1337   3.1509   3.1762   3.1909   3.2153   3.2588   3.2671   3.2735
  3.2818   3.3334   3.3571   3.3730   3.3809   3.4020   3.4106   3.4435
  3.4536   3.4611   3.4893   3.5308   3.5431   3.5614   3.5636   3.5859
  3.5945   3.6086   3.6381   3.6578   3.6740   3.6854   3.7026   3.7199
  3.7286   3.7452   3.7537   3.7740   3.7999   3.8108   3.8175   3.8377
  3.8475   3.8598   3.8631   3.8855   3.8931   3.8955   3.9110   3.9251
  3.9331   3.9481   3.9743   3.9818   3.9942   4.0131   4.0245   4.0354
  4.0446   4.0892   4.1026   4.1203   4.1425   4.1520   4.1715   4.1925
  4.2163   4.2208   4.2417   4.2425   4.2582   4.2707   4.3025   4.3151
  4.3264   4.3502   4.3519   4.3765   4.3920   4.4086   4.4241   4.4352
  4.4421   4.4829   4.4964   4.5282   4.5601   4.5827   4.5955   4.6116
  4.6208   4.6306   4.6685   4.7070   4.7144   4.7361   4.7552   4.7857
  4.8390   4.8723   4.9066   4.9225   4.9550   5.0051   5.0567   5.0722
  5.0975   5.1449   5.1479   5.1885   5.1990   5.2058   5.2229   5.2347
  5.2529   5.2617   5.2685   5.2807   5.2907   5.3016   5.3059   5.3083
  5.3204   5.3304   5.3335   5.3414   5.3431   5.3589   5.3681   5.3729
  5.4021   5.4054   5.4128   5.4258   5.4420   5.4548   5.4589   5.4833
  5.4931   5.5013   5.5115   5.5291   5.5366   5.5464   5.5615   5.5871
  5.6012   5.6112   5.6151   5.6193   5.6346   5.6495   5.6535   5.6571
  5.6813   5.6988   5.7099   5.7527   5.7675   5.7975   5.8039   5.8226
  5.8422   5.8782   5.8884   5.9396   5.9673   6.0103   6.0249   6.0367
  6.0724   6.1016   6.1157   6.1400   6.1638   6.2617   6.4857   6.5086
  6.5166   6.5571   6.5750   6.5966   6.7582   6.7816   6.8026   6.8481
  6.9390   6.9758   7.0145   7.0302   7.0581   7.0839   7.0885   7.0960
  7.1467   7.1643   7.1668   7.1690   7.2193   7.2260   7.2398   7.2539
  7.2551   7.2720   7.2804   7.3051   7.3332   7.3374   7.3470   7.3677
  7.3751   7.3916   7.4027   7.4274   7.4471   7.4587   7.4788   7.5063
  7.5316   7.5575   7.5964   7.6166   7.6630   7.6946   7.7032   7.7475
  7.7501   7.7870   7.8212   7.8362   7.8701   7.9005   7.9285   7.9701
  8.0344   8.0510   8.1300   8.2313  24.6319  24.7074  24.7894  24.8216
 24.8590  50.4480  50.5144  50.5699  50.5929  50.6119  50.6309  50.6398
 50.6622  50.7141
 --------------------------------------------------------------
 
          Ground-State Mulliken Net Atomic Charges

     Atom                 Charge (a.u.)    Spin (a.u.)
  --------------------------------------------------------
      1 C                     0.031187      -0.001540
      2 O                    -0.401139       0.000694
      3 C                    -0.145306       0.000330
      4 O                    -0.417469      -0.000157
      5 C                    -0.479270      -0.004558
      6 C                    -0.165671       0.007378
      7 O                     0.107786       0.304282
      8 O                    -0.220497       0.672817
      9 C                    -0.331755       0.013574
     10 O                    -0.425991       0.001716
     11 O                    -0.436283       0.001032
     12 H                     0.415956       0.000079
     13 H                     0.344400       0.000002
     14 H                     0.320879      -0.000017
     15 H                     0.300977       0.000095
     16 H                     0.397967       0.003087
     17 H                     0.318634      -0.000689
     18 H                     0.360502       0.000442
     19 H                     0.347891       0.000553
     20 O                    -0.457587       0.000010
     21 O                    -0.139013       0.000455
     22 O                    -0.349903       0.000086
     23 H                     0.346023       0.000096
     24 H                     0.333058       0.000317
     25 H                     0.344627      -0.000086
  --------------------------------------------------------
  Sum of atomic charges =     0.000000
  Sum of spin   charges =     1.000000

 -----------------------------------------------------------------
                    Cartesian Multipole Moments
 -----------------------------------------------------------------
    Charge (ESU x 10^10)
                 0.0000
    Dipole Moment (Debye)
         X       3.2569      Y      -1.1495      Z      -0.1209
       Tot       3.4559
    Quadrupole Moments (Debye-Ang)
        XX     -58.8740     XY       1.4061     YY     -79.3260
        XZ      10.5968     YZ      17.8389     ZZ     -91.5887
    Octopole Moments (Debye-Ang^2)
       XXX    -847.1113    XXY     -63.5979    XYY    -328.2394
       YYY    -290.5303    XXZ      75.5368    XYZ     107.7419
       YYZ      42.2473    XZZ    -369.1761    YZZ     -99.8697
       ZZZ     -64.4555
    Hexadecapole Moments (Debye-Ang^3)
      XXXX   -8408.4903   XXXY   -1324.9505   XXYY   -1911.2126
      XYYY   -1645.4182   YYYY   -1682.3814   XXXZ     447.3140
      XXYZ     660.4416   XYYZ     265.5008   YYYZ     261.7421
      XXZZ   -1802.7539   XYZZ    -483.8248   YYZZ    -456.3634
      XZZZ    -155.5430   YZZZ     185.9421   ZZZZ   -1113.3431
 -----------------------------------------------------------------
 Calculating analytic gradient of the SCF energy
 Gradient of CDS energy
            1           2           3           4           5           6
    1  -0.0023578   0.0022782  -0.0030600   0.0032596  -0.0000929  -0.0000211
    2   0.0016795  -0.0020156  -0.0000306   0.0001118   0.0001714   0.0000902
    3  -0.0020629   0.0020867   0.0026485  -0.0027250   0.0000815  -0.0000352
            7           8           9          10          11          12
    1   0.0000120  -0.0000922   0.0028446  -0.0002512  -0.0028282   0.0003195
    2  -0.0000622   0.0000367   0.0011328   0.0001966  -0.0010351  -0.0000074
    3  -0.0000501  -0.0000185  -0.0022794  -0.0005922   0.0024598   0.0002517
           13          14          15          16          17          18
    1  -0.0002556   0.0000852  -0.0001357   0.0000031  -0.0001521   0.0002436
    2   0.0000921  -0.0000321  -0.0000067  -0.0001036   0.0000862  -0.0000268
    3  -0.0004296   0.0001316  -0.0001636  -0.0000089   0.0000425   0.0004558
           19          20          21          22          23          24
    1   0.0004433   0.0000932   0.0000018  -0.0002637  -0.0003355   0.0002449
    2  -0.0001173   0.0004909   0.0001282  -0.0001208  -0.0002006   0.0000456
    3  -0.0001834  -0.0000248   0.0000266  -0.0001042   0.0002771   0.0001409
           25
    1   0.0000172
    2  -0.0005031
    3   0.0000749
 Gradient of SCF Energy
            1           2           3           4           5           6
    1  -0.0111884  -0.0013725  -0.0007598  -0.0004150   0.0020986  -0.0117226
    2   0.0028614   0.0144237  -0.0062153   0.0129942  -0.0130274   0.0225373
    3   0.0072208   0.0201420   0.0060460   0.0053994  -0.0113032   0.0038193
            7           8           9          10          11          12
    1  -0.0058277   0.0045919   0.0101152  -0.0113122  -0.0050347   0.0105041
    2   0.0014209  -0.0006629  -0.0209749  -0.0192893   0.0230180   0.0109619
    3   0.0042466  -0.0056764  -0.0057592  -0.0191318   0.0008720  -0.0069075
           13          14          15          16          17          18
    1   0.0002141   0.0048614  -0.0031060   0.0085395  -0.0064902   0.0107051
    2  -0.0114645   0.0065667   0.0045000  -0.0133731   0.0132220   0.0169384
    3  -0.0183728   0.0081933  -0.0015111  -0.0031588   0.0075141   0.0185145
           19          20          21          22          23          24
    1   0.0053011  -0.0211265   0.0046072  -0.0132342  -0.0004254   0.0135951
    2  -0.0191382   0.0137947  -0.0019321  -0.0077361  -0.0109338  -0.0048516
    3  -0.0042513  -0.0048759  -0.0029810   0.0110112  -0.0033390  -0.0100631
           25
    1   0.0168822
    2  -0.0136401
    3   0.0043519
 Max gradient component =       2.302E-02
 RMS gradient           =       1.079E-02
 Computing fast CPCM-SWIG gradient
 Updating gradient with PCM contributions...
 -- total gradient after adding PCM contribution --
---------------------------------------------------
  Atom         X              Y              Z     
---------------------------------------------------
   1      -0.000809      -0.001000      -0.000706
   2       0.000001       0.006401       0.006915
   3      -0.001351      -0.002177       0.000793
   4       0.000963       0.008506       0.002222
   5       0.000210      -0.001041      -0.000322
   6       0.000335       0.000719       0.000845
   7      -0.006205       0.002498       0.004006
   8       0.005529      -0.001676      -0.004540
   9       0.003308      -0.001942      -0.001453
  10      -0.003574      -0.007357      -0.002287
  11      -0.002238       0.008449       0.000816
  12       0.004210       0.003238      -0.004035
  13      -0.000351      -0.004321      -0.005480
  14       0.000565       0.001119       0.003182
  15      -0.002618       0.001561      -0.001406
  16       0.001135      -0.002579      -0.000542
  17      -0.000930       0.002749       0.000209
  18       0.003164       0.004953       0.003734
  19       0.001029      -0.006639      -0.001416
  20      -0.007480       0.003697      -0.000233
  21       0.002030      -0.002734      -0.004865
  22      -0.004587      -0.001122       0.007490
  23      -0.001035      -0.007118      -0.003081
  24       0.002914      -0.000827      -0.001794
  25       0.005785      -0.003360       0.001948
---------------------------------------------------
 Number of fixed atoms: 0
 Gradient time:  CPU 866.70 s  wall 71.62 s
 Geometry Optimization Parameters
   NAtoms,    NIC,     NZ,  NCons,   NDum,   NFix, NCnnct, MaxDiis
       25     170       0       0       0       0       0       0


** GEOMETRY OPTIMIZATION IN DELOCALIZED INTERNAL COORDINATES **
   Searching for a Minimum

   Optimization Cycle:   1

                       Coordinates (Angstroms)
     ATOM                X               Y               Z
      1  C         2.7064859367   -0.3971484771   -0.3595752768
      2  O         1.8047174567    0.4009983946   -1.0661511421
      3  C         3.1110067550    0.3891610057    0.9063393986
      4  O         2.0508812892    0.3959425261    1.8159268167
      5  C         3.5226046138    1.8305616773    0.6563322905
      6  C         4.7269260531    1.9537792497   -0.2705547885
      7  O         4.2523820389    2.5580330455   -1.5084054329
      8  O         5.0080532754    2.2300508606   -2.5292921602
      9  C         5.8326650325    2.8284347941    0.3236728031
     10  O         6.3617769252    2.0475925109    1.3796376928
     11  O         6.8163713726    3.1831361623   -0.6079195040
     12  H         5.3661422305    0.8045398372    2.2945419956
     13  H         1.6410077403   -0.0381429722   -1.9177122719
     14  H         3.7365931416    2.2908322865    1.6251740018
     15  H         2.6760671502    2.3705534947    0.2252069577
     16  H         5.1647196504    0.9890302467   -0.5443081207
     17  H         5.4234585514    3.7708643930    0.6992004271
     18  H         6.8402864306    2.6402435264    1.9835126469
     19  H         7.1555131792    2.3625199586   -1.0080221330
     20  O         2.0344155940   -1.5808443365    0.0365530649
     21  O         4.2147819736   -0.3882995251    1.3912197168
     22  O         4.6773922414    0.1799123929    2.6249087022
     23  H         1.6383911909   -0.4872800096    1.7304795164
     24  H         3.5870503359   -0.6506102531   -0.9616059007
     25  H         2.7099493406   -2.2375447890    0.2786259993
   Point Group: c1    Number of degrees of freedom:    69


   Energy is   -874.037135531


 Attempting to generate delocalized internal coordinates
 Initial Hessian constructed with Jon Baker's OPTIMIZE code

 69 Hessian modes will be used to form the next step
  Hessian Eigenvalues:
     0.003336    0.004494    0.005215    0.005912    0.006570    0.008117
     0.011078    0.013311    0.013544    0.015581    0.016059    0.016143
     0.037273    0.042438    0.050194    0.050755    0.051277    0.055739
     0.056598    0.063898    0.065183    0.068108    0.075494    0.085040
     0.090265    0.092498    0.092864    0.122918    0.160000    0.160000
     0.160000    0.160000    0.160000    0.160000    0.165946    0.173550
     0.181001    0.182899    0.186111    0.193691    0.200843    0.207145
     0.219342    0.250000    0.250000    0.281527    0.294268    0.299189
     0.303934    0.340842    0.343281    0.343644    0.343826    0.344976
     0.373537    0.402970    0.403454    0.428162    0.430858    0.455404
     0.461423    0.462501    0.500956    0.516703    0.525850    0.528233
     0.529613    0.529685    0.640196

 Minimum search - taking simple RFO step
 Searching for Lamda that Minimizes Along All modes
 Value Taken    Lamda =  -0.00220644
 Step Taken.  Stepsize is  0.243965

                             Maximum     Tolerance    Cnvgd?
         Gradient           0.008743      0.000300      NO
         Displacement       0.086162      0.001200      NO
         Energy change     *********      0.000001      NO


 New Cartesian Coordinates Obtained by Inverse Iteration

 Displacement from previous Coordinates is:  0.518315
 ----------------------------------------------------------------
             Standard Nuclear Orientation (Angstroms)
    I     Atom           X                Y                Z
 ----------------------------------------------------------------
    1      C       2.7251144287    -0.3885977542    -0.3606304072
    2      O       1.8082383224     0.3870725722    -1.0712363964
    3      C       3.1135188673     0.3978674664     0.9121145014
    4      O       2.0483835293     0.4194339675     1.8165082267
    5      C       3.5388096140     1.8336039238     0.6590103164
    6      C       4.7298113676     1.9576276401    -0.2806672909
    7      O       4.2361913606     2.5713260195    -1.5046160756
    8      O       4.9021518985     2.1860423317    -2.5598582068
    9      C       5.8408307903     2.8256350952     0.3110843730
   10      O       6.3822013689     2.0399492969     1.3534909255
   11      O       6.8239590031     3.1875670064    -0.6183257724
   12      H       5.2694295527     0.8096931524     2.4208636648
   13      H       1.6602013610    -0.0332399481    -1.9274539791
   14      H       3.7631890073     2.2920429462     1.6204746935
   15      H       2.6964826848     2.3780298477     0.2382458043
   16      H       5.1576295641     0.9968895566    -0.5666021692
   17      H       5.4364718675     3.7586716902     0.7025195601
   18      H       6.8639637433     2.6170849552     1.9587999740
   19      H       7.1711177320     2.3885640361    -1.0389490471
   20      O       2.0857921430    -1.5978907871     0.0069914570
   21      O       4.1993493433    -0.3905502682     1.4149482792
   22      O       4.6231036684     0.1205989347     2.6815527442
   23      H       1.6121117891    -0.4467618810     1.7645942191
   24      H       3.6092141654    -0.6121862506    -0.9594353628
   25      H       2.7623723271    -2.2521575496     0.2243612679
 ----------------------------------------------------------------
 Nuclear Repulsion Energy =        1086.61805885 hartrees
 There are       57 alpha and       56 beta electrons
 Discretize the solute cavity surface with Lebedev spheres
	Using 110 Lebedev grid points for each H atom
	Using 194 Lebedev grid points for other atoms
	Atomic van der Waals radii will be scaled by 1.20
 Remove points where switching function is < 1.0e-08
 Keep 1926 surface tesserae and discard 2000 interior tesserae
 Molecular Surface Area = 207.319 Angst**2
 Applying Cartesian multipole field
    Component          Value
    ---------          -----
     (2,0,0)        1.00000E-12
     (0,2,0)        2.00000E-11
     (0,0,2)       -3.00000E-11
 Nucleus-field energy     =     0.0000000096 hartrees
 Requested basis set is 6-311++G(2df,2p)
 There are 178 shells and 586 basis functions
 A cutoff of  1.0D-12 yielded  13228 shell pairs
 There are    140116 function pairs (    173266 Cartesian)
 Smallest overlap matrix eigenvalue = 4.70E-06
 Guess MOs from SCF MO coefficient file

 -----------------------------------------------------------------------
  General SCF calculation program by
  Eric Jon Sundstrom, Paul Horn, Yuezhi Mao, Dmitri Zuev, Alec White,
  David Stuck, Shaama M.S., Shane Yost, Joonho Lee, David Small,
  Daniel Levine, Susi Lehtola, Hugh Burton, Evgeny Epifanovsky,
  Bang C. Huynh
 -----------------------------------------------------------------------
 Exchange:     0.1500 Hartree-Fock + 1.0000 wB97M-V + LR-HF
 Correlation:  1.0000 wB97M-V
 Using SG-2 standard quadrature grid
 Nonlocal Correlation:  VV10 with C = 0.0100 and b = 6.00 and scale = 1.00000
 Grid used for NLC:  SG-1 standard quadrature
 
 Citation of the SMD model:
 Marenich, A.V.; Cramer, C.J.; Truhlar, D.G.
 J. Phys. Chem. B 2009, 113, 6378-6396.
 iSolventCode=           1
 Solvent: water                                                           
 
 vradii
            1           2           3           4           5           6
    1   1.8500000   1.5200000   1.8500000   1.5200000   1.8500000   1.8500000
            7           8           9          10          11          12
    1   1.5200000   1.5200000   1.8500000   1.5200000   1.5200000   1.2000000
           13          14          15          16          17          18
    1   1.2000000   1.2000000   1.2000000   1.2000000   1.2000000   1.2000000
           19          20          21          22          23          24
    1   1.2000000   1.5200000   1.5200000   1.5200000   1.2000000   1.2000000
           25
    1   1.2000000
 -------------------------------------------------------
 OpenMP BLAS3 based DFT computing Module                
 Release: version 1.0, May 2013, Q-Chem Inc. Pittsburgh 
 -------------------------------------------------------
 A unrestricted SCF calculation will be
 performed using Roothaan-Hall, DIIS, GDM
 SCF converges when RMS gradient is below 1.0e-07
 ---------------------------------------
  Cycle       Energy         DIIS error
 ---------------------------------------
    1    -873.9676608249      2.76e-04  Roothaan Step
 ---------------------------------------
  Cycle       Energy         DIIS error
 ---------------------------------------
    1    -874.0315921306      2.17e-04  
    2    -874.0400249526      1.74e-04  Done DIIS. Switching to GDM
 ---------------------------------------
  Cycle       Energy        RMS Gradient
 ---------------------------------------
    1    -874.0400249526      9.83e-03   Normal BFGS step
    2    -874.0396163015      1.54e-02  Line search: overstep
    3    -874.0434757410      4.12e-03   Normal BFGS step
    4    -874.0437628457      1.45e-03   Normal BFGS step
    5    -874.0438272983      1.32e-03   Normal BFGS step
    6    -874.0438467564      9.85e-04   Normal BFGS step
    7    -874.0438502429      9.12e-04   Normal BFGS step
    8    -874.0438527288      7.30e-04   Normal BFGS step
    9    -874.0438542503      4.46e-04   Normal BFGS step
   10    -874.0438550146      2.93e-04   Normal BFGS step
   11    -874.0438557310      1.57e-04   Normal BFGS step
   12    -874.0438559854      6.77e-05   Normal BFGS step
   13    -874.0438560276      2.08e-05   Normal BFGS step
   14    -874.0438560387      1.71e-05   Normal BFGS step
   15    -874.0438560418      7.05e-06   Normal BFGS step
   16    -874.0438560426      2.85e-06   Normal BFGS step
   17    -874.0438560428      1.21e-06   Normal BFGS step
   18    -874.0438560428      3.16e-07   Normal BFGS step
   19    -874.0438560428      1.45e-07   Normal BFGS step
   20    -874.0438560428      5.42e-08  Convergence criterion met
 ---------------------------------------
 SCF time:   CPU 6403.18s  wall 447.00s 
<S^2> =          0.753951554
(3)  G-ENP(liq) elect-nuc-pol free energy of system     -874.043856043 a.u.
(4)  G-CDS(liq) cavity-dispersion-solvent structure 
     free energy                                                3.8508 kcal/mol
(6)  G-S(liq) free energy of system                     -874.037719418 a.u.
 SCF   energy in the final basis set =     -874.0377194182
 Total energy in the final basis set =     -874.0377194182
 
 --------------------------------------------------------------
 
                    Orbital Energies (a.u.)
 --------------------------------------------------------------
 
 Alpha MOs
 -- Occupied --
-19.4670 -19.4193 -19.4049 -19.3929 -19.3583 -19.3542 -19.3523 -19.3519
-19.3512 -10.4639 -10.4580 -10.4567 -10.4171 -10.3535  -1.3455  -1.2765
 -1.2153  -1.2115  -1.1736  -1.1439  -1.1430  -1.0466  -1.0302  -0.9113
 -0.8528  -0.8110  -0.7593  -0.7198  -0.6900  -0.6858  -0.6659  -0.6567
 -0.6453  -0.6404  -0.6167  -0.6097  -0.5987  -0.5900  -0.5750  -0.5501
 -0.5451  -0.5286  -0.5250  -0.5030  -0.4882  -0.4767  -0.4657  -0.4582
 -0.4471  -0.4440  -0.4275  -0.4226  -0.4119  -0.4079  -0.4059  -0.3942
 -0.3859
 -- Virtual --
  0.0257   0.0326   0.0383   0.0438   0.0544   0.0572   0.0647   0.0716
  0.0797   0.0845   0.0985   0.1063   0.1109   0.1198   0.1223   0.1305
  0.1371   0.1429   0.1486   0.1501   0.1546   0.1574   0.1590   0.1638
  0.1706   0.1738   0.1800   0.1806   0.1872   0.1984   0.2055   0.2152
  0.2225   0.2261   0.2382   0.2441   0.2472   0.2550   0.2592   0.2629
  0.2676   0.2775   0.2813   0.2844   0.2850   0.2955   0.2977   0.3016
  0.3042   0.3119   0.3160   0.3197   0.3263   0.3301   0.3360   0.3379
  0.3402   0.3502   0.3570   0.3591   0.3618   0.3640   0.3690   0.3715
  0.3804   0.3842   0.3887   0.3950   0.3997   0.4042   0.4100   0.4138
  0.4157   0.4210   0.4231   0.4309   0.4336   0.4439   0.4471   0.4537
  0.4570   0.4660   0.4719   0.4789   0.4842   0.4966   0.5058   0.5106
  0.5234   0.5290   0.5515   0.5767   0.5921   0.5979   0.6075   0.6182
  0.6275   0.6438   0.6528   0.6612   0.6740   0.6776   0.6827   0.6878
  0.7041   0.7061   0.7173   0.7280   0.7312   0.7387   0.7428   0.7525
  0.7700   0.7731   0.7878   0.7955   0.8079   0.8164   0.8339   0.8592
  0.8648   0.8756   0.8822   0.9023   0.9214   0.9468   0.9592   0.9651
  0.9774   0.9899   1.0043   1.0185   1.0327   1.0384   1.0548   1.0639
  1.0683   1.0879   1.0967   1.1047   1.1197   1.1329   1.1394   1.1476
  1.1487   1.1574   1.1647   1.1692   1.1773   1.1913   1.1984   1.1995
  1.2070   1.2093   1.2201   1.2246   1.2324   1.2411   1.2460   1.2532
  1.2591   1.2643   1.2681   1.2793   1.2831   1.2955   1.3049   1.3148
  1.3222   1.3326   1.3552   1.3613   1.3670   1.3730   1.3783   1.3927
  1.4025   1.4244   1.4338   1.4475   1.4605   1.4736   1.4788   1.4911
  1.4962   1.5103   1.5146   1.5214   1.5280   1.5436   1.5529   1.5650
  1.5758   1.5820   1.5985   1.6054   1.6117   1.6272   1.6431   1.6553
  1.6628   1.6657   1.6872   1.6933   1.7058   1.7165   1.7315   1.7392
  1.7506   1.7658   1.7721   1.7874   1.8045   1.8150   1.8296   1.8612
  1.8745   1.8824   1.8863   1.9346   1.9462   1.9518   1.9604   1.9757
  1.9957   2.0073   2.0229   2.0383   2.0689   2.0770   2.0984   2.1143
  2.1392   2.1671   2.2003   2.2143   2.2428   2.2515   2.2704   2.2818
  2.2993   2.3239   2.3626   2.3655   2.3737   2.3998   2.4033   2.4142
  2.4257   2.4483   2.4696   2.4818   2.4960   2.5002   2.5172   2.5371
  2.5747   2.5935   2.6281   2.6630   2.7239   2.7426   2.7571   2.7728
  2.7953   2.8391   2.8543   2.8718   2.8936   2.9114   2.9343   2.9577
  2.9660   2.9800   3.0208   3.0458   3.0745   3.0880   3.1127   3.1364
  3.1497   3.1740   3.1955   3.2187   3.2597   3.2693   3.2732   3.2780
  3.3331   3.3548   3.3736   3.3795   3.4021   3.4161   3.4466   3.4573
  3.4651   3.4920   3.5277   3.5432   3.5623   3.5660   3.5793   3.5981
  3.6020   3.6433   3.6568   3.6724   3.6799   3.7005   3.7200   3.7289
  3.7428   3.7505   3.7726   3.7956   3.8102   3.8158   3.8371   3.8450
  3.8581   3.8668   3.8815   3.8873   3.8997   3.9075   3.9194   3.9349
  3.9528   3.9749   3.9822   3.9924   4.0091   4.0276   4.0422   4.0459
  4.0937   4.1025   4.1276   4.1354   4.1489   4.1738   4.1981   4.2147
  4.2239   4.2444   4.2482   4.2619   4.2761   4.3033   4.3128   4.3336
  4.3616   4.3691   4.3817   4.4008   4.4065   4.4205   4.4395   4.4427
  4.4869   4.4937   4.5277   4.5649   4.5789   4.5948   4.6026   4.6219
  4.6360   4.6673   4.7039   4.7076   4.7378   4.7463   4.7861   4.8384
  4.8672   4.9054   4.9204   4.9434   4.9981   5.0476   5.0696   5.0951
  5.0968   5.0995   5.1147   5.1741   5.2010   5.2072   5.2254   5.2474
  5.2551   5.2603   5.2682   5.2721   5.2907   5.2946   5.2992   5.3146
  5.3184   5.3263   5.3314   5.3379   5.3537   5.3644   5.3673   5.3933
  5.4005   5.4131   5.4222   5.4289   5.4354   5.4501   5.4727   5.4857
  5.5008   5.5072   5.5289   5.5370   5.5446   5.5618   5.5878   5.5999
  5.6236   5.6247   5.6300   5.6378   5.6476   5.6563   5.6676   5.6835
  5.7006   5.7069   5.7571   5.7652   5.7952   5.8036   5.8243   5.8485
  5.8839   5.8945   5.9404   5.9813   6.0299   6.0405   6.0447   6.0879
  6.1117   6.1247   6.1353   6.1617   6.2790   6.4652   6.5033   6.5138
  6.5596   6.5751   6.6090   6.7628   6.7875   6.8016   6.8566   6.8641
  6.8977   6.9713   7.0122   7.0539   7.0823   7.0864   7.0948   7.1214
  7.1366   7.1607   7.1710   7.2261   7.2308   7.2416   7.2666   7.2723
  7.2757   7.2935   7.3169   7.3215   7.3357   7.3506   7.3588   7.3717
  7.3918   7.4046   7.4192   7.4246   7.4478   7.4636   7.4753   7.5292
  7.5479   7.5970   7.6238   7.6697   7.6976   7.7066   7.7489   7.7624
  7.7848   7.8128   7.8387   7.8657   7.9034   7.9267   7.9702   8.0295
  8.0441   8.1238   8.2303  24.6453  24.7175  24.8000  24.8327  24.8631
 50.4391  50.5111  50.5656  50.5917  50.6170  50.6297  50.6412  50.6669
 50.7165
 
 Beta MOs
 -- Occupied --
-19.4567 -19.4049 -19.4005 -19.3929 -19.3582 -19.3542 -19.3523 -19.3519
-19.3511 -10.4639 -10.4576 -10.4567 -10.4174 -10.3534  -1.3195  -1.2765
 -1.2153  -1.2110  -1.1736  -1.1436  -1.1430  -1.0459  -1.0047  -0.9015
 -0.8484  -0.8106  -0.7555  -0.7193  -0.6860  -0.6829  -0.6631  -0.6552
 -0.6366  -0.6258  -0.6093  -0.6044  -0.5879  -0.5815  -0.5650  -0.5484
 -0.5336  -0.5251  -0.5119  -0.4969  -0.4856  -0.4763  -0.4655  -0.4532
 -0.4462  -0.4368  -0.4269  -0.4171  -0.4101  -0.4046  -0.3941  -0.3869
 -- Virtual --
 -0.0331   0.0257   0.0329   0.0384   0.0441   0.0546   0.0575   0.0650
  0.0717   0.0799   0.0850   0.0987   0.1069   0.1112   0.1200   0.1238
  0.1310   0.1388   0.1433   0.1491   0.1504   0.1551   0.1576   0.1596
  0.1642   0.1713   0.1748   0.1808   0.1814   0.1880   0.1996   0.2065
  0.2160   0.2251   0.2265   0.2393   0.2445   0.2481   0.2576   0.2602
  0.2672   0.2686   0.2781   0.2821   0.2847   0.2867   0.2964   0.2984
  0.3042   0.3050   0.3135   0.3168   0.3204   0.3264   0.3309   0.3364
  0.3389   0.3409   0.3505   0.3573   0.3601   0.3622   0.3642   0.3692
  0.3718   0.3811   0.3852   0.3894   0.3952   0.4006   0.4056   0.4109
  0.4148   0.4163   0.4223   0.4244   0.4312   0.4339   0.4448   0.4474
  0.4540   0.4578   0.4663   0.4723   0.4803   0.4848   0.4969   0.5061
  0.5112   0.5237   0.5293   0.5522   0.5772   0.5923   0.5985   0.6077
  0.6184   0.6278   0.6445   0.6535   0.6616   0.6744   0.6777   0.6830
  0.6880   0.7045   0.7069   0.7178   0.7282   0.7316   0.7390   0.7432
  0.7533   0.7704   0.7733   0.7879   0.7966   0.8082   0.8170   0.8345
  0.8596   0.8651   0.8759   0.8826   0.9025   0.9216   0.9477   0.9599
  0.9657   0.9779   0.9903   1.0046   1.0206   1.0340   1.0392   1.0553
  1.0644   1.0701   1.0882   1.0974   1.1070   1.1210   1.1341   1.1414
  1.1490   1.1544   1.1595   1.1668   1.1712   1.1800   1.1921   1.2006
  1.2019   1.2097   1.2126   1.2215   1.2313   1.2367   1.2417   1.2481
  1.2556   1.2600   1.2674   1.2713   1.2818   1.2905   1.2971   1.3081
  1.3170   1.3249   1.3353   1.3571   1.3635   1.3692   1.3742   1.3797
  1.3948   1.4041   1.4259   1.4353   1.4498   1.4624   1.4756   1.4795
  1.4922   1.4969   1.5131   1.5152   1.5228   1.5289   1.5460   1.5546
  1.5661   1.5771   1.5876   1.6006   1.6062   1.6157   1.6287   1.6480
  1.6567   1.6669   1.6694   1.6913   1.6984   1.7118   1.7199   1.7410
  1.7427   1.7571   1.7715   1.7732   1.7885   1.8076   1.8188   1.8329
  1.8641   1.8772   1.8847   1.8876   1.9363   1.9471   1.9537   1.9621
  1.9770   1.9970   2.0099   2.0270   2.0394   2.0701   2.0826   2.0999
  2.1149   2.1409   2.1696   2.2014   2.2191   2.2438   2.2591   2.2733
  2.2895   2.3012   2.3264   2.3664   2.3687   2.3767   2.4006   2.4066
  2.4171   2.4272   2.4490   2.4704   2.4833   2.4963   2.5020   2.5187
  2.5377   2.5756   2.5941   2.6287   2.6661   2.7242   2.7474   2.7585
  2.7734   2.7956   2.8394   2.8548   2.8721   2.8938   2.9120   2.9348
  2.9581   2.9663   2.9800   3.0214   3.0468   3.0748   3.0891   3.1133
  3.1369   3.1501   3.1744   3.1958   3.2190   3.2600   3.2697   3.2735
  3.2784   3.3335   3.3552   3.3737   3.3797   3.4025   3.4164   3.4467
  3.4575   3.4660   3.4921   3.5282   3.5435   3.5627   3.5663   3.5795
  3.5985   3.6024   3.6436   3.6573   3.6727   3.6803   3.7012   3.7201
  3.7291   3.7431   3.7508   3.7728   3.7957   3.8105   3.8159   3.8375
  3.8453   3.8581   3.8669   3.8817   3.8877   3.8998   3.9076   3.9195
  3.9352   3.9530   3.9750   3.9827   3.9926   4.0092   4.0279   4.0425
  4.0465   4.0938   4.1029   4.1280   4.1356   4.1496   4.1742   4.1983
  4.2151   4.2243   4.2448   4.2485   4.2621   4.2767   4.3036   4.3136
  4.3340   4.3618   4.3695   4.3825   4.4012   4.4067   4.4216   4.4410
  4.4434   4.4881   4.4958   4.5288   4.5654   4.5829   4.5978   4.6129
  4.6243   4.6374   4.6694   4.7071   4.7188   4.7435   4.7585   4.7864
  4.8421   4.8722   4.9109   4.9300   4.9552   5.0028   5.0614   5.0711
  5.0981   5.1437   5.1483   5.1911   5.2009   5.2048   5.2167   5.2258
  5.2513   5.2592   5.2669   5.2744   5.2895   5.2977   5.3016   5.3101
  5.3166   5.3257   5.3279   5.3372   5.3396   5.3595   5.3666   5.3758
  5.3948   5.4076   5.4139   5.4256   5.4304   5.4428   5.4566   5.4807
  5.4886   5.5031   5.5113   5.5291   5.5377   5.5499   5.5667   5.5957
  5.6020   5.6245   5.6264   5.6315   5.6381   5.6541   5.6572   5.6683
  5.6881   5.7009   5.7102   5.7574   5.7667   5.8036   5.8133   5.8249
  5.8529   5.8868   5.8974   5.9407   5.9815   6.0308   6.0406   6.0451
  6.0880   6.1141   6.1250   6.1363   6.1618   6.2790   6.5000   6.5184
  6.5229   6.5637   6.5758   6.6205   6.7662   6.7885   6.8018   6.8645
  6.9398   6.9749   7.0101   7.0275   7.0585   7.0833   7.0876   7.0966
  7.1340   7.1541   7.1705   7.1712   7.2376   7.2450   7.2485   7.2694
  7.2737   7.2790   7.2951   7.3185   7.3330   7.3401   7.3521   7.3704
  7.3743   7.3921   7.4076   7.4225   7.4454   7.4517   7.4709   7.5069
  7.5304   7.5524   7.5975   7.6244   7.6706   7.6981   7.7068   7.7491
  7.7625   7.7849   7.8189   7.8389   7.8727   7.9039   7.9268   7.9703
  8.0321   8.0560   8.1421   8.2304  24.6452  24.7175  24.8001  24.8328
 24.8631  50.4518  50.5114  50.5730  50.5918  50.6178  50.6299  50.6416
 50.6676  50.7165
 --------------------------------------------------------------
 
          Ground-State Mulliken Net Atomic Charges

     Atom                 Charge (a.u.)    Spin (a.u.)
  --------------------------------------------------------
      1 C                     0.027991      -0.000930
      2 O                    -0.403265      -0.000085
      3 C                    -0.137991       0.000180
      4 O                    -0.418245      -0.000129
      5 C                    -0.504066      -0.004879
      6 C                    -0.103074       0.010174
      7 O                     0.121007       0.309886
      8 O                    -0.232512       0.669021
      9 C                    -0.357699       0.012299
     10 O                    -0.417087       0.001463
     11 O                    -0.449367      -0.000476
     12 H                     0.400614       0.000086
     13 H                     0.343839       0.000141
     14 H                     0.318396       0.000149
     15 H                     0.303209       0.000350
     16 H                     0.390354       0.001993
     17 H                     0.321042      -0.000706
     18 H                     0.352532       0.000473
     19 H                     0.349226       0.000538
     20 O                    -0.461844       0.000029
     21 O                    -0.126391       0.000388
     22 O                    -0.344421      -0.000015
     23 H                     0.349306       0.000119
     24 H                     0.335818       0.000021
     25 H                     0.342626      -0.000089
  --------------------------------------------------------
  Sum of atomic charges =     0.000000
  Sum of spin   charges =     1.000000

 -----------------------------------------------------------------
                    Cartesian Multipole Moments
 -----------------------------------------------------------------
    Charge (ESU x 10^10)
                 0.0000
    Dipole Moment (Debye)
         X       3.2353      Y      -0.9416      Z       0.1246
       Tot       3.3719
    Quadrupole Moments (Debye-Ang)
        XX     -59.0725     XY       2.0394     YY     -79.7089
        XZ      10.9286     YZ      18.0981     ZZ     -90.6751
    Octopole Moments (Debye-Ang^2)
       XXX    -849.3867    XXY     -61.3132    XYY    -328.8866
       YYY    -290.8075    XXZ      74.3580    XYZ     107.7281
       YYZ      41.1490    XZZ    -364.0507    YZZ     -97.7151
       ZZZ     -60.7788
    Hexadecapole Moments (Debye-Ang^3)
      XXXX   -8412.4848   XXXY   -1308.1495   XXYY   -1909.7139
      XYYY   -1645.2130   YYYY   -1688.1955   XXXZ     422.7334
      XXYZ     652.7973   XYYZ     257.6259   YYYZ     262.3336
      XXZZ   -1772.7955   XYZZ    -470.6947   YYZZ    -459.0652
      XZZZ    -142.2010   YZZZ     192.6390   ZZZZ   -1125.4547
 -----------------------------------------------------------------
 Calculating analytic gradient of the SCF energy
 Gradient of CDS energy
            1           2           3           4           5           6
    1  -0.0025029   0.0023798  -0.0029481   0.0031550  -0.0000896  -0.0000198
    2   0.0015781  -0.0020153   0.0000102   0.0000660   0.0001717   0.0000933
    3  -0.0020859   0.0021442   0.0025243  -0.0026112   0.0000840  -0.0000275
            7           8           9          10          11          12
    1   0.0000081  -0.0000897   0.0029722  -0.0003633  -0.0028442   0.0003010
    2  -0.0000759   0.0000364   0.0010048   0.0003478  -0.0010665   0.0000260
    3  -0.0000529  -0.0000206  -0.0020894  -0.0008003   0.0024831   0.0002808
           13          14          15          16          17          18
    1  -0.0002517   0.0000793  -0.0001345  -0.0000036  -0.0001502   0.0002476
    2   0.0000910  -0.0000328  -0.0000071  -0.0001040   0.0000734  -0.0000310
    3  -0.0004322   0.0001129  -0.0001604  -0.0000125   0.0000568   0.0004546
           19          20          21          22          23          24
    1   0.0004451   0.0001409   0.0000112  -0.0002578  -0.0003434   0.0002323
    2  -0.0001061   0.0005938   0.0001280  -0.0001364  -0.0001928   0.0000548
    3  -0.0001996  -0.0000387   0.0000279  -0.0001189   0.0002806   0.0001433
           25
    1   0.0000262
    2  -0.0005075
    3   0.0000573
 Gradient of SCF Energy
            1           2           3           4           5           6
    1  -0.0096561  -0.0018258   0.0026464  -0.0007672   0.0019329  -0.0120375
    2   0.0055349   0.0075251  -0.0028893   0.0059657  -0.0120130   0.0215982
    3   0.0077232   0.0124162   0.0044273   0.0051498  -0.0124667   0.0036450
            7           8           9          10          11          12
    1  -0.0022643   0.0005213   0.0060522  -0.0053074  -0.0023989   0.0066556
    2  -0.0008622   0.0001528  -0.0174646  -0.0107183   0.0146475   0.0118086
    3   0.0024942  -0.0036554  -0.0062212  -0.0187847   0.0023202  -0.0017211
           13          14          15          16          17          18
    1   0.0003233   0.0046130  -0.0004400   0.0065629  -0.0055154   0.0076471
    2  -0.0070444   0.0054116   0.0030121  -0.0111137   0.0101033   0.0114478
    3  -0.0133389   0.0060679  -0.0005206  -0.0027664   0.0081455   0.0159055
           19          20          21          22          23          24
    1   0.0049234  -0.0144362   0.0018365  -0.0096243  -0.0010558   0.0099661
    2  -0.0127553   0.0083164  -0.0003591  -0.0103241  -0.0053568  -0.0040748
    3  -0.0039529  -0.0046094  -0.0005839   0.0069978  -0.0006066  -0.0082663
           25
    1   0.0116485
    2  -0.0105486
    3   0.0022014
 Max gradient component =       2.160E-02
 RMS gradient           =       8.244E-03
 Computing fast CPCM-SWIG gradient
 Updating gradient with PCM contributions...
 -- total gradient after adding PCM contribution --
---------------------------------------------------
  Atom         X              Y              Z     
---------------------------------------------------
   1       0.000268       0.001614       0.000069
   2      -0.000081       0.000017      -0.000683
   3       0.002014       0.000808      -0.000244
   4       0.000533       0.001281       0.002078
   5       0.000074       0.001024      -0.000042
   6      -0.000042       0.000575      -0.000442
   7      -0.002557       0.000173       0.002061
   8       0.001362      -0.000753      -0.002348
   9      -0.000698       0.000756      -0.001533
  10       0.001982       0.000573      -0.001141
  11       0.000466       0.000319       0.001579
  12       0.000509       0.002921       0.000262
  13      -0.000476      -0.000346      -0.000596
  14      -0.000039      -0.000268      -0.000262
  15       0.000356      -0.000082      -0.000313
  16      -0.000484      -0.000433       0.000144
  17       0.000062      -0.000213       0.000528
  18       0.000415       0.000109       0.000693
  19       0.000579      -0.000501      -0.000489
  20      -0.001121      -0.001189      -0.000811
  21      -0.000983      -0.001121      -0.002343
  22      -0.001169      -0.002710       0.004033
  23      -0.001209      -0.001579      -0.000443
  24      -0.000432      -0.000385      -0.000285
  25       0.000670      -0.000589       0.000529
---------------------------------------------------
 Number of fixed atoms: 0
 Gradient time:  CPU 850.51 s  wall 70.76 s
 Geometry Optimization Parameters
   NAtoms,    NIC,     NZ,  NCons,   NDum,   NFix, NCnnct, MaxDiis
       25     170       0       0       0       0       0       0

 Cartesian Hessian Update
 Hessian updated using BFGS update


** GEOMETRY OPTIMIZATION IN DELOCALIZED INTERNAL COORDINATES **
   Searching for a Minimum

   Optimization Cycle:   2

                       Coordinates (Angstroms)
     ATOM                X               Y               Z
      1  C         2.7251144287   -0.3885977542   -0.3606304072
      2  O         1.8082383224    0.3870725722   -1.0712363964
      3  C         3.1135188673    0.3978674664    0.9121145014
      4  O         2.0483835293    0.4194339675    1.8165082267
      5  C         3.5388096140    1.8336039238    0.6590103164
      6  C         4.7298113676    1.9576276401   -0.2806672909
      7  O         4.2361913606    2.5713260195   -1.5046160756
      8  O         4.9021518985    2.1860423317   -2.5598582068
      9  C         5.8408307903    2.8256350952    0.3110843730
     10  O         6.3822013689    2.0399492969    1.3534909255
     11  O         6.8239590031    3.1875670064   -0.6183257724
     12  H         5.2694295527    0.8096931524    2.4208636648
     13  H         1.6602013610   -0.0332399481   -1.9274539791
     14  H         3.7631890073    2.2920429462    1.6204746935
     15  H         2.6964826848    2.3780298477    0.2382458043
     16  H         5.1576295641    0.9968895566   -0.5666021692
     17  H         5.4364718675    3.7586716902    0.7025195601
     18  H         6.8639637433    2.6170849552    1.9587999740
     19  H         7.1711177320    2.3885640361   -1.0389490471
     20  O         2.0857921430   -1.5978907871    0.0069914570
     21  O         4.1993493433   -0.3905502682    1.4149482792
     22  O         4.6231036684    0.1205989347    2.6815527442
     23  H         1.6121117891   -0.4467618810    1.7645942191
     24  H         3.6092141654   -0.6121862506   -0.9594353628
     25  H         2.7623723271   -2.2521575496    0.2243612679
   Point Group: c1    Number of degrees of freedom:    69


   Energy is   -874.037719418

 Hessian updated using BFGS update

 65 Hessian modes will be used to form the next step
  Hessian Eigenvalues:
     0.003262    0.004873    0.005159    0.005871    0.006747    0.007927
     0.013006    0.013544    0.015571    0.015932    0.016120    0.017669
     0.038523    0.042698    0.050132    0.050514    0.051033    0.055699
     0.056618    0.063832    0.065523    0.068879    0.076123    0.085061
     0.089626    0.092718    0.094184    0.122094    0.140763    0.160982
     0.167287    0.173980    0.180078    0.184380    0.188933    0.200544
     0.205483    0.212546    0.228865    0.241328    0.251784    0.284795
     0.295352    0.297603    0.303813    0.337238    0.341780    0.343524
     0.344029    0.344759    0.373014    0.392765    0.403980    0.426125
     0.431102    0.455403    0.458521    0.462384    0.471434    0.508109
     0.522448    0.526784    0.528974    0.529651    0.630789

 Minimum search - taking simple RFO step
 Searching for Lamda that Minimizes Along All modes
 Value Taken    Lamda =  -0.00253163
 Calculated Step too Large.  Step scaled by  0.763301
 Step Taken.  Stepsize is  0.300000

                             Maximum     Tolerance    Cnvgd?
         Gradient           0.006689      0.000300      NO
         Displacement       0.116003      0.001200      NO
         Energy change     -0.000584      0.000001      NO


 New Cartesian Coordinates Obtained by Inverse Iteration

 Displacement from previous Coordinates is:  0.818279
 ----------------------------------------------------------------
             Standard Nuclear Orientation (Angstroms)
    I     Atom           X                Y                Z
 ----------------------------------------------------------------
    1      C       2.7014718057    -0.3906501635    -0.3553502201
    2      O       1.7614368515     0.3637490525    -1.0562070510
    3      C       3.1036224697     0.4109576072     0.9023727446
    4      O       2.0595845386     0.4472560460     1.8298420380
    5      C       3.5232265177     1.8412718958     0.6264689079
    6      C       4.7291021086     1.9600859715    -0.2888976924
    7      O       4.2694481923     2.5758783904    -1.5231508347
    8      O       4.9079215299     2.1508341535    -2.5724937163
    9      C       5.8190055448     2.8231865244     0.3398145533
   10      O       6.2956674729     2.0493936031     1.4187950401
   11      O       6.8521835709     3.1568231896    -0.5448488938
   12      H       5.4872177680     0.7191552016     2.2594367110
   13      H       1.6083313318    -0.0472450439    -1.9092479857
   14      H       3.7350352215     2.3135694936     1.5794752604
   15      H       2.6866030829     2.3758926572     0.1924774351
   16      H       5.1617267322     1.0016274342    -0.5606014816
   17      H       5.4084588223     3.7621868682     0.6993604381
   18      H       6.7529103570     2.6216646215     2.0378784567
   19      H       7.2152467021     2.3608817283    -0.9437891288
   20      O       2.0912044542    -1.6101407681     0.0196785663
   21      O       4.2003884517    -0.3691263634     1.3906700067
   22      O       4.7309433446     0.1991753513     2.5830331224
   23      H       1.6144055187    -0.4078573626     1.8309137685
   24      H       3.5756088346    -0.5991558791    -0.9660611375
   25      H       2.7688882753    -2.2630982090     0.2082163924
 ----------------------------------------------------------------
 Nuclear Repulsion Energy =        1089.52352642 hartrees
 There are       57 alpha and       56 beta electrons
 Discretize the solute cavity surface with Lebedev spheres
	Using 110 Lebedev grid points for each H atom
	Using 194 Lebedev grid points for other atoms
	Atomic van der Waals radii will be scaled by 1.20
 Remove points where switching function is < 1.0e-08
 Keep 1914 surface tesserae and discard 2012 interior tesserae
 Molecular Surface Area = 206.262 Angst**2
 Applying Cartesian multipole field
    Component          Value
    ---------          -----
     (2,0,0)        1.00000E-12
     (0,2,0)        2.00000E-11
     (0,0,2)       -3.00000E-11
 Nucleus-field energy     =     0.0000000098 hartrees
 Requested basis set is 6-311++G(2df,2p)
 There are 178 shells and 586 basis functions
 A cutoff of  1.0D-12 yielded  13238 shell pairs
 There are    140202 function pairs (    173367 Cartesian)
 Smallest overlap matrix eigenvalue = 4.60E-06
 Guess MOs from SCF MO coefficient file

 -----------------------------------------------------------------------
  General SCF calculation program by
  Eric Jon Sundstrom, Paul Horn, Yuezhi Mao, Dmitri Zuev, Alec White,
  David Stuck, Shaama M.S., Shane Yost, Joonho Lee, David Small,
  Daniel Levine, Susi Lehtola, Hugh Burton, Evgeny Epifanovsky,
  Bang C. Huynh
 -----------------------------------------------------------------------
 Exchange:     0.1500 Hartree-Fock + 1.0000 wB97M-V + LR-HF
 Correlation:  1.0000 wB97M-V
 Using SG-2 standard quadrature grid
 Nonlocal Correlation:  VV10 with C = 0.0100 and b = 6.00 and scale = 1.00000
 Grid used for NLC:  SG-1 standard quadrature
 
 Citation of the SMD model:
 Marenich, A.V.; Cramer, C.J.; Truhlar, D.G.
 J. Phys. Chem. B 2009, 113, 6378-6396.
 iSolventCode=           1
 Solvent: water                                                           
 
 vradii
            1           2           3           4           5           6
    1   1.8500000   1.5200000   1.8500000   1.5200000   1.8500000   1.8500000
            7           8           9          10          11          12
    1   1.5200000   1.5200000   1.8500000   1.5200000   1.5200000   1.2000000
           13          14          15          16          17          18
    1   1.2000000   1.2000000   1.2000000   1.2000000   1.2000000   1.2000000
           19          20          21          22          23          24
    1   1.2000000   1.5200000   1.5200000   1.5200000   1.2000000   1.2000000
           25
    1   1.2000000
 -------------------------------------------------------
 OpenMP BLAS3 based DFT computing Module                
 Release: version 1.0, May 2013, Q-Chem Inc. Pittsburgh 
 -------------------------------------------------------
 A unrestricted SCF calculation will be
 performed using Roothaan-Hall, DIIS, GDM
 SCF converges when RMS gradient is below 1.0e-07
 ---------------------------------------
  Cycle       Energy         DIIS error
 ---------------------------------------
    1    -873.9608288448      3.27e-04  Roothaan Step
 ---------------------------------------
  Cycle       Energy         DIIS error
 ---------------------------------------
    1    -874.0301176118      2.17e-04  
    2    -874.0389300613      1.66e-04  Done DIIS. Switching to GDM
 ---------------------------------------
  Cycle       Energy        RMS Gradient
 ---------------------------------------
    1    -874.0389300613      7.36e-03   Normal BFGS step
    2    -874.0387968192      1.20e-02  Line search: overstep
    3    -874.0421498463      2.52e-03   Normal BFGS step
    4    -874.0424402674      1.54e-03   Normal BFGS step
    5    -874.0424907299      1.22e-03   Normal BFGS step
    6    -874.0425096894      1.11e-03   Normal BFGS step
    7    -874.0425124521      1.02e-03   Normal BFGS step
    8    -874.0425147685      8.26e-04   Normal BFGS step
    9    -874.0425173076      3.50e-04   Normal BFGS step
   10    -874.0425180844      2.49e-04   Normal BFGS step
   11    -874.0425185519      1.54e-04   Normal BFGS step
   12    -874.0425187385      3.58e-05   Normal BFGS step
   13    -874.0425187771      1.47e-05   Normal BFGS step
   14    -874.0425187861      1.15e-05   Normal BFGS step
   15    -874.0425187880      4.93e-06   Normal BFGS step
   16    -874.0425187884      2.76e-06   Normal BFGS step
   17    -874.0425187885      1.18e-06   Normal BFGS step
   18    -874.0425187885      2.75e-07   Normal BFGS step
   19    -874.0425187885      1.64e-07   Normal BFGS step
   20    -874.0425187884      4.71e-08  Convergence criterion met
 ---------------------------------------
 SCF time:   CPU 6398.52s  wall 445.00s 
<S^2> =          0.753937602
(3)  G-ENP(liq) elect-nuc-pol free energy of system     -874.042518788 a.u.
(4)  G-CDS(liq) cavity-dispersion-solvent structure 
     free energy                                                3.8838 kcal/mol
(6)  G-S(liq) free energy of system                     -874.036329572 a.u.
 SCF   energy in the final basis set =     -874.0363295724
 Total energy in the final basis set =     -874.0363295724
 
 --------------------------------------------------------------
 
                    Orbital Energies (a.u.)
 --------------------------------------------------------------
 
 Alpha MOs
 -- Occupied --
-19.4675 -19.4188 -19.4023 -19.3854 -19.3595 -19.3528 -19.3514 -19.3509
-19.3505 -10.4633 -10.4589 -10.4556 -10.4162 -10.3512  -1.3493  -1.2757
 -1.2158  -1.2140  -1.1747  -1.1470  -1.1434  -1.0454  -1.0304  -0.9118
 -0.8551  -0.8121  -0.7615  -0.7212  -0.6934  -0.6879  -0.6670  -0.6571
 -0.6462  -0.6421  -0.6173  -0.6115  -0.6031  -0.5917  -0.5780  -0.5502
 -0.5463  -0.5253  -0.5232  -0.5015  -0.4877  -0.4765  -0.4645  -0.4592
 -0.4488  -0.4467  -0.4276  -0.4232  -0.4092  -0.4071  -0.3982  -0.3934
 -0.3858
 -- Virtual --
  0.0257   0.0329   0.0381   0.0438   0.0548   0.0571   0.0650   0.0707
  0.0817   0.0851   0.0976   0.1059   0.1103   0.1217   0.1245   0.1305
  0.1373   0.1422   0.1481   0.1494   0.1550   0.1574   0.1607   0.1645
  0.1710   0.1737   0.1798   0.1805   0.1876   0.2001   0.2058   0.2167
  0.2229   0.2301   0.2417   0.2441   0.2491   0.2557   0.2617   0.2641
  0.2700   0.2791   0.2850   0.2864   0.2876   0.2951   0.2972   0.3016
  0.3077   0.3114   0.3158   0.3207   0.3267   0.3320   0.3380   0.3390
  0.3448   0.3505   0.3576   0.3591   0.3640   0.3659   0.3723   0.3745
  0.3845   0.3857   0.3890   0.3954   0.3984   0.4035   0.4118   0.4155
  0.4180   0.4204   0.4243   0.4351   0.4353   0.4401   0.4479   0.4542
  0.4591   0.4616   0.4737   0.4795   0.4852   0.4953   0.5057   0.5111
  0.5218   0.5263   0.5552   0.5758   0.5941   0.6031   0.6185   0.6233
  0.6309   0.6444   0.6549   0.6644   0.6705   0.6790   0.6838   0.6849
  0.7024   0.7100   0.7159   0.7260   0.7309   0.7439   0.7503   0.7618
  0.7673   0.7692   0.7871   0.7936   0.8014   0.8155   0.8382   0.8585
  0.8611   0.8799   0.8864   0.9104   0.9134   0.9525   0.9635   0.9669
  0.9806   0.9889   1.0102   1.0222   1.0334   1.0447   1.0482   1.0652
  1.0690   1.0815   1.0857   1.1062   1.1205   1.1357   1.1448   1.1467
  1.1526   1.1597   1.1670   1.1688   1.1796   1.1956   1.1992   1.2013
  1.2088   1.2139   1.2230   1.2310   1.2384   1.2411   1.2535   1.2587
  1.2621   1.2711   1.2770   1.2799   1.2859   1.3002   1.3075   1.3232
  1.3397   1.3489   1.3606   1.3629   1.3667   1.3766   1.3882   1.4011
  1.4088   1.4237   1.4305   1.4520   1.4633   1.4732   1.4836   1.4930
  1.4973   1.5049   1.5163   1.5233   1.5337   1.5467   1.5541   1.5610
  1.5787   1.5900   1.6003   1.6101   1.6115   1.6296   1.6425   1.6619
  1.6668   1.6717   1.6894   1.6966   1.7029   1.7103   1.7331   1.7366
  1.7526   1.7668   1.7808   1.7928   1.8039   1.8255   1.8407   1.8577
  1.8659   1.8748   1.8889   1.9062   1.9373   1.9479   1.9631   1.9763
  2.0002   2.0052   2.0144   2.0569   2.0841   2.0922   2.0983   2.1340
  2.1669   2.1870   2.2038   2.2378   2.2492   2.2602   2.2772   2.2843
  2.3087   2.3321   2.3576   2.3693   2.3845   2.3991   2.4059   2.4157
  2.4551   2.4629   2.4729   2.4859   2.4956   2.5007   2.5164   2.5312
  2.5700   2.6019   2.6174   2.6653   2.7322   2.7384   2.7590   2.7672
  2.7979   2.8322   2.8467   2.8723   2.8932   2.9267   2.9357   2.9470
  2.9735   2.9995   3.0196   3.0566   3.0788   3.0910   3.1124   3.1427
  3.1583   3.1819   3.2034   3.2178   3.2609   3.2677   3.2734   3.2783
  3.3354   3.3550   3.3748   3.3824   3.3993   3.4199   3.4429   3.4559
  3.4647   3.4901   3.5323   3.5497   3.5611   3.5732   3.5770   3.5915
  3.6138   3.6453   3.6567   3.6772   3.6906   3.7001   3.7234   3.7323
  3.7465   3.7612   3.7771   3.8035   3.8104   3.8180   3.8363   3.8535
  3.8598   3.8671   3.8868   3.8994   3.9075   3.9132   3.9243   3.9354
  3.9556   3.9765   3.9828   4.0039   4.0073   4.0369   4.0500   4.0532
  4.1041   4.1250   4.1332   4.1493   4.1562   4.1767   4.2038   4.2196
  4.2267   4.2515   4.2611   4.2670   4.2863   4.3042   4.3322   4.3475
  4.3637   4.3829   4.3991   4.4148   4.4262   4.4378   4.4484   4.4528
  4.4892   4.5011   4.5437   4.5699   4.5824   4.6023   4.6055   4.6304
  4.6457   4.6715   4.6990   4.7135   4.7441   4.7507   4.7928   4.8467
  4.8729   4.9071   4.9270   4.9504   5.0064   5.0563   5.0644   5.0934
  5.0980   5.1020   5.1154   5.1743   5.2021   5.2072   5.2388   5.2500
  5.2540   5.2623   5.2682   5.2818   5.2922   5.2952   5.3049   5.3168
  5.3262   5.3317   5.3356   5.3430   5.3526   5.3639   5.3684   5.3916
  5.3948   5.4158   5.4234   5.4338   5.4486   5.4553   5.4840   5.4912
  5.4984   5.5211   5.5298   5.5479   5.5493   5.5678   5.5888   5.6096
  5.6225   5.6329   5.6441   5.6478   5.6607   5.6665   5.6801   5.6898
  5.7040   5.7150   5.7652   5.7795   5.8040   5.8060   5.8290   5.8485
  5.8875   5.9107   5.9462   5.9940   6.0432   6.0587   6.0784   6.1084
  6.1258   6.1460   6.1517   6.1733   6.3069   6.4870   6.5114   6.5188
  6.5631   6.5823   6.6331   6.7618   6.7940   6.8110   6.8578   6.8878
  6.8990   6.9744   7.0265   7.0637   7.0865   7.0922   7.0973   7.1267
  7.1577   7.1714   7.2013   7.2325   7.2401   7.2669   7.2759   7.2926
  7.2942   7.3125   7.3230   7.3261   7.3525   7.3692   7.3773   7.3953
  7.4006   7.4123   7.4231   7.4408   7.4618   7.4727   7.4939   7.5242
  7.5611   7.5917   7.6383   7.6818   7.7101   7.7143   7.7506   7.7734
  7.8041   7.8129   7.8455   7.8745   7.9088   7.9288   7.9772   8.0390
  8.0525   8.1367   8.2360  24.6605  24.7282  24.8132  24.8467  24.8757
 50.4446  50.5209  50.5678  50.5942  50.6205  50.6398  50.6460  50.6703
 50.7122
 
 Beta MOs
 -- Occupied --
-19.4571 -19.4023 -19.4001 -19.3854 -19.3595 -19.3528 -19.3514 -19.3509
-19.3505 -10.4633 -10.4585 -10.4556 -10.4166 -10.3510  -1.3231  -1.2757
 -1.2157  -1.2137  -1.1747  -1.1468  -1.1434  -1.0444  -1.0055  -0.9018
 -0.8508  -0.8117  -0.7577  -0.7206  -0.6887  -0.6857  -0.6640  -0.6555
 -0.6374  -0.6276  -0.6131  -0.6050  -0.5892  -0.5828  -0.5687  -0.5490
 -0.5283  -0.5244  -0.5132  -0.4953  -0.4855  -0.4761  -0.4643  -0.4558
 -0.4482  -0.4382  -0.4274  -0.4183  -0.4061  -0.3984  -0.3930  -0.3864
 -- Virtual --
 -0.0316   0.0258   0.0332   0.0383   0.0441   0.0550   0.0574   0.0653
  0.0708   0.0819   0.0855   0.0979   0.1063   0.1106   0.1221   0.1262
  0.1309   0.1388   0.1426   0.1486   0.1497   0.1554   0.1577   0.1610
  0.1650   0.1715   0.1747   0.1806   0.1814   0.1884   0.2013   0.2070
[...]
      3  C         3.1052475793    0.3976053238    0.9139173844
      4  O         2.0433512278    0.4272322065    1.8202252471
      5  C         3.5304614905    1.8317725050    0.6575277374
      6  C         4.7311709083    1.9505904522   -0.2697666860
      7  O         4.2624988793    2.5573210842   -1.5069562394
      8  O         4.9157688903    2.1312853702   -2.5504925918
      9  C         5.8324622436    2.8280813043    0.3206188150
     10  O         6.3497092496    2.0730386444    1.3960627531
     11  O         6.8286701333    3.1539079313   -0.6089735043
     12  H         5.3446360651    0.7987337163    2.3266607583
     13  H         1.6586689065    0.0021591403   -1.9214830455
     14  H         3.7479772215    2.2942108031    1.6188232050
     15  H         2.6905053614    2.3742628508    0.2292530491
     16  H         5.1689594380    0.9906775910   -0.5428761855
     17  H         5.4272491992    3.7762586244    0.6725800577
     18  H         6.8138741079    2.6670202406    1.9977651686
     19  H         7.1715885512    2.3394482766   -1.0007736557
     20  O         2.0858255987   -1.5976441946    0.0197631223
     21  O         4.1915239031   -0.3895818236    1.4131032373
     22  O         4.6675783738    0.1642150891    2.6373202916
     23  H         1.6425055136   -0.4547198897    1.8212866828
     24  H         3.5921397132   -0.5982132448   -0.9620916838
     25  H         2.7620516963   -2.2779226466    0.1196135362
   Point Group: c1    Number of degrees of freedom:    69


   Energy is   -874.038319007

 Hessian updated using BFGS update

 69 Hessian modes will be used to form the next step
  Hessian Eigenvalues:
     0.001431    0.003634    0.005442    0.007233    0.007586    0.008174
     0.010860    0.013917    0.015572    0.016140    0.020987    0.037569
     0.042529    0.050277    0.050968    0.053391    0.056094    0.057292
     0.064214    0.065787    0.068806    0.072440    0.076042    0.085352
     0.093480    0.095919    0.109459    0.127840    0.152898    0.159834
     0.160119    0.160579    0.161261    0.169872    0.179502    0.189042
     0.190604    0.193998    0.198175    0.208131    0.224333    0.248747
     0.251697    0.279640    0.294790    0.300201    0.303880    0.333025
     0.341296    0.343476    0.343878    0.344414    0.347574    0.375008
     0.414516    0.423746    0.428732    0.452471    0.456711    0.465020
     0.474234    0.477379    0.507790    0.523166    0.526656    0.528223
     0.529208    0.554320    0.630260

 Minimum search - taking simple RFO step
 Searching for Lamda that Minimizes Along All modes
 Value Taken    Lamda =  -0.00000041
 Step Taken.  Stepsize is  0.009441

                             Maximum     Tolerance    Cnvgd?
         Gradient           0.000053      0.000300     YES
         Displacement       0.005175      0.001200      NO
         Energy change     -0.000001      0.000001     YES

 Final energy is   -874.038319007245     


 ******************************
 **  OPTIMIZATION CONVERGED  **
 ******************************

                       Coordinates (Angstroms)
     ATOM                X               Y               Z
      1  C         2.7113354948   -0.3862062290   -0.3546185345
      2  O         1.7838797532    0.3927828743   -1.0487036198
      3  C         3.1052475793    0.3976053238    0.9139173844
      4  O         2.0433512278    0.4272322065    1.8202252471
      5  C         3.5304614905    1.8317725050    0.6575277374
      6  C         4.7311709083    1.9505904522   -0.2697666860
      7  O         4.2624988793    2.5573210842   -1.5069562394
      8  O         4.9157688903    2.1312853702   -2.5504925918
      9  C         5.8324622436    2.8280813043    0.3206188150
     10  O         6.3497092496    2.0730386444    1.3960627531
     11  O         6.8286701333    3.1539079313   -0.6089735043
     12  H         5.3446360651    0.7987337163    2.3266607583
     13  H         1.6586689065    0.0021591403   -1.9214830455
     14  H         3.7479772215    2.2942108031    1.6188232050
     15  H         2.6905053614    2.3742628508    0.2292530491
     16  H         5.1689594380    0.9906775910   -0.5428761855
     17  H         5.4272491992    3.7762586244    0.6725800577
     18  H         6.8138741079    2.6670202406    1.9977651686
     19  H         7.1715885512    2.3394482766   -1.0007736557
     20  O         2.0858255987   -1.5976441946    0.0197631223
     21  O         4.1915239031   -0.3895818236    1.4131032373
     22  O         4.6675783738    0.1642150891    2.6373202916
     23  H         1.6425055136   -0.4547198897    1.8212866828
     24  H         3.5921397132   -0.5982132448   -0.9620916838
     25  H         2.7620516963   -2.2779226466    0.1196135362

Z-matrix Print:
$molecule
0 2
O 
O  1 1.425492
H  2 0.978535 1 102.142037
C  1 1.431379 2 109.833711 3 -89.152696 0
O  4 1.396387 1 111.249770 2 -60.279889 0
H  5 0.968771 4 107.220456 1 -70.692991 0
C  4 1.517688 1 111.467732 2 59.843978 0
H  7 1.087769 4 108.750126 1 176.902803 0
H  7 1.088692 4 107.950815 1 -67.503022 0
C  7 1.521741 4 113.440213 1 55.065703 0
H  10 1.089807 7 113.634469 4 -5.298506 0
O  10 1.455477 7 107.244385 4 112.079932 0
O  12 1.302780 10 112.524937 7 -147.576330 0
C  10 1.526888 7 112.232163 4 -128.554596 0
H  14 1.089548 10 110.902817 7 -49.870443 0
O  14 1.400976 10 112.952891 7 -168.756157 0
H  16 0.966667 14 108.979872 10 -53.994412 0
O  14 1.412166 10 104.558983 7 69.626086 0
H  18 0.964525 14 108.789123 10 -160.037686 0
C  4 1.542307 1 101.605864 2 -177.903426 0
H  20 1.090773 4 110.523969 1 -49.481290 0
O  20 1.395977 4 107.159898 1 -171.277245 0
H  22 0.964370 20 108.072004 4 169.068332 0
O  20 1.413862 4 109.308230 1 71.434911 0
H  24 0.964381 20 108.760115 4 -89.224332 0
$end

 
 --------------------------------------------------------------
 
                    Orbital Energies (a.u.)
 --------------------------------------------------------------
 
 Alpha MOs
 -- Occupied --
-19.4672 -19.4189 -19.4039 -19.3898 -19.3602 -19.3533 -19.3517 -19.3516
-19.3513 -10.4626 -10.4584 -10.4556 -10.4169 -10.3529  -1.3475  -1.2775
 -1.2152  -1.2127  -1.1741  -1.1456  -1.1432  -1.0453  -1.0299  -0.9115
 -0.8535  -0.8113  -0.7599  -0.7194  -0.6913  -0.6869  -0.6660  -0.6562
 -0.6462  -0.6411  -0.6165  -0.6102  -0.6008  -0.5906  -0.5764  -0.5501
 -0.5460  -0.5274  -0.5246  -0.5018  -0.4884  -0.4785  -0.4643  -0.4582
 -0.4482  -0.4456  -0.4262  -0.4235  -0.4104  -0.4069  -0.4038  -0.3944
 -0.3858
 -- Virtual --
  0.0257   0.0326   0.0383   0.0438   0.0548   0.0570   0.0649   0.0713
  0.0805   0.0848   0.0983   0.1065   0.1106   0.1210   0.1234   0.1297
  0.1368   0.1426   0.1490   0.1493   0.1552   0.1569   0.1600   0.1642
  0.1705   0.1733   0.1795   0.1797   0.1875   0.1990   0.2055   0.2153
  0.2232   0.2287   0.2405   0.2448   0.2475   0.2551   0.2608   0.2640
  0.2697   0.2783   0.2838   0.2854   0.2863   0.2963   0.2979   0.3029
  0.3060   0.3105   0.3154   0.3201   0.3259   0.3310   0.3365   0.3376
  0.3431   0.3501   0.3570   0.3596   0.3627   0.3650   0.3697   0.3711
  0.3814   0.3844   0.3880   0.3949   0.3998   0.4034   0.4117   0.4136
  0.4169   0.4218   0.4237   0.4314   0.4339   0.4439   0.4456   0.4539
  0.4585   0.4645   0.4744   0.4795   0.4846   0.4940   0.5045   0.5110
  0.5223   0.5277   0.5546   0.5751   0.5940   0.6005   0.6152   0.6228
  0.6288   0.6433   0.6526   0.6645   0.6718   0.6787   0.6834   0.6897
  0.7044   0.7067   0.7163   0.7273   0.7299   0.7414   0.7463   0.7556
  0.7671   0.7713   0.7894   0.7946   0.8016   0.8133   0.8382   0.8547
  0.8581   0.8776   0.8842   0.9118   0.9193   0.9491   0.9630   0.9738
  0.9816   0.9946   1.0105   1.0210   1.0320   1.0409   1.0566   1.0659
  1.0724   1.0818   1.0985   1.1067   1.1088   1.1338   1.1417   1.1479
  1.1503   1.1570   1.1660   1.1678   1.1784   1.1962   1.1998   1.2005
  1.2057   1.2111   1.2244   1.2253   1.2347   1.2394   1.2505   1.2550
  1.2593   1.2669   1.2690   1.2780   1.2839   1.2954   1.3069   1.3215
  1.3253   1.3359   1.3585   1.3622   1.3664   1.3734   1.3828   1.3943
  1.4019   1.4253   1.4350   1.4520   1.4618   1.4767   1.4792   1.4926
  1.4971   1.5085   1.5215   1.5234   1.5298   1.5493   1.5539   1.5624
  1.5739   1.5866   1.5992   1.6094   1.6116   1.6277   1.6420   1.6572
  1.6652   1.6664   1.6855   1.6970   1.7055   1.7131   1.7369   1.7387
  1.7522   1.7693   1.7782   1.7882   1.8036   1.8191   1.8314   1.8663
  1.8762   1.8780   1.8948   1.9273   1.9401   1.9497   1.9621   1.9788
  2.0025   2.0062   2.0209   2.0521   2.0819   2.0870   2.1055   2.1228
  2.1535   2.1819   2.2035   2.2168   2.2425   2.2553   2.2760   2.2830
  2.2979   2.3299   2.3618   2.3710   2.3807   2.3993   2.4029   2.4136
  2.4296   2.4545   2.4754   2.4871   2.4966   2.5058   2.5134   2.5340
  2.5656   2.6075   2.6307   2.6642   2.7302   2.7423   2.7579   2.7741
  2.8036   2.8361   2.8510   2.8755   2.8948   2.9205   2.9367   2.9574
  2.9761   2.9947   3.0194   3.0509   3.0726   3.0904   3.1092   3.1396
  3.1540   3.1783   3.2031   3.2191   3.2556   3.2673   3.2734   3.2843
  3.3401   3.3589   3.3744   3.3774   3.4007   3.4205   3.4486   3.4582
  3.4655   3.4923   3.5299   3.5447   3.5655   3.5678   3.5796   3.5929
  3.6069   3.6468   3.6557   3.6732   3.6846   3.6975   3.7272   3.7301
  3.7458   3.7541   3.7742   3.7999   3.8101   3.8144   3.8347   3.8484
  3.8555   3.8652   3.8883   3.8922   3.9038   3.9107   3.9206   3.9383
  3.9539   3.9739   3.9838   3.9965   4.0106   4.0298   4.0448   4.0476
  4.1014   4.1081   4.1300   4.1419   4.1515   4.1783   4.2027   4.2161
  4.2292   4.2432   4.2534   4.2647   4.2789   4.2964   4.3260   4.3334
  4.3628   4.3653   4.3908   4.4052   4.4172   4.4219   4.4443   4.4478
  4.4884   4.4953   4.5337   4.5658   4.5827   4.6012   4.6054   4.6268
  4.6413   4.6685   4.7040   4.7129   4.7443   4.7484   4.7880   4.8406
  4.8703   4.9079   4.9235   4.9473   4.9989   5.0473   5.0713   5.0949
  5.0997   5.1014   5.1167   5.1740   5.1965   5.2080   5.2316   5.2479
  5.2571   5.2632   5.2649   5.2777   5.2972   5.2987   5.3028   5.3176
  5.3254   5.3302   5.3329   5.3346   5.3509   5.3635   5.3687   5.3909
  5.3998   5.4205   5.4292   5.4360   5.4493   5.4550   5.4794   5.4962
  5.5032   5.5132   5.5358   5.5390   5.5436   5.5648   5.5826   5.6022
  5.6228   5.6275   5.6318   5.6478   5.6510   5.6609   5.6702   5.6830
  5.6944   5.7087   5.7609   5.7710   5.7984   5.8003   5.8290   5.8486
  5.8839   5.8956   5.9448   5.9876   6.0344   6.0415   6.0581   6.1014
  6.1179   6.1323   6.1424   6.1779   6.2922   6.4761   6.5054   6.5184
  6.5617   6.5798   6.6206   6.7606   6.7880   6.8103   6.8585   6.8806
  6.8990   6.9737   7.0219   7.0630   7.0833   7.0911   7.0988   7.1269
  7.1623   7.1636   7.1747   7.2292   7.2337   7.2514   7.2656   7.2749
  7.2783   7.2977   7.3202   7.3230   7.3440   7.3605   7.3617   7.3837
  7.3935   7.4074   7.4184   7.4294   7.4575   7.4680   7.4863   7.5305
  7.5523   7.5924   7.6301   7.6710   7.7063   7.7166   7.7471   7.7731
  7.7939   7.8159   7.8304   7.8664   7.9011   7.9273   7.9766   8.0355
  8.0496   8.1330   8.2320  24.6475  24.7191  24.8038  24.8377  24.8732
 50.4431  50.5155  50.5673  50.5939  50.6166  50.6340  50.6435  50.6687
 50.7193
 
 Beta MOs
 -- Occupied --
-19.4568 -19.4039 -19.4002 -19.3898 -19.3601 -19.3533 -19.3516 -19.3516
-19.3513 -10.4626 -10.4580 -10.4556 -10.4173 -10.3528  -1.3214  -1.2775
 -1.2152  -1.2123  -1.1741  -1.1454  -1.1432  -1.0445  -1.0046  -0.9017
 -0.8489  -0.8108  -0.7561  -0.7189  -0.6869  -0.6845  -0.6624  -0.6558
 -0.6364  -0.6268  -0.6103  -0.6052  -0.5886  -0.5820  -0.5663  -0.5490
 -0.5318  -0.5252  -0.5122  -0.4960  -0.4861  -0.4778  -0.4637  -0.4544
 -0.4474  -0.4377  -0.4258  -0.4180  -0.4079  -0.4034  -0.3941  -0.3865
 -- Virtual --
 -0.0322   0.0257   0.0329   0.0384   0.0441   0.0549   0.0573   0.0652
  0.0714   0.0807   0.0853   0.0985   0.1070   0.1109   0.1214   0.1248
  0.1300   0.1385   0.1429   0.1493   0.1497   0.1556   0.1571   0.1604
  0.1647   0.1711   0.1742   0.1799   0.1808   0.1884   0.2003   0.2066
  0.2162   0.2258   0.2291   0.2417   0.2455   0.2481   0.2575   0.2619
  0.2678   0.2708   0.2789   0.2846   0.2863   0.2873   0.2972   0.2987
  0.3051   0.3068   0.3130   0.3160   0.3208   0.3260   0.3317   0.3366
  0.3389   0.3437   0.3504   0.3573   0.3604   0.3635   0.3651   0.3699
  0.3713   0.3822   0.3856   0.3886   0.3952   0.4010   0.4044   0.4126
  0.4147   0.4174   0.4235   0.4245   0.4317   0.4344   0.4446   0.4459
  0.4544   0.4593   0.4647   0.4745   0.4814   0.4851   0.4943   0.5048
  0.5116   0.5226   0.5279   0.5552   0.5755   0.5942   0.6012   0.6154
  0.6231   0.6292   0.6443   0.6533   0.6647   0.6720   0.6789   0.6839
  0.6900   0.7048   0.7074   0.7166   0.7274   0.7304   0.7420   0.7465
  0.7563   0.7672   0.7716   0.7899   0.7957   0.8021   0.8137   0.8389
  0.8551   0.8584   0.8780   0.8844   0.9120   0.9197   0.9502   0.9634
  0.9744   0.9819   0.9952   1.0109   1.0230   1.0333   1.0419   1.0572
  1.0665   1.0742   1.0825   1.1002   1.1077   1.1091   1.1357   1.1446
  1.1489   1.1555   1.1599   1.1679   1.1691   1.1812   1.1982   1.2009
  1.2034   1.2085   1.2127   1.2263   1.2321   1.2384   1.2404   1.2526
  1.2569   1.2626   1.2680   1.2736   1.2796   1.2917   1.2969   1.3101
  1.3234   1.3281   1.3383   1.3599   1.3650   1.3685   1.3742   1.3847
  1.3964   1.4034   1.4271   1.4369   1.4538   1.4638   1.4778   1.4807
  1.4936   1.4980   1.5113   1.5223   1.5249   1.5304   1.5516   1.5560
  1.5635   1.5754   1.5915   1.6016   1.6105   1.6151   1.6292   1.6470
  1.6594   1.6675   1.6696   1.6905   1.7034   1.7106   1.7161   1.7412
  1.7446   1.7608   1.7755   1.7792   1.7900   1.8071   1.8226   1.8345
  1.8699   1.8771   1.8805   1.8960   1.9285   1.9417   1.9508   1.9641
  1.9806   2.0049   2.0076   2.0244   2.0549   2.0865   2.0896   2.1069
  2.1230   2.1547   2.1833   2.2038   2.2228   2.2441   2.2615   2.2794
  2.2908   2.2999   2.3335   2.3671   2.3721   2.3833   2.4004   2.4069
  2.4162   2.4307   2.4552   2.4761   2.4888   2.4978   2.5069   2.5146
  2.5348   2.5662   2.6084   2.6314   2.6673   2.7307   2.7463   2.7595
  2.7748   2.8039   2.8365   2.8515   2.8758   2.8950   2.9210   2.9372
  2.9578   2.9763   2.9948   3.0199   3.0520   3.0730   3.0914   3.1098
  3.1402   3.1543   3.1787   3.2034   3.2194   3.2558   3.2674   3.2739
  3.2848   3.3405   3.3593   3.3746   3.3774   3.4011   3.4208   3.4487
  3.4584   3.4665   3.4924   3.5304   3.5449   3.5659   3.5681   3.5800
  3.5934   3.6073   3.6470   3.6562   3.6734   3.6851   3.6982   3.7273
  3.7303   3.7461   3.7544   3.7745   3.8000   3.8105   3.8145   3.8351
  3.8487   3.8556   3.8653   3.8888   3.8923   3.9040   3.9108   3.9208
  3.9386   3.9540   3.9740   3.9843   3.9968   4.0107   4.0301   4.0451
  4.0482   4.1015   4.1086   4.1303   4.1420   4.1523   4.1786   4.2029
  4.2165   4.2295   4.2435   4.2537   4.2648   4.2796   4.2968   4.3267
  4.3337   4.3630   4.3658   4.3916   4.4056   4.4181   4.4224   4.4446
  4.4495   4.4901   4.4968   4.5344   4.5664   4.5871   4.6046   4.6153
  4.6288   4.6424   4.6717   4.7086   4.7225   4.7493   4.7609   4.7883
  4.8448   4.8759   4.9118   4.9338   4.9590   5.0038   5.0612   5.0734
  5.1006   5.1435   5.1490   5.1905   5.1980   5.2065   5.2176   5.2320
  5.2524   5.2593   5.2654   5.2792   5.2940   5.3026   5.3066   5.3130
  5.3200   5.3294   5.3314   5.3334   5.3422   5.3585   5.3655   5.3761
  5.3922   5.4079   5.4224   5.4328   5.4447   5.4522   5.4577   5.4887
  5.4987   5.5060   5.5159   5.5361   5.5401   5.5483   5.5673   5.5916
  5.6066   5.6237   5.6289   5.6331   5.6482   5.6558   5.6625   5.6712
  5.6868   5.6965   5.7116   5.7612   5.7723   5.8075   5.8086   5.8297
  5.8530   5.8861   5.8999   5.9452   5.9878   6.0352   6.0417   6.0584
  6.1016   6.1203   6.1325   6.1433   6.1780   6.2922   6.5048   6.5253
  6.5284   6.5668   6.5803   6.6324   6.7639   6.7889   6.8106   6.8815
  6.9412   6.9757   7.0181   7.0327   7.0667   7.0841   7.0925   7.1004
  7.1539   7.1635   7.1737   7.1770   7.2446   7.2487   7.2538   7.2689
  7.2759   7.2806   7.2994   7.3230   7.3371   7.3455   7.3616   7.3758
  7.3843   7.3944   7.4104   7.4218   7.4496   7.4645   7.4793   7.5093
  7.5316   7.5574   7.5930   7.6309   7.6717   7.7068   7.7168   7.7473
  7.7732   7.7940   7.8218   7.8318   7.8724   7.9016   7.9274   7.9767
  8.0397   8.0598   8.1514   8.2320  24.6474  24.7191  24.8040  24.8378
 24.8732  50.4558  50.5157  50.5745  50.5940  50.6176  50.6342  50.6440
 50.6695  50.7193
 --------------------------------------------------------------
 
          Ground-State Mulliken Net Atomic Charges

     Atom                 Charge (a.u.)    Spin (a.u.)
  --------------------------------------------------------
      1 C                     0.039034      -0.000914
      2 O                    -0.406219      -0.000240
      3 C                    -0.122962       0.000592
      4 O                    -0.423438      -0.000126
      5 C                    -0.519311      -0.004187
      6 C                    -0.124741       0.010643
      7 O                     0.126784       0.312268
      8 O                    -0.237011       0.667136
      9 C                    -0.344136       0.011507
     10 O                    -0.421868       0.001459
     11 O                    -0.442793      -0.000921
     12 H                     0.411960       0.000094
     13 H                     0.342773       0.000123
     14 H                     0.322964       0.000211
     15 H                     0.305875       0.000275
     16 H                     0.395143       0.001521
     17 H                     0.319472      -0.000723
     18 H                     0.357219       0.000476
     19 H                     0.348285       0.000553
     20 O                    -0.467461       0.000020
     21 O                    -0.138135       0.000338
     22 O                    -0.348931      -0.000020
     23 H                     0.350784       0.000117
     24 H                     0.332736      -0.000101
     25 H                     0.343978      -0.000103
  --------------------------------------------------------
  Sum of atomic charges =     0.000000
  Sum of spin   charges =     1.000000

 -----------------------------------------------------------------
                    Cartesian Multipole Moments
 -----------------------------------------------------------------
    Charge (ESU x 10^10)
                 0.0000
    Dipole Moment (Debye)
         X       3.4142      Y      -0.9399      Z      -0.1713
       Tot       3.5453
    Quadrupole Moments (Debye-Ang)
        XX     -58.0736     XY       2.0484     YY     -78.6401
        XZ      10.0118     YZ      18.0157     ZZ     -91.0597
    Octopole Moments (Debye-Ang^2)
       XXX    -843.4674    XXY     -61.3905    XYY    -323.7180
       YYY    -286.8812    XXZ      71.9358    XYZ     107.8986
       YYZ      39.2660    XZZ    -367.6720    YZZ     -98.3664
       ZZZ     -62.5822
    Hexadecapole Moments (Debye-Ang^3)
      XXXX   -8383.2014   XXXY   -1311.9490   XXYY   -1883.0364
      XYYY   -1618.8049   YYYY   -1650.2421   XXXZ     419.2193
      XXYZ     654.3018   XYYZ     254.2707   YYYZ     257.1728
      XXZZ   -1795.9310   XYZZ    -474.0737   YYZZ    -453.2488
      XZZZ    -153.9072   YZZZ     178.3631   ZZZZ   -1119.1852
 -----------------------------------------------------------------
 Total job time:  6604.94s(wall), 92372.63s(cpu) 
 Sat Jun 22 21:05:20 2024

        *************************************************************
        *                                                           *
        *  Thank you very much for using Q-Chem.  Have a nice day.  *
        *                                                           *
        *************************************************************


