
Running Job 1 of 1 Q_in.in
qchem Q_in.in_366770.0 /scratch/ari.fischer/qChem2257867.hpc-mn1/qchem366770/ 0
/usr/local/qchem-5.4.1/exe/qcprog.exe_s Q_in.in_366770.0 /scratch/ari.fischer/qChem2257867.hpc-mn1/qchem366770/
                  Welcome to Q-Chem
     A Quantum Leap Into The Future Of Chemistry


 Q-Chem 5.4, Q-Chem, Inc., Pleasanton, CA (2021)

 License issued to: Nanyang Technological University (site)

 E. Epifanovsky,  A. T. B. Gilbert,  Xintian Feng,  Joonho Lee,  Yuezhi Mao,  
 N. Mardirossian,  P. Pokhilko,  A. White,  M. Wormit,  M. P. Coons,  
 A. L. Dempwolff,  Zhengting Gan,  D. Hait,  P. R. Horn,  L. D. Jacobson,  
 I. Kaliman,  J. Kussmann,  A. W. Lange,  Ka Un Lao,  D. S. Levine,  Jie Liu,  
 S. C. McKenzie,  A. F. Morrison,  K. Nanda,  F. Plasser,  D. R. Rehn,  
 M. L. Vidal,  Zhi-Qiang You,  Ying Zhu,  B. Alam,  B. Albrecht,  
 A. Aldossary,  E. Alguire,  J. H. Andersen,  D. Barton,  K. Begam,  A. Behn,  
 Y. A. Bernard,  E. J. Berquist,  H. Burton,  A. Carreras,  K. Carter-Fenk,  
 R. Chakraborty,  A. D. Chien,  K. D. Closser,  V. Cofer-Shabica,  
 S. Dasgupta,  Jia Deng,  M. de Wergifosse,  M. Diedenhofen,  Hainam Do,  
 S. Ehlert,  Po-Tung Fang,  S. Fatehi,  Qingguo Feng,  T. Friedhoff,  
 J. Gayvert,  Qinghui Ge,  G. Gidofalvi,  M. Goldey,  J. Gomes,  
 C. Gonzalez-Espinoza,  S. Gulania,  A. Gunina,  M. W. D. Hanson-Heine,  
 P. H. P. Harbach,  A. W. Hauser,  M. F. Herbst,  M. Hernandez Vera,  
 M. Hodecker,  Z. C. Holden,  S. Houck,  Xunkun Huang,  Kerwin Hui,  
 B. C. Huynh,  M. Ivanov,  Hyunjun Ji,  Hanjie Jiang,  B. Kaduk,  S. Kaehler,  
 K. Khistyaev,  Jaehoon Kim,  P. Klunzinger,  Z. Koczor-Benda,  
 Joong Hoon Koh,  D. Kosenkov,  L. Koulias,  T. Kowalczyk,  C. M. Krauter,  
 K. Kue,  A. Kunitsa,  T. Kus,  A. Landau,  K. V. Lawler,  D. Lefrancois,  
 S. Lehtola,  Rain Li,  Yi-Pei Li,  Jiashu Liang,  M. Liebenthal,  
 Hung-Hsuan Lin,  You-Sheng Lin,  Fenglai Liu,  Kuan-Yu Liu,  
 M. Loipersberger,  A. Luenser,  A. Manjanath,  P. Manohar,  E. Mansoor,  
 S. F. Manzer,  Shan-Ping Mao,  A. V. Marenich,  T. Markovich,  S. Mason,  
 S. A. Maurer,  P. F. McLaughlin,  M. F. S. J. Menger,  J.-M. Mewes,  
 S. A. Mewes,  P. Morgante,  J. W. Mullinax,  K. J. Oosterbaan,  G. Paran,  
 Alexander C. Paul,  Suranjan K. Paul,  F. Pavosevic,  Zheng Pei,  S. Prager,  
 E. I. Proynov,  E. Ramos,  B. Rana,  A. E. Rask,  A. Rettig,  R. M. Richard,  
 F. Rob,  E. Rossomme,  T. Scheele,  M. Scheurer,  M. Schneider,  
 N. Sergueev,  S. M. Sharada,  W. Skomorowski,  D. W. Small,  C. J. Stein,  
 Yu-Chuan Su,  E. J. Sundstrom,  Zhen Tao,  J. Thirman,  T. Tsuchimochi,  
 N. M. Tubman,  S. P. Veccham,  O. Vydrov,  J. Wenzel,  J. Witte,  A. Yamada,  
 Kun Yao,  S. Yeganeh,  S. R. Yost,  A. Zech,  Igor Ying Zhang,  Xing Zhang,  
 Yu Zhang,  D. Zuev,  A. Aspuru-Guzik,  A. T. Bell,  N. A. Besley,  
 K. B. Bravaya,  B. R. Brooks,  D. Casanova,  Jeng-Da Chai,  S. Coriani,  
 C. J. Cramer,  A. E. DePrince, III,  R. A. DiStasio Jr.,  A. Dreuw,  
 B. D. Dunietz,  T. R. Furlani,  W. A. Goddard III,  S. Grimme,  
 S. Hammes-Schiffer,  T. Head-Gordon,  W. J. Hehre,  Chao-Ping Hsu,  
 T.-C. Jagau,  Yousung Jung,  A. Klamt,  Jing Kong,  D. S. Lambrecht,  
 WanZhen Liang,  N. J. Mayhall,  C. W. McCurdy,  J. B. Neaton,  
 C. Ochsenfeld,  J. A. Parkhill,  R. Peverati,  V. A. Rassolov,  Yihan Shao,  
 L. V. Slipchenko,  T. Stauch,  R. P. Steele,  J. E. Subotnik,  
 A. J. W. Thom,  A. Tkatchenko,  D. G. Truhlar,  T. Van Voorhis,  
 T. A. Wesolowski,  K. B. Whaley,  H. L. Woodcock III,  P. M. Zimmerman,  
 S. Faraji,  P. M. W. Gill,  M. Head-Gordon,  J. M. Herbert,  A. I. Krylov

 Additional authors for Version 5.4.1: 
 S. Kotaru,  Shaozhi Li,  Xiangyuan Li,  F. Matz,  A. Molle,  Haisheng Ren,  
 Yingli Su,  Hung-Yi Tsai,  C. Utku,  Fang Wang

 Contributors to earlier versions of Q-Chem not listed above: 
 R. D. Adamson,  B. Austin,  R. Baer,  J. Baker,  G. J. O. Beran,  
 K. Brandhorst,  S. T. Brown,  E. F. C. Byrd,  A. K. Chakraborty,  
 G. K. L. Chan,  Chun-Min Chang,  Yunqing Chen,  C.-L. Cheng,  
 Siu Hung Chien,  D. M. Chipman,  D. L. Crittenden,  H. Dachsel,  
 R. J. Doerksen,  A. D. Dutoi,  R. G. Edgar,  J. Fosso-Tande,  
 L. Fusti-Molnar,  D. Ghosh,  A. Ghysels,  A. Golubeva-Zadorozhnaya,  
 J. Gonthier,  M. S. Gordon,  S. R. Gwaltney,  G. Hawkins,  J. E. Herr,  
 A. Heyden,  S. Hirata,  E. G. Hohenstein,  G. Kedziora,  F. J. Keil,  
 C. Kelley,  Jihan Kim,  R. A. King,  R. Z. Khaliullin,  P. P. Korambath,  
 W. Kurlancheek,  A. Laurent,  A. M. Lee,  M. S. Lee,  S. V. Levchenko,  
 Ching Yeh Lin,  D. Liotard,  E. Livshits,  R. C. Lochan,  I. Lotan,  
 L. A. Martinez-Martinez,  P. E. Maslen,  N. Nair,  D. P. O'Neill,  
 D. Neuhauser,  E. Neuscamman,  C. M. Oana,  R. Olivares-Amaya,  R. Olson,  
 T. M. Perrine,  B. Peters,  P. A. Pieniazek,  A. Prociuk,  Y. M. Rhee,  
 J. Ritchie,  M. A. Rohrdanz,  E. Rosta,  N. J. Russ,  H. F. Schaefer III,  
 M. W. Schmidt,  N. E. Schultz,  S. Sharma,  N. Shenvi,  C. D. Sherrill,  
 A. C. Simmonett,  A. Sodt,  T. Stein,  D. Stuck,  K. S. Thanthiriwatte,  
 V. Vanovschi,  L. Vogt,  Tao Wang,  A. Warshel,  M. A. Watson,  
 C. F. Williams,  Q. Wu,  X. Xu,  Jun Yang,  W. Zhang,  Yan Zhao

 Please cite Q-Chem as follows:
 Y. Shao et al., Mol. Phys. 113, 184-215 (2015)
 DOI: 10.1080/00268976.2014.952696

 Q-Chem 5.4.1 for Intel X86 EM64T Linux

 Parts of Q-Chem use Armadillo 9.800.1 (Horizon Scraper).
 http://arma.sourceforge.net/

 Q-Chem begins on Wed Jul 31 20:40:34 2024  

 Host: 
0

     Scratch files written to /scratch/ari.fischer/qChem2257867.hpc-mn1/qchem366770//
 Aug1521 |scratch|qcdevops|jenkins|workspace|build_RNUM 8249   
 Processing $rem in /usr/local/qchem-5.4.1/config/preferences:
 Processing $rem in /home/ari.fischer/.qchemrc:
 Symmetry turned off for PCM/SM12/SMD calculation


!!********************************************.
!!******************Warning*******************.
!!Desired Analytical derivatives not available.
!!Finite difference job might take a long time.
!!********************************************.
!!********************************************.


 2-order derivative to be evaluated numerically with 1-order analytical derivatives

 Checking the input file for inconsistencies... 	...done.

--------------------------------------------------------------
User input:
--------------------------------------------------------------
$molecule
0 2
C   -0.0788662   -0.2194728    0.7168987
C   -0.9774746   -0.8856012    1.7441072
C   -1.6191851   -2.1238335    1.1810674
C   -1.9809015   -2.1603518   -0.0944288
C   -1.7819778   -0.9811089   -0.9967090
C   -1.1762441    0.2236216   -0.2539194
C   -0.7505148    1.3969173   -1.1298950
H    0.3956171    0.6589881    1.1570558
H   -0.5077660   -1.0379253    2.7115760
H   -1.8043999   -2.9594513    1.8415109
H   -2.4652366   -3.0261418   -0.5265956
H   -2.7180883   -0.6666800   -1.4564726
H   -1.4762275    1.5813732   -1.9220545
O    0.5527122    1.1916637   -1.6654489
H   -0.7012299    2.2742842   -0.4873852
H    0.4804280    0.7231460   -2.5032047
O    0.8680367   -1.1020439    0.1661267
H    1.3228865   -0.6177905   -0.5355252
O   -1.9501146    0.1461126    1.9503980
O   -2.2239183    0.6762474    0.6154166
O   -1.3273552   -0.9497116   -3.2551318
O   -0.9278459   -1.4172336   -2.1047810
$end

$rem
BASIS = 6-311++G(2df,2p)
GUI = 2
JOB_TYPE = Frequency
METHOD = wB97M-V
SOLVENT_METHOD = SMD
SCF_ALGORITHM = DIIS_GDM
MAX_SCF_CYCLES = 400
SCF_CONVERGENCE = 7
THRESH = 12
$end
--------------------------------------------------------------
 ----------------------------------------------------------------
             Standard Nuclear Orientation (Angstroms)
    I     Atom           X                Y                Z
 ----------------------------------------------------------------
    1      C      -0.0788662000    -0.2194728000     0.7168987000
    2      C      -0.9774746000    -0.8856012000     1.7441072000
    3      C      -1.6191851000    -2.1238335000     1.1810674000
    4      C      -1.9809015000    -2.1603518000    -0.0944288000
    5      C      -1.7819778000    -0.9811089000    -0.9967090000
    6      C      -1.1762441000     0.2236216000    -0.2539194000
    7      C      -0.7505148000     1.3969173000    -1.1298950000
    8      H       0.3956171000     0.6589881000     1.1570558000
    9      H      -0.5077660000    -1.0379253000     2.7115760000
   10      H      -1.8043999000    -2.9594513000     1.8415109000
   11      H      -2.4652366000    -3.0261418000    -0.5265956000
   12      H      -2.7180883000    -0.6666800000    -1.4564726000
   13      H      -1.4762275000     1.5813732000    -1.9220545000
   14      O       0.5527122000     1.1916637000    -1.6654489000
   15      H      -0.7012299000     2.2742842000    -0.4873852000
   16      H       0.4804280000     0.7231460000    -2.5032047000
   17      O       0.8680367000    -1.1020439000     0.1661267000
   18      H       1.3228865000    -0.6177905000    -0.5355252000
   19      O      -1.9501146000     0.1461126000     1.9503980000
   20      O      -2.2239183000     0.6762474000     0.6154166000
   21      O      -1.3273552000    -0.9497116000    -3.2551318000
   22      O      -0.9278459000    -1.4172336000    -2.1047810000
 ----------------------------------------------------------------
 Nuclear Repulsion Energy =         920.42870745 hartrees
 There are       50 alpha and       49 beta electrons
 Requested basis set is 6-311++G(2df,2p)
 There are 158 shells and 532 basis functions

 Total QAlloc Memory Limit 288000 MB
 Mega-Array Size       188 MB
 MEM_STATIC part       192 MB
 
 Citation of the SMD model:
 Marenich, A.V.; Cramer, C.J.; Truhlar, D.G.
 J. Phys. Chem. B 2009, 113, 6378-6396.
 iSolventCode=           1
 Solvent: water                                                           
 
 vradii
            1           2           3           4           5           6
    1   1.8500000   1.8500000   1.8500000   1.8500000   1.8500000   1.8500000
            7           8           9          10          11          12
    1   1.8500000   1.2000000   1.2000000   1.2000000   1.2000000   1.2000000
           13          14          15          16          17          18
    1   1.2000000   1.5200000   1.2000000   1.2000000   1.5200000   1.2000000
           19          20          21          22
    1   1.5200000   1.5200000   1.5200000   1.5200000
 Changing PCM_VDW_RADII to SMD_RADIUS
 Discretize the solute cavity surface with Lebedev spheres
	Using 110 Lebedev grid points for each H atom
	Using 194 Lebedev grid points for other atoms
	Atomic van der Waals radii will be scaled by 1.20
 Remove points where switching function is < 1.0e-08
 Keep 1617 surface tesserae and discard 1895 interior tesserae
 Molecular Surface Area = 178.966 Angst**2
 A cutoff of  1.0D-12 yielded  11166 shell pairs
 There are    127597 function pairs (    160132 Cartesian)
 Smallest overlap matrix eigenvalue = 2.12E-06
 Guess from superposition of atomic densities
 Warning:  Energy on first SCF cycle will be non-variational
 SAD guess density has 99.000000 electrons

 -----------------------------------------------------------------------
  General SCF calculation program by
  Eric Jon Sundstrom, Paul Horn, Yuezhi Mao, Dmitri Zuev, Alec White,
  David Stuck, Shaama M.S., Shane Yost, Joonho Lee, David Small,
  Daniel Levine, Susi Lehtola, Hugh Burton, Evgeny Epifanovsky,
  Bang C. Huynh
 -----------------------------------------------------------------------
 Exchange:     0.1500 Hartree-Fock + 1.0000 wB97M-V + LR-HF
 Correlation:  1.0000 wB97M-V
 Using SG-2 standard quadrature grid
 Nonlocal Correlation:  VV10 with C = 0.0100 and b = 6.00 and scale = 1.00000
 Grid used for NLC:  SG-1 standard quadrature
 using 16 threads for integral computing
 -------------------------------------------------------
 OpenMP Integral computing Module                
 Release: version 1.0, May 2013, Q-Chem Inc. Pittsburgh 
 -------------------------------------------------------
 
 Citation of the SMD model:
 Marenich, A.V.; Cramer, C.J.; Truhlar, D.G.
 J. Phys. Chem. B 2009, 113, 6378-6396.
 iSolventCode=           1
 Solvent: water                                                           
 
 vradii
            1           2           3           4           5           6
    1   1.8500000   1.8500000   1.8500000   1.8500000   1.8500000   1.8500000
            7           8           9          10          11          12
    1   1.8500000   1.2000000   1.2000000   1.2000000   1.2000000   1.2000000
           13          14          15          16          17          18
    1   1.2000000   1.5200000   1.2000000   1.2000000   1.5200000   1.2000000
           19          20          21          22
    1   1.5200000   1.5200000   1.5200000   1.5200000
 -------------------------------------------------------
 OpenMP BLAS3 based DFT computing Module                
 Release: version 1.0, May 2013, Q-Chem Inc. Pittsburgh 
 -------------------------------------------------------
 A unrestricted SCF calculation will be
 performed using DIIS, GDM
 SCF converges when RMS gradient is below 1.0e-07
 ---------------------------------------
  Cycle       Energy         DIIS error
 ---------------------------------------
    1    -726.6393524455      1.09e-02  
    2    -723.1223879368      1.15e-03  Done DIIS. Switching to GDM
 ---------------------------------------
  Cycle       Energy        RMS Gradient
 ---------------------------------------
    1    -723.1223879368      8.64e-02   Descent step
    2    -723.2561180320      4.38e-02   Normal BFGS step
    3    -723.2804312897      2.70e-02   Normal BFGS step
    4    -723.2843729584      7.71e-03   Normal BFGS step
    5    -723.2860353871      4.66e-03   Normal BFGS step
    6    -723.2863236082      4.21e-03   Normal BFGS step
    7    -723.2864198571      2.12e-03   Normal BFGS step
    8    -723.2864487833      1.13e-03   Normal BFGS step
    9    -723.2864547621      9.14e-04   Normal BFGS step
   10    -723.2864589931      5.97e-04   Normal BFGS step
   11    -723.2864608740      5.35e-04   Normal BFGS step
   12    -723.2864631725      3.87e-04   Normal BFGS step
   13    -723.2864640125      1.62e-04   Normal BFGS step
   14    -723.2864642443      3.55e-05   Normal BFGS step
   15    -723.2864642790      1.43e-05   Normal BFGS step
   16    -723.2864642831      7.73e-06   Normal BFGS step
   17    -723.2864642842      4.89e-06   Normal BFGS step
   18    -723.2864642844      3.13e-06   Normal BFGS step
   19    -723.2864642845      1.89e-06   Normal BFGS step
   20    -723.2864642846      6.87e-07   Normal BFGS step
   21    -723.2864642846      2.49e-07   Normal BFGS step
   22    -723.2864642846      1.19e-07   Normal BFGS step
   23    -723.2864642846      4.05e-08  Convergence criterion met
 ---------------------------------------
 SCF time:   CPU 6390.33s  wall 441.00s 
<S^2> =          0.754148936
(3)  G-ENP(liq) elect-nuc-pol free energy of system     -723.286464285 a.u.
(4)  G-CDS(liq) cavity-dispersion-solvent structure 
     free energy                                                2.5658 kcal/mol
(6)  G-S(liq) free energy of system                     -723.282375463 a.u.
 SCF   energy in the final basis set =     -723.2823754631
 Total energy in the final basis set =     -723.2823754631
 
 --------------------------------------------------------------
 
                    Orbital Energies (a.u.)
 --------------------------------------------------------------
 
 Alpha MOs
 -- Occupied --
-19.4683 -19.4197 -19.4091 -19.4089 -19.3484 -19.3473 -10.4222 -10.4197
-10.4111 -10.4097 -10.3964 -10.3588 -10.3554  -1.3464  -1.2804  -1.1770
 -1.1627  -1.0783  -1.0316  -0.9592  -0.8956  -0.8483  -0.8113  -0.7639
 -0.7244  -0.6957  -0.6659  -0.6568  -0.6443  -0.6244  -0.6176  -0.5998
 -0.5836  -0.5699  -0.5651  -0.5577  -0.5339  -0.5194  -0.5093  -0.4959
 -0.4834  -0.4684  -0.4484  -0.4436  -0.4162  -0.4105  -0.3984  -0.3871
 -0.3692  -0.3645
 -- Virtual --
  0.0257   0.0351   0.0371   0.0417   0.0460   0.0542   0.0578   0.0694
  0.0747   0.0828   0.0888   0.0961   0.1014   0.1201   0.1238   0.1293
  0.1336   0.1377   0.1435   0.1445   0.1522   0.1532   0.1600   0.1623
  0.1664   0.1752   0.1763   0.1794   0.1881   0.1925   0.1957   0.2002
  0.2073   0.2109   0.2129   0.2212   0.2228   0.2329   0.2377   0.2501
  0.2572   0.2632   0.2735   0.2807   0.2850   0.2920   0.2947   0.2990
  0.3054   0.3131   0.3180   0.3258   0.3272   0.3358   0.3389   0.3448
  0.3531   0.3571   0.3620   0.3689   0.3742   0.3779   0.3830   0.3859
  0.3882   0.3962   0.3976   0.4022   0.4142   0.4192   0.4235   0.4246
  0.4339   0.4364   0.4512   0.4615   0.4661   0.4736   0.4837   0.4908
  0.4961   0.5163   0.5204   0.5281   0.5473   0.5630   0.5640   0.5956
  0.6050   0.6096   0.6198   0.6264   0.6439   0.6535   0.6599   0.6703
  0.6747   0.6781   0.6926   0.6962   0.7086   0.7138   0.7152   0.7238
  0.7344   0.7437   0.7507   0.7585   0.7697   0.7877   0.7897   0.8097
  0.8249   0.8293   0.8402   0.8465   0.8472   0.8688   0.8765   0.9030
  0.9241   0.9374   0.9584   0.9792   0.9880   1.0066   1.0264   1.0417
  1.0618   1.0735   1.0767   1.0891   1.0972   1.1136   1.1315   1.1366
  1.1434   1.1535   1.1612   1.1680   1.1758   1.1822   1.1880   1.2053
  1.2160   1.2227   1.2361   1.2393   1.2472   1.2527   1.2671   1.2725
  1.2824   1.2869   1.2932   1.3010   1.3066   1.3157   1.3221   1.3340
  1.3426   1.3490   1.3589   1.3685   1.3750   1.3837   1.3993   1.4049
  1.4227   1.4339   1.4369   1.4510   1.4578   1.4666   1.4836   1.5037
  1.5130   1.5198   1.5230   1.5284   1.5474   1.5597   1.5727   1.5854
  1.5902   1.5998   1.6090   1.6166   1.6269   1.6382   1.6426   1.6579
  1.6858   1.6935   1.7141   1.7235   1.7404   1.7457   1.7705   1.7762
  1.8070   1.8170   1.8294   1.8362   1.8521   1.8677   1.8966   1.9352
  1.9583   1.9828   1.9864   2.0008   2.0210   2.0446   2.0684   2.0902
  2.1126   2.1417   2.1624   2.1855   2.1998   2.2426   2.2595   2.2782
  2.3004   2.3174   2.3314   2.3607   2.3816   2.4030   2.4235   2.4293
  2.4656   2.4936   2.5245   2.5912   2.6545   2.6755   2.6878   2.7252
  2.7407   2.7546   2.7618   2.7836   2.8072   2.8330   2.8520   2.8599
  2.8733   2.8851   2.8904   2.9161   2.9256   2.9462   2.9690   2.9849
  2.9958   3.0094   3.0307   3.0460   3.0635   3.0858   3.0946   3.0986
  3.1498   3.1548   3.1733   3.1993   3.2164   3.2328   3.2487   3.2686
  3.2901   3.3268   3.3339   3.3541   3.3572   3.3881   3.3997   3.4082
  3.4231   3.4387   3.4608   3.4821   3.4899   3.5136   3.5181   3.5282
  3.5387   3.5491   3.5557   3.5888   3.6153   3.6270   3.6356   3.6479
  3.6859   3.7027   3.7094   3.7141   3.7207   3.7528   3.7649   3.7850
  3.7988   3.8051   3.8208   3.8346   3.8453   3.8528   3.8687   3.8763
  3.8981   3.9142   3.9258   3.9266   3.9458   3.9572   3.9717   3.9819
  4.0098   4.0143   4.0351   4.0543   4.0691   4.0960   4.1140   4.1245
  4.1333   4.1612   4.1898   4.2021   4.2197   4.2545   4.2593   4.2861
  4.2998   4.3220   4.3344   4.3523   4.3653   4.3843   4.3908   4.4058
  4.4276   4.4359   4.4564   4.4746   4.4835   4.5104   4.5234   4.5547
  4.5756   4.5820   4.5993   4.6160   4.6247   4.6529   4.6643   4.6876
  4.7156   4.7270   4.7437   4.7587   4.7696   4.7771   4.8414   4.8474
  4.9004   4.9131   4.9420   4.9724   4.9955   5.0390   5.0480   5.0907
  5.1080   5.1174   5.1425   5.1600   5.1912   5.2237   5.2613   5.2711
  5.2761   5.2866   5.3137   5.3218   5.3338   5.3439   5.3544   5.3609
  5.3780   5.3912   5.4127   5.4230   5.4448   5.4751   5.4818   5.5085
  5.5107   5.5336   5.5519   5.5545   5.5803   5.5951   5.6249   5.6459
  5.6598   5.6908   5.7062   5.7194   5.7337   5.7558   5.7770   5.7915
  5.8171   5.8312   5.8515   5.8996   5.9699   5.9804   5.9999   6.0535
  6.0657   6.0868   6.1457   6.2626   6.4729   6.4856   6.6058   6.6131
  6.6397   6.6962   6.7764   6.7774   6.8591   6.8966   6.9875   7.0450
  7.1139   7.1331   7.1554   7.2364   7.2683   7.3054   7.3132   7.3309
  7.3435   7.3633   7.3941   7.4268   7.4378   7.4693   7.4723   7.4804
  7.5011   7.5718   7.6384   7.6646   7.7272   7.8086   7.8271   7.8626
  7.9197   7.9661   8.0448   8.1364   8.2668  24.3774  24.6860  24.7466
 24.7847  24.8517  24.8732  25.2401  50.4444  50.5663  50.6046  50.6176
 50.6932  50.6995
 
 Beta MOs
 -- Occupied --
-19.4577 -19.4091 -19.4088 -19.4011 -19.3484 -19.3473 -10.4219 -10.4200
-10.4111 -10.4097 -10.3964 -10.3587 -10.3554  -1.3201  -1.2802  -1.1768
 -1.1627  -1.0778  -1.0101  -0.9479  -0.8949  -0.8427  -0.8077  -0.7633
 -0.7208  -0.6923  -0.6639  -0.6505  -0.6317  -0.6192  -0.6001  -0.5842
 -0.5792  -0.5651  -0.5641  -0.5349  -0.5291  -0.5105  -0.5080  -0.4940
 -0.4817  -0.4678  -0.4455  -0.4399  -0.4025  -0.3961  -0.3877  -0.3724
 -0.3648
 -- Virtual --
 -0.0350   0.0257   0.0354   0.0373   0.0419   0.0475   0.0547   0.0580
  0.0698   0.0751   0.0830   0.0895   0.0965   0.1024   0.1204   0.1244
  0.1296   0.1344   0.1377   0.1437   0.1459   0.1523   0.1539   0.1603
  0.1625   0.1672   0.1755   0.1773   0.1801   0.1884   0.1937   0.1965
  0.2009   0.2081   0.2115   0.2138   0.2219   0.2235   0.2334   0.2430
  0.2515   0.2598   0.2638   0.2746   0.2818   0.2854   0.2939   0.2974
  0.2996   0.3070   0.3135   0.3186   0.3268   0.3282   0.3370   0.3395
  0.3474   0.3541   0.3577   0.3634   0.3693   0.3750   0.3789   0.3833
  0.3863   0.3884   0.3975   0.3981   0.4027   0.4147   0.4207   0.4243
  0.4255   0.4350   0.4382   0.4520   0.4620   0.4670   0.4742   0.4842
  0.4918   0.4963   0.5170   0.5209   0.5288   0.5478   0.5631   0.5644
  0.5958   0.6052   0.6098   0.6202   0.6269   0.6443   0.6539   0.6602
  0.6705   0.6752   0.6788   0.6929   0.6963   0.7088   0.7140   0.7157
  0.7241   0.7352   0.7442   0.7510   0.7588   0.7706   0.7882   0.7901
  0.8100   0.8251   0.8300   0.8413   0.8469   0.8476   0.8696   0.8768
  0.9033   0.9245   0.9379   0.9591   0.9803   0.9886   1.0075   1.0270
  1.0423   1.0624   1.0760   1.0793   1.0896   1.0980   1.1156   1.1334
  1.1386   1.1455   1.1545   1.1630   1.1749   1.1774   1.1842   1.1906
  1.2084   1.2218   1.2266   1.2394   1.2471   1.2492   1.2581   1.2729
  1.2768   1.2839   1.2886   1.2999   1.3034   1.3077   1.3186   1.3236
  1.3348   1.3442   1.3501   1.3599   1.3691   1.3755   1.3846   1.4007
  1.4058   1.4241   1.4346   1.4383   1.4535   1.4589   1.4690   1.4845
  1.5051   1.5159   1.5212   1.5241   1.5293   1.5483   1.5610   1.5740
  1.5894   1.5925   1.6024   1.6114   1.6189   1.6286   1.6398   1.6443
  1.6612   1.6895   1.7091   1.7251   1.7284   1.7439   1.7516   1.7743
  1.7808   1.8083   1.8201   1.8341   1.8394   1.8549   1.8707   1.8970
  1.9383   1.9640   1.9861   1.9895   2.0035   2.0223   2.0470   2.0708
  2.0926   2.1140   2.1422   2.1636   2.1883   2.2031   2.2470   2.2632
  2.2848   2.3063   2.3179   2.3388   2.3662   2.3840   2.4073   2.4291
  2.4319   2.4667   2.4944   2.5255   2.5920   2.6560   2.6763   2.6935
  2.7256   2.7419   2.7555   2.7624   2.7840   2.8075   2.8333   2.8524
  2.8604   2.8734   2.8855   2.8908   2.9163   2.9258   2.9464   2.9693
  2.9856   2.9966   3.0097   3.0309   3.0463   3.0637   3.0862   3.0952
  3.0988   3.1502   3.1550   3.1738   3.1999   3.2165   3.2333   3.2488
  3.2689   3.2903   3.3271   3.3343   3.3545   3.3575   3.3883   3.3999
  3.4084   3.4233   3.4390   3.4610   3.4825   3.4900   3.5138   3.5182
  3.5284   3.5388   3.5500   3.5560   3.5890   3.6155   3.6274   3.6358
  3.6482   3.6862   3.7031   3.7095   3.7144   3.7210   3.7530   3.7652
  3.7851   3.7992   3.8053   3.8211   3.8349   3.8458   3.8531   3.8691
  3.8767   3.8983   3.9144   3.9259   3.9269   3.9460   3.9574   3.9722
  3.9824   4.0101   4.0149   4.0354   4.0548   4.0695   4.0963   4.1145
  4.1246   4.1338   4.1616   4.1900   4.2024   4.2203   4.2547   4.2598
  4.2865   4.3003   4.3221   4.3349   4.3525   4.3662   4.3850   4.3914
  4.4063   4.4281   4.4362   4.4568   4.4749   4.4842   4.5114   4.5244
  4.5559   4.5770   4.5855   4.6016   4.6179   4.6338   4.6547   4.6687
  4.6953   4.7181   4.7294   4.7543   4.7641   4.7738   4.7787   4.8439
  4.8498   4.9070   4.9253   4.9532   4.9740   4.9984   5.0404   5.0639
  5.1134   5.1496   5.1528   5.1659   5.2110   5.2261   5.2317   5.2760
  5.2865   5.2992   5.3029   5.3162   5.3256   5.3362   5.3454   5.3585
  5.3672   5.3834   5.3984   5.4186   5.4303   5.4617   5.4758   5.4833
  5.5094   5.5142   5.5368   5.5539   5.5603   5.5858   5.6084   5.6258
  5.6478   5.6646   5.6924   5.7069   5.7229   5.7341   5.7594   5.7830
  5.7927   5.8225   5.8332   5.8603   5.9027   5.9723   5.9813   6.0008
  6.0538   6.0658   6.0871   6.1460   6.2627   6.4986   6.5210   6.6073
  6.6224   6.6408   6.6971   6.7771   6.7789   6.9420   6.9778   7.0359
  7.0562   7.1188   7.1428   7.1823   7.2605   7.3056   7.3116   7.3193
  7.3337   7.3466   7.3643   7.3968   7.4299   7.4548   7.4697   7.4773
  7.5063   7.5194   7.5722   7.6387   7.6650   7.7277   7.8086   7.8393
  7.8629   7.9204   7.9668   8.0603   8.1544   8.2669  24.3775  24.6860
 24.7464  24.7847  24.8518  24.8733  25.2402  50.4571  50.5747  50.6053
 50.6180  50.6934  50.6997
 --------------------------------------------------------------
 
          Ground-State Mulliken Net Atomic Charges

     Atom                 Charge (a.u.)    Spin (a.u.)
  --------------------------------------------------------
      1 C                    -0.047250       0.001020
      2 C                    -0.070569      -0.000903
      3 C                    -0.502954       0.002501
      4 C                    -0.040047       0.005252
      5 C                    -0.571870      -0.006949
      6 C                     0.017179       0.008077
      7 C                    -0.396559       0.006435
      8 H                     0.327519       0.000068
      9 H                     0.284547       0.000025
     10 H                     0.308793      -0.000040
     11 H                     0.324353       0.000616
     12 H                     0.337877      -0.000386
     13 H                     0.277051      -0.000280
     14 O                    -0.368929       0.000938
     15 H                     0.242141       0.001512
     16 H                     0.316055      -0.001765
     17 O                    -0.401439       0.002745
     18 H                     0.343704      -0.000828
     19 O                    -0.121619       0.000557
     20 O                    -0.112673       0.001259
     21 O                    -0.205789       0.663752
     22 O                     0.060481       0.316395
  --------------------------------------------------------
  Sum of atomic charges =    -0.000000
  Sum of spin   charges =     1.000000

 -----------------------------------------------------------------
                    Cartesian Multipole Moments
 -----------------------------------------------------------------
    Charge (ESU x 10^10)
                -0.0000
    Dipole Moment (Debye)
         X       0.1315      Y      -0.4887      Z       0.3053
       Tot       0.5910
    Quadrupole Moments (Debye-Ang)
        XX     -79.9885     XY       6.0424     YY     -74.4680
        XZ       3.7947     YZ      -7.1608     ZZ     -77.6273
    Octopole Moments (Debye-Ang^2)
       XXX     243.5579    XXY      18.5214    XYY      54.4574
       YYY      93.9268    XXZ      -2.3735    XYZ      13.5753
       YYZ      29.8041    XZZ      92.9454    YZZ      36.1113
       ZZZ      86.1927
    Hexadecapole Moments (Debye-Ang^3)
      XXXX   -1012.6196   XXXY    -139.6385   XXYY    -268.3271
      XYYY    -122.5114   YYYY    -751.1141   XXXZ      50.9577
      XXYZ       7.0878   XYYZ       2.1371   YYYZ       3.6071
      XXZZ    -375.6611   XYZZ     -57.8149   YYZZ    -316.9244
      XZZZ     -40.7598   YZZZ     -69.0054   ZZZZ   -1188.1873
 -----------------------------------------------------------------
 Calculating analytic gradient of the SCF energy
 Gradient of CDS energy
            1           2           3           4           5           6
    1   0.0016697   0.0000456  -0.0000703  -0.0001454   0.0000812  -0.0000401
    2  -0.0014299   0.0002363  -0.0002968  -0.0002451   0.0000781  -0.0000647
    3  -0.0008275   0.0002369   0.0002443  -0.0001543  -0.0001389   0.0000598
            7           8           9          10          11          12
    1  -0.0001226  -0.0000322   0.0000550  -0.0000344  -0.0000802  -0.0001269
    2   0.0009671   0.0002149   0.0000058  -0.0001550  -0.0001566   0.0001367
    3  -0.0003908   0.0000549   0.0002102   0.0001225  -0.0001229  -0.0001082
           13          14          15          16          17          18
    1  -0.0000606  -0.0001804   0.0000789   0.0002837  -0.0017376   0.0004629
    2  -0.0003328  -0.0002446  -0.0000773   0.0001105   0.0013516  -0.0000851
    3  -0.0001471   0.0002667   0.0003303  -0.0003828   0.0008044  -0.0000674
           19          20          21          22
    1   0.0000019   0.0000605  -0.0000514  -0.0000573
    2   0.0000732  -0.0000719  -0.0000790   0.0000647
    3  -0.0000983   0.0001056   0.0000169  -0.0000144
 Gradient of SCF Energy
            1           2           3           4           5           6
    1   0.0001527  -0.0084670   0.0056758   0.0009925   0.0102589  -0.0015993
    2  -0.0078287   0.0053425   0.0033542   0.0077165  -0.0062285   0.0081268
    3  -0.0053238  -0.0080173  -0.0007682  -0.0001456   0.0000018   0.0030760
            7           8           9          10          11          12
    1   0.0085187   0.0038384   0.0038776  -0.0013293  -0.0041797  -0.0077593
    2  -0.0122688   0.0061394  -0.0019311  -0.0066232  -0.0064156   0.0024264
    3   0.0044024   0.0029721   0.0081389   0.0053084  -0.0033124  -0.0035167
           13          14          15          16          17          18
    1  -0.0059616   0.0007057  -0.0003803  -0.0005667  -0.0020174   0.0036660
    2   0.0014776   0.0126352   0.0054532  -0.0067735  -0.0076157   0.0046840
    3  -0.0072228   0.0113891   0.0038783  -0.0104778   0.0054728  -0.0061692
           19          20          21          22
    1  -0.0008076  -0.0029289  -0.0016917   0.0000025
    2   0.0012879   0.0006798  -0.0009101  -0.0027284
    3   0.0010896   0.0013419  -0.0043099   0.0021924
 Max gradient component =       1.264E-02
 RMS gradient           =       5.486E-03
 Computing fast CPCM-SWIG gradient
 Updating gradient with PCM contributions...
 -- total gradient after adding PCM contribution --
---------------------------------------------------
  Atom         X              Y              Z     
---------------------------------------------------
   1      -0.000031       0.000007       0.000010
   2       0.000006      -0.000012      -0.000001
   3       0.000011       0.000015      -0.000018
   4       0.000007      -0.000009       0.000012
   5      -0.000021      -0.000038      -0.000024
   6       0.000050       0.000008       0.000006
   7      -0.000045       0.000013       0.000014
   8      -0.000004      -0.000014      -0.000001
   9      -0.000003      -0.000003      -0.000008
  10       0.000013       0.000005      -0.000006
  11       0.000013       0.000007       0.000008
  12       0.000012      -0.000002       0.000010
  13       0.000007      -0.000013       0.000012
  14       0.000010      -0.000044      -0.000014
  15      -0.000023       0.000005      -0.000012
  16      -0.000023       0.000027       0.000001
  17       0.000019       0.000011       0.000002
  18      -0.000011       0.000009      -0.000013
  19       0.000015      -0.000007      -0.000007
  20      -0.000005      -0.000005       0.000009
  21      -0.000013       0.000018      -0.000017
  22       0.000018       0.000022       0.000036
---------------------------------------------------
 Number of fixed atoms: 0
 Gradient time:  CPU 890.07 s  wall 70.76 s
 ######################################################
 ######################################################
 # Starting finite difference calculation for IDERIV  #
 Finite diff step size:  1.88973e-03 a.u.
 ----------------------------------------------------------------
             Standard Nuclear Orientation (Angstroms)
    I     Atom           X                Y                Z
 ----------------------------------------------------------------
    1      C      -0.0778662000    -0.2194728000     0.7168987000
    2      C      -0.9774746000    -0.8856012000     1.7441072000
    3      C      -1.6191851000    -2.1238335000     1.1810674000
    4      C      -1.9809015000    -2.1603518000    -0.0944288000
    5      C      -1.7819778000    -0.9811089000    -0.9967090000
    6      C      -1.1762441000     0.2236216000    -0.2539194000
    7      C      -0.7505148000     1.3969173000    -1.1298950000
    8      H       0.3956171000     0.6589881000     1.1570558000
    9      H      -0.5077660000    -1.0379253000     2.7115760000
   10      H      -1.8043999000    -2.9594513000     1.8415109000
   11      H      -2.4652366000    -3.0261418000    -0.5265956000
   12      H      -2.7180883000    -0.6666800000    -1.4564726000
   13      H      -1.4762275000     1.5813732000    -1.9220545000
   14      O       0.5527122000     1.1916637000    -1.6654489000
   15      H      -0.7012299000     2.2742842000    -0.4873852000
   16      H       0.4804280000     0.7231460000    -2.5032047000
   17      O       0.8680367000    -1.1020439000     0.1661267000
   18      H       1.3228865000    -0.6177905000    -0.5355252000
   19      O      -1.9501146000     0.1461126000     1.9503980000
   20      O      -2.2239183000     0.6762474000     0.6154166000
   21      O      -1.3273552000    -0.9497116000    -3.2551318000
   22      O      -0.9278459000    -1.4172336000    -2.1047810000
 ----------------------------------------------------------------
 Nuclear Repulsion Energy =         920.41265004 hartrees
 There are       50 alpha and       49 beta electrons
 Discretize the solute cavity surface with Lebedev spheres
	Using 110 Lebedev grid points for each H atom
	Using 194 Lebedev grid points for other atoms
	Atomic van der Waals radii will be scaled by 1.20
 Remove points where switching function is < 1.0e-08
 Keep 1617 surface tesserae and discard 1895 interior tesserae
 Molecular Surface Area = 178.966 Angst**2
 Requested basis set is 6-311++G(2df,2p)
 There are 158 shells and 532 basis functions
 A cutoff of  1.0D-12 yielded  11166 shell pairs
 There are    127597 function pairs (    160132 Cartesian)
 Smallest overlap matrix eigenvalue = 2.12E-06
 Guess MOs from SCF MO coefficient file

 -----------------------------------------------------------------------
  General SCF calculation program by
  Eric Jon Sundstrom, Paul Horn, Yuezhi Mao, Dmitri Zuev, Alec White,
  David Stuck, Shaama M.S., Shane Yost, Joonho Lee, David Small,
  Daniel Levine, Susi Lehtola, Hugh Burton, Evgeny Epifanovsky,
  Bang C. Huynh
 -----------------------------------------------------------------------
 Exchange:     0.1500 Hartree-Fock + 1.0000 wB97M-V + LR-HF
 Correlation:  1.0000 wB97M-V
 Using SG-2 standard quadrature grid
 Nonlocal Correlation:  VV10 with C = 0.0100 and b = 6.00 and scale = 1.00000
 Grid used for NLC:  SG-1 standard quadrature
 
 Citation of the SMD model:
 Marenich, A.V.; Cramer, C.J.; Truhlar, D.G.
 J. Phys. Chem. B 2009, 113, 6378-6396.
 iSolventCode=           1
 Solvent: water                                                           
 
 vradii
            1           2           3           4           5           6
    1   1.8500000   1.8500000   1.8500000   1.8500000   1.8500000   1.8500000
            7           8           9          10          11          12
    1   1.8500000   1.2000000   1.2000000   1.2000000   1.2000000   1.2000000
           13          14          15          16          17          18
    1   1.2000000   1.5200000   1.2000000   1.2000000   1.5200000   1.2000000
           19          20          21          22
    1   1.5200000   1.5200000   1.5200000   1.5200000
 -------------------------------------------------------
 OpenMP BLAS3 based DFT computing Module                
 Release: version 1.0, May 2013, Q-Chem Inc. Pittsburgh 
 -------------------------------------------------------
 A unrestricted SCF calculation will be
 performed using Roothaan-Hall, DIIS, GDM
 SCF converges when RMS gradient is below 1.0e-07
 ---------------------------------------
  Cycle       Energy         DIIS error
 ---------------------------------------
    1    -723.2518067484      1.43e-04  Roothaan Step
 ---------------------------------------
  Cycle       Energy         DIIS error
 ---------------------------------------
    1    -723.2814990253      1.58e-04  
    2    -723.2850183910      1.18e-04  Done DIIS. Switching to GDM
 ---------------------------------------
  Cycle       Energy        RMS Gradient
 ---------------------------------------
    1    -723.2850183910      4.75e-03   Normal BFGS step
    2    -723.2850424760      6.76e-03   Normal BFGS step
    3    -723.2864407797      1.22e-03   Normal BFGS step
    4    -723.2864437762      1.71e-03   Normal BFGS step
    5    -723.2864658071      8.34e-05   Normal BFGS step
    6    -723.2864661994      6.97e-05   Normal BFGS step
    7    -723.2864664636      5.00e-05   Normal BFGS step
    8    -723.2864664787      4.34e-05   Normal BFGS step
    9    -723.2864664916      3.27e-05   Normal BFGS step
   10    -723.2864664998      2.68e-05   Normal BFGS step
   11    -723.2864665038      2.16e-05   Normal BFGS step
   12    -723.2864665067      1.29e-05   Normal BFGS step
   13    -723.2864665081      6.58e-06   Normal BFGS step
   14    -723.2864665086      2.61e-06   Normal BFGS step
   15    -723.2864665088      1.63e-06   Normal BFGS step
   16    -723.2864665088      7.16e-07   Normal BFGS step
   17    -723.2864665088      1.83e-07   Normal BFGS step
   18    -723.2864665088      7.48e-08  Convergence criterion met
 ---------------------------------------
 SCF time:   CPU 5243.12s  wall 363.00s 
<S^2> =          0.754149000
(3)  G-ENP(liq) elect-nuc-pol free energy of system     -723.286466509 a.u.
(4)  G-CDS(liq) cavity-dispersion-solvent structure 
     free energy                                                2.5678 kcal/mol
(6)  G-S(liq) free energy of system                     -723.282374443 a.u.
 SCF   energy in the final basis set =     -723.2823744429
 Total energy in the final basis set =     -723.2823744429
 
 --------------------------------------------------------------
 
                    Orbital Energies (a.u.)
 --------------------------------------------------------------
 
 Alpha MOs
 -- Occupied --
-19.4683 -19.4197 -19.4091 -19.4089 -19.3485 -19.3473 -10.4222 -10.4197
-10.4111 -10.4097 -10.3964 -10.3588 -10.3554  -1.3464  -1.2803  -1.1771
 -1.1627  -1.0783  -1.0316  -0.9592  -0.8955  -0.8482  -0.8112  -0.7639
 -0.7244  -0.6957  -0.6659  -0.6568  -0.6443  -0.6244  -0.6176  -0.5998
 -0.5837  -0.5699  -0.5651  -0.5577  -0.5339  -0.5194  -0.5093  -0.4960
 -0.4834  -0.4684  -0.4483  -0.4435  -0.4162  -0.4105  -0.3984  -0.3871
 -0.3692  -0.3645
 -- Virtual --
  0.0257   0.0351   0.0371   0.0417   0.0460   0.0542   0.0578   0.0694
  0.0747   0.0828   0.0888   0.0961   0.1014   0.1201   0.1238   0.1293
  0.1336   0.1377   0.1435   0.1445   0.1522   0.1532   0.1600   0.1623
  0.1664   0.1752   0.1763   0.1794   0.1881   0.1925   0.1957   0.2003
  0.2073   0.2109   0.2129   0.2212   0.2229   0.2329   0.2377   0.2501
  0.2572   0.2632   0.2735   0.2807   0.2850   0.2920   0.2948   0.2990
  0.3054   0.3130   0.3180   0.3258   0.3272   0.3358   0.3389   0.3448
  0.3531   0.3571   0.3620   0.3689   0.3742   0.3779   0.3829   0.3859
  0.3882   0.3961   0.3976   0.4022   0.4142   0.4192   0.4235   0.4246
  0.4339   0.4364   0.4511   0.4615   0.4661   0.4736   0.4837   0.4908
  0.4961   0.5163   0.5204   0.5281   0.5473   0.5629   0.5641   0.5956
  0.6050   0.6096   0.6199   0.6264   0.6439   0.6535   0.6599   0.6703
  0.6747   0.6781   0.6926   0.6962   0.7086   0.7138   0.7152   0.7238
  0.7344   0.7437   0.7508   0.7585   0.7697   0.7877   0.7897   0.8096
  0.8250   0.8293   0.8402   0.8465   0.8472   0.8688   0.8765   0.9030
  0.9241   0.9373   0.9584   0.9792   0.9880   1.0066   1.0264   1.0417
  1.0617   1.0735   1.0767   1.0891   1.0972   1.1136   1.1316   1.1366
  1.1433   1.1535   1.1612   1.1680   1.1758   1.1822   1.1879   1.2053
  1.2161   1.2227   1.2360   1.2392   1.2472   1.2527   1.2671   1.2725
  1.2825   1.2869   1.2932   1.3010   1.3066   1.3156   1.3221   1.3340
  1.3426   1.3490   1.3589   1.3685   1.3750   1.3837   1.3993   1.4048
  1.4226   1.4339   1.4369   1.4510   1.4579   1.4666   1.4836   1.5036
  1.5129   1.5197   1.5230   1.5283   1.5473   1.5597   1.5728   1.5854
  1.5902   1.5999   1.6090   1.6166   1.6269   1.6382   1.6426   1.6579
  1.6858   1.6935   1.7141   1.7233   1.7404   1.7457   1.7704   1.7761
  1.8070   1.8170   1.8293   1.8362   1.8522   1.8678   1.8966   1.9352
  1.9583   1.9828   1.9864   2.0008   2.0210   2.0446   2.0684   2.0902
  2.1126   2.1418   2.1623   2.1854   2.1998   2.2427   2.2596   2.2782
  2.3005   2.3176   2.3315   2.3608   2.3816   2.4030   2.4235   2.4293
  2.4656   2.4938   2.5244   2.5912   2.6545   2.6754   2.6878   2.7252
  2.7408   2.7545   2.7619   2.7836   2.8071   2.8328   2.8520   2.8598
  2.8733   2.8851   2.8902   2.9160   2.9256   2.9462   2.9690   2.9848
  2.9959   3.0093   3.0304   3.0460   3.0632   3.0857   3.0946   3.0986
  3.1498   3.1546   3.1733   3.1992   3.2162   3.2328   3.2487   3.2687
  3.2901   3.3269   3.3339   3.3541   3.3571   3.3881   3.3997   3.4082
  3.4230   3.4386   3.4608   3.4822   3.4898   3.5136   3.5179   3.5283
  3.5387   3.5491   3.5558   3.5888   3.6153   3.6271   3.6355   3.6479
  3.6858   3.7029   3.7095   3.7142   3.7206   3.7529   3.7650   3.7850
  3.7987   3.8051   3.8206   3.8346   3.8453   3.8527   3.8686   3.8761
  3.8981   3.9142   3.9257   3.9265   3.9458   3.9571   3.9716   3.9819
  4.0098   4.0141   4.0349   4.0544   4.0689   4.0960   4.1138   4.1244
  4.1332   4.1611   4.1897   4.2020   4.2197   4.2544   4.2593   4.2860
  4.2997   4.3219   4.3343   4.3521   4.3652   4.3842   4.3907   4.4058
  4.4277   4.4358   4.4566   4.4745   4.4835   4.5106   4.5234   4.5545
  4.5756   4.5819   4.5994   4.6159   4.6246   4.6528   4.6643   4.6875
  4.7154   4.7270   4.7437   4.7587   4.7697   4.7770   4.8412   4.8472
  4.9003   4.9130   4.9419   4.9724   4.9955   5.0389   5.0480   5.0907
  5.1080   5.1173   5.1425   5.1599   5.1912   5.2235   5.2613   5.2711
  5.2761   5.2866   5.3135   5.3217   5.3339   5.3437   5.3543   5.3609
  5.3780   5.3912   5.4127   5.4228   5.4448   5.4751   5.4818   5.5084
  5.5106   5.5336   5.5518   5.5546   5.5802   5.5951   5.6252   5.6460
  5.6598   5.6907   5.7062   5.7194   5.7343   5.7561   5.7772   5.7915
  5.8171   5.8313   5.8515   5.8996   5.9700   5.9805   6.0005   6.0536
  6.0658   6.0870   6.1460   6.2626   6.4729   6.4856   6.6058   6.6131
  6.6397   6.6965   6.7771   6.7779   6.8592   6.8966   6.9875   7.0450
  7.1139   7.1331   7.1554   7.2364   7.2683   7.3055   7.3132   7.3309
  7.3436   7.3633   7.3941   7.4269   7.4378   7.4693   7.4725   7.4805
  7.5011   7.5718   7.6384   7.6646   7.7273   7.8086   7.8270   7.8626
  7.9198   7.9661   8.0448   8.1364   8.2668  24.3774  24.6860  24.7466
 24.7850  24.8511  24.8728  25.2401  50.4444  50.5663  50.6046  50.6176
 50.6934  50.6995
 
 Beta MOs
 -- Occupied --
-19.4577 -19.4091 -19.4088 -19.4011 -19.3484 -19.3473 -10.4218 -10.4200
-10.4111 -10.4097 -10.3964 -10.3587 -10.3554  -1.3201  -1.2802  -1.1770
 -1.1627  -1.0778  -1.0101  -0.9479  -0.8948  -0.8426  -0.8077  -0.7632
 -0.7208  -0.6923  -0.6639  -0.6506  -0.6317  -0.6192  -0.6002  -0.5842
 -0.5792  -0.5651  -0.5641  -0.5349  -0.5291  -0.5104  -0.5080  -0.4941
 -0.4817  -0.4677  -0.4455  -0.4399  -0.4025  -0.3960  -0.3876  -0.3723
 -0.3648
 -- Virtual --
 -0.0350   0.0257   0.0354   0.0373   0.0419   0.0475   0.0547   0.0580
  0.0698   0.0751   0.0830   0.0895   0.0965   0.1024   0.1205   0.1244
  0.1296   0.1344   0.1377   0.1437   0.1459   0.1523   0.1539   0.1603
  0.1625   0.1672   0.1755   0.1773   0.1801   0.1884   0.1937   0.1965
  0.2009   0.2081   0.2115   0.2138   0.2218   0.2235   0.2334   0.2430
  0.2515   0.2598   0.2638   0.2746   0.2819   0.2854   0.2939   0.2975
  0.2996   0.3070   0.3134   0.3186   0.3267   0.3282   0.3370   0.3395
  0.3474   0.3541   0.3577   0.3634   0.3693   0.3751   0.3789   0.3833
  0.3863   0.3884   0.3974   0.3981   0.4027   0.4146   0.4207   0.4243
  0.4255   0.4350   0.4382   0.4519   0.4620   0.4670   0.4741   0.4842
  0.4918   0.4963   0.5169   0.5209   0.5288   0.5479   0.5631   0.5645
  0.5958   0.6052   0.6098   0.6202   0.6269   0.6443   0.6539   0.6602
  0.6705   0.6752   0.6788   0.6929   0.6963   0.7088   0.7140   0.7157
  0.7240   0.7352   0.7442   0.7511   0.7588   0.7706   0.7882   0.7900
  0.8100   0.8251   0.8300   0.8413   0.8468   0.8476   0.8696   0.8768
  0.9033   0.9245   0.9379   0.9591   0.9802   0.9886   1.0075   1.0270
  1.0423   1.0624   1.0760   1.0793   1.0896   1.0980   1.1156   1.1334
  1.1386   1.1455   1.1545   1.1630   1.1749   1.1774   1.1842   1.1906
  1.2084   1.2218   1.2266   1.2393   1.2471   1.2491   1.2580   1.2728
  1.2768   1.2839   1.2886   1.2999   1.3033   1.3076   1.3186   1.3236
  1.3348   1.3442   1.3501   1.3599   1.3691   1.3754   1.3846   1.4007
  1.4057   1.4241   1.4346   1.4383   1.4535   1.4589   1.4690   1.4845
  1.5051   1.5159   1.5212   1.5240   1.5293   1.5483   1.5610   1.5741
  1.5894   1.5925   1.6024   1.6114   1.6189   1.6286   1.6398   1.6443
  1.6612   1.6895   1.7090   1.7251   1.7283   1.7439   1.7517   1.7742
  1.7808   1.8083   1.8201   1.8341   1.8394   1.8549   1.8708   1.8970
  1.9382   1.9640   1.9861   1.9894   2.0035   2.0223   2.0470   2.0708
  2.0926   2.1140   2.1423   2.1636   2.1882   2.2031   2.2471   2.2632
  2.2848   2.3063   2.3181   2.3388   2.3662   2.3840   2.4074   2.4291
  2.4319   2.4667   2.4945   2.5255   2.5920   2.6559   2.6763   2.6934
  2.7256   2.7420   2.7554   2.7625   2.7839   2.8075   2.8331   2.8523
  2.8603   2.8734   2.8854   2.8907   2.9163   2.9258   2.9464   2.9694
  2.9856   2.9966   3.0096   3.0306   3.0463   3.0634   3.0861   3.0952
  3.0988   3.1502   3.1547   3.1738   3.1998   3.2164   3.2332   3.2488
  3.2689   3.2903   3.3272   3.3343   3.3544   3.3573   3.3883   3.3999
  3.4084   3.4233   3.4389   3.4610   3.4825   3.4900   3.5137   3.5181
  3.5285   3.5388   3.5500   3.5560   3.5890   3.6155   3.6275   3.6357
  3.6482   3.6861   3.7032   3.7096   3.7144   3.7209   3.7531   3.7652
  3.7851   3.7991   3.8053   3.8208   3.8348   3.8458   3.8530   3.8690
  3.8765   3.8984   3.9144   3.9258   3.9268   3.9460   3.9574   3.9721
  3.9823   4.0101   4.0147   4.0353   4.0549   4.0694   4.0963   4.1143
  4.1245   4.1338   4.1615   4.1899   4.2022   4.2203   4.2546   4.2598
  4.2864   4.3002   4.3220   4.3348   4.3523   4.3660   4.3849   4.3913
  4.4063   4.4282   4.4361   4.4570   4.4748   4.4842   4.5115   4.5243
  4.5556   4.5770   4.5854   4.6016   4.6178   4.6337   4.6547   4.6687
  4.6952   4.7179   4.7294   4.7543   4.7640   4.7739   4.7785   4.8437
  4.8495   4.9068   4.9252   4.9532   4.9740   4.9984   5.0403   5.0639
  5.1132   5.1495   5.1528   5.1658   5.2110   5.2260   5.2316   5.2760
  5.2865   5.2992   5.3028   5.3161   5.3256   5.3361   5.3451   5.3584
  5.3672   5.3834   5.3984   5.4184   5.4302   5.4617   5.4759   5.4832
  5.5093   5.5142   5.5368   5.5538   5.5603   5.5856   5.6084   5.6262
  5.6479   5.6646   5.6924   5.7069   5.7229   5.7347   5.7597   5.7832
  5.7927   5.8225   5.8334   5.8603   5.9027   5.9724   5.9813   6.0014
  6.0539   6.0660   6.0874   6.1463   6.2628   6.4986   6.5210   6.6073
  6.6224   6.6408   6.6974   6.7774   6.7799   6.9420   6.9778   7.0359
  7.0562   7.1188   7.1428   7.1824   7.2605   7.3057   7.3116   7.3194
  7.3338   7.3466   7.3643   7.3968   7.4300   7.4548   7.4697   7.4775
  7.5063   7.5194   7.5722   7.6387   7.6650   7.7277   7.8086   7.8393
  7.8629   7.9205   7.9668   8.0603   8.1544   8.2669  24.3774  24.6861
 24.7464  24.7850  24.8512  24.8729  25.2402  50.4571  50.5747  50.6052
 50.6180  50.6935  50.6997
 --------------------------------------------------------------
 
          Ground-State Mulliken Net Atomic Charges

     Atom                 Charge (a.u.)    Spin (a.u.)
  --------------------------------------------------------
      1 C                    -0.047721       0.001020
      2 C                    -0.070293      -0.000904
      3 C                    -0.503107       0.002502
      4 C                    -0.040066       0.005253
      5 C                    -0.571763      -0.006955
      6 C                     0.017001       0.008081
      7 C                    -0.396622       0.006436
      8 H                     0.327674       0.000067
      9 H                     0.284550       0.000025
     10 H                     0.308802      -0.000040
     11 H                     0.324341       0.000616
     12 H                     0.337887      -0.000386
     13 H                     0.277034      -0.000280
     14 O                    -0.368934       0.000939
     15 H                     0.242125       0.001511
     16 H                     0.316052      -0.001765
     17 O                    -0.400978       0.002746
     18 H                     0.343710      -0.000828
     19 O                    -0.121658       0.000557
     20 O                    -0.112693       0.001259
     21 O                    -0.205791       0.663742
     22 O                     0.060449       0.316404
  --------------------------------------------------------
  Sum of atomic charges =     0.000000
  Sum of spin   charges =     1.000000

 -----------------------------------------------------------------
                    Cartesian Multipole Moments
 -----------------------------------------------------------------
    Charge (ESU x 10^10)
                -0.0000
    Dipole Moment (Debye)
         X       0.1358      Y      -0.4900      Z       0.3049
       Tot       0.5929
    Quadrupole Moments (Debye-Ang)
        XX     -79.9902     XY       6.0397     YY     -74.4687
        XZ       3.7961     YZ      -7.1583     ZZ     -77.6337
    Octopole Moments (Debye-Ang^2)
       XXX     243.5564    XXY      18.5207    XYY      54.4614
       YYY      93.9236    XXZ      -2.3725    XYZ      13.5728
       YYZ      29.8047    XZZ      92.9505    YZZ      36.1144
       ZZZ      86.1843
    Hexadecapole Moments (Debye-Ang^3)
      XXXX   -1012.6338   XXXY    -139.6437   XXYY    -268.3360
      XYYY    -122.5206   YYYY    -751.1268   XXXZ      50.9479
      XXYZ       7.0894   XYYZ       2.1331   YYYZ       3.6165
      XXZZ    -375.6734   XYZZ     -57.8200   YYZZ    -316.9365
      XZZZ     -40.7614   YZZZ     -68.9874   ZZZZ   -1188.2580
 -----------------------------------------------------------------
 Calculating analytic gradient of the SCF energy
 Gradient of CDS energy
            1           2           3           4           5           6
    1   0.0017637   0.0000450  -0.0000705  -0.0001455   0.0000812  -0.0000404
    2  -0.0015174   0.0002362  -0.0002968  -0.0002451   0.0000781  -0.0000646
    3  -0.0008820   0.0002373   0.0002442  -0.0001542  -0.0001389   0.0000595
            7           8           9          10          11          12
    1  -0.0001226  -0.0000329   0.0000550  -0.0000344  -0.0000802  -0.0001269
    2   0.0009671   0.0002146   0.0000058  -0.0001550  -0.0001566   0.0001367
    3  -0.0003908   0.0000546   0.0002101   0.0001225  -0.0001229  -0.0001082
           13          14          15          16          17          18
    1  -0.0000606  -0.0001804   0.0000790   0.0002837  -0.0018290   0.0004623
    2  -0.0003328  -0.0002446  -0.0000773   0.0001105   0.0014390  -0.0000849
    3  -0.0001471   0.0002667   0.0003303  -0.0003828   0.0008594  -0.0000676
           19          20          21          22
    1   0.0000018   0.0000605  -0.0000514  -0.0000574
    2   0.0000732  -0.0000719  -0.0000790   0.0000648
    3  -0.0000983   0.0001057   0.0000169  -0.0000144
 Gradient of SCF Energy
            1           2           3           4           5           6
    1   0.0012848  -0.0086464   0.0056494   0.0009991   0.0102320  -0.0017987
    2  -0.0078210   0.0052457   0.0033292   0.0077157  -0.0062345   0.0081373
    3  -0.0054145  -0.0079447  -0.0007551  -0.0001423  -0.0000258   0.0029796
            7           8           9          10          11          12
    1   0.0085393   0.0036317   0.0039018  -0.0013299  -0.0041771  -0.0077550
    2  -0.0122601   0.0059596  -0.0019233  -0.0066222  -0.0064139   0.0024244
    3   0.0043974   0.0028806   0.0081157   0.0053055  -0.0033120  -0.0035144
           13          14          15          16          17          18
    1  -0.0059608   0.0006975  -0.0003790  -0.0005649  -0.0023874   0.0036368
    2   0.0014694   0.0126445   0.0054495  -0.0067762  -0.0074237   0.0047224
    3  -0.0072129   0.0113891   0.0038784  -0.0104773   0.0056502  -0.0061557
           19          20          21          22
    1  -0.0008820  -0.0029999  -0.0016920   0.0000009
    2   0.0013151   0.0007010  -0.0009095  -0.0027295
    3   0.0011183   0.0013576  -0.0043085   0.0021906
 Max gradient component =       1.264E-02
 RMS gradient           =       5.486E-03
 Computing fast CPCM-SWIG gradient
 Updating gradient with PCM contributions...
 -- total gradient after adding PCM contribution --
---------------------------------------------------
  Atom         X              Y              Z     
---------------------------------------------------
   1       0.001110       0.000018      -0.000079
   2      -0.000184      -0.000102       0.000065
   3      -0.000011      -0.000010      -0.000002
   4       0.000008      -0.000007       0.000014
   5      -0.000042      -0.000044      -0.000049
   6      -0.000154       0.000015      -0.000089
   7      -0.000018       0.000016       0.000012
   8      -0.000209      -0.000202      -0.000095
   9       0.000020       0.000004      -0.000027
  10       0.000011       0.000005      -0.000007
  11       0.000014       0.000008       0.000007
  12       0.000012      -0.000002       0.000011
  13       0.000005      -0.000019       0.000018
  14       0.000005      -0.000039      -0.000013
  15      -0.000023       0.000004      -0.000011
  16      -0.000023       0.000027       0.000001
  17      -0.000341       0.000205       0.000169
  18      -0.000049       0.000046       0.000009
  19      -0.000060       0.000022       0.000020
  20      -0.000075       0.000016       0.000027
  21      -0.000013       0.000019      -0.000017
  22       0.000017       0.000021       0.000037
---------------------------------------------------
 Number of fixed atoms: 0
 Gradient time:  CPU 912.18 s  wall 71.51 s
 ----------------------------------------------------------------
             Standard Nuclear Orientation (Angstroms)
    I     Atom           X                Y                Z
 ----------------------------------------------------------------
    1      C      -0.0798662000    -0.2194728000     0.7168987000
    2      C      -0.9774746000    -0.8856012000     1.7441072000
    3      C      -1.6191851000    -2.1238335000     1.1810674000
    4      C      -1.9809015000    -2.1603518000    -0.0944288000
    5      C      -1.7819778000    -0.9811089000    -0.9967090000
    6      C      -1.1762441000     0.2236216000    -0.2539194000
    7      C      -0.7505148000     1.3969173000    -1.1298950000
    8      H       0.3956171000     0.6589881000     1.1570558000
    9      H      -0.5077660000    -1.0379253000     2.7115760000
   10      H      -1.8043999000    -2.9594513000     1.8415109000
   11      H      -2.4652366000    -3.0261418000    -0.5265956000
   12      H      -2.7180883000    -0.6666800000    -1.4564726000
   13      H      -1.4762275000     1.5813732000    -1.9220545000
   14      O       0.5527122000     1.1916637000    -1.6654489000
   15      H      -0.7012299000     2.2742842000    -0.4873852000
   16      H       0.4804280000     0.7231460000    -2.5032047000
   17      O       0.8680367000    -1.1020439000     0.1661267000
   18      H       1.3228865000    -0.6177905000    -0.5355252000
   19      O      -1.9501146000     0.1461126000     1.9503980000
   20      O      -2.2239183000     0.6762474000     0.6154166000
   21      O      -1.3273552000    -0.9497116000    -3.2551318000
   22      O      -0.9278459000    -1.4172336000    -2.1047810000
 ----------------------------------------------------------------
 Nuclear Repulsion Energy =         920.44477358 hartrees
 There are       50 alpha and       49 beta electrons
 Discretize the solute cavity surface with Lebedev spheres
	Using 110 Lebedev grid points for each H atom
	Using 194 Lebedev grid points for other atoms
	Atomic van der Waals radii will be scaled by 1.20
 Remove points where switching function is < 1.0e-08
 Keep 1617 surface tesserae and discard 1895 interior tesserae
 Molecular Surface Area = 178.966 Angst**2
 Requested basis set is 6-311++G(2df,2p)
 There are 158 shells and 532 basis functions
 A cutoff of  1.0D-12 yielded  11166 shell pairs
 There are    127597 function pairs (    160132 Cartesian)
 Smallest overlap matrix eigenvalue = 2.12E-06
 Guess MOs from SCF MO coefficient file

 -----------------------------------------------------------------------
  General SCF calculation program by
  Eric Jon Sundstrom, Paul Horn, Yuezhi Mao, Dmitri Zuev, Alec White,
  David Stuck, Shaama M.S., Shane Yost, Joonho Lee, David Small,
  Daniel Levine, Susi Lehtola, Hugh Burton, Evgeny Epifanovsky,
  Bang C. Huynh
 -----------------------------------------------------------------------
 Exchange:     0.1500 Hartree-Fock + 1.0000 wB97M-V + LR-HF
 Correlation:  1.0000 wB97M-V
 Using SG-2 standard quadrature grid
 Nonlocal Correlation:  VV10 with C = 0.0100 and b = 6.00 and scale = 1.00000
 Grid used for NLC:  SG-1 standard quadrature
 
 Citation of the SMD model:
 Marenich, A.V.; Cramer, C.J.; Truhlar, D.G.
 J. Phys. Chem. B 2009, 113, 6378-6396.
 iSolventCode=           1
 Solvent: water                                                           
 
 vradii
            1           2           3           4           5           6
    1   1.8500000   1.8500000   1.8500000   1.8500000   1.8500000   1.8500000
            7           8           9          10          11          12
    1   1.8500000   1.2000000   1.2000000   1.2000000   1.2000000   1.2000000
           13          14          15          16          17          18
    1   1.2000000   1.5200000   1.2000000   1.2000000   1.5200000   1.2000000
           19          20          21          22
    1   1.5200000   1.5200000   1.5200000   1.5200000
 -------------------------------------------------------
 OpenMP BLAS3 based DFT computing Module                
 Release: version 1.0, May 2013, Q-Chem Inc. Pittsburgh 
 -------------------------------------------------------
 A unrestricted SCF calculation will be
 performed using Roothaan-Hall, DIIS, GDM
 SCF converges when RMS gradient is below 1.0e-07
 ---------------------------------------
  Cycle       Energy         DIIS error
 ---------------------------------------
    1    -723.2517941280      1.43e-04  Roothaan Step
 ---------------------------------------
  Cycle       Energy         DIIS error
 ---------------------------------------
    1    -723.2814732762      1.59e-04  
    2    -723.2849909010      1.19e-04  Done DIIS. Switching to GDM
 ---------------------------------------
  Cycle       Energy        RMS Gradient
 ---------------------------------------
    1    -723.2849909010      4.77e-03   Normal BFGS step
    2    -723.2850109818      6.80e-03   Normal BFGS step
    3    -723.2864343271      1.23e-03   Normal BFGS step
    4    -723.2864373144      1.72e-03   Normal BFGS step
    5    -723.2864593750      8.45e-05   Normal BFGS step
    6    -723.2864597690      6.93e-05   Normal BFGS step
    7    -723.2864600345      5.07e-05   Normal BFGS step
    8    -723.2864600497      4.41e-05   Normal BFGS step
    9    -723.2864600628      3.33e-05   Normal BFGS step
   10    -723.2864600713      2.70e-05   Normal BFGS step
   11    -723.2864600755      2.16e-05   Normal BFGS step
   12    -723.2864600784      1.31e-05   Normal BFGS step
   13    -723.2864600798      6.62e-06   Normal BFGS step
   14    -723.2864600803      2.59e-06   Normal BFGS step
   15    -723.2864600805      1.62e-06   Normal BFGS step
   16    -723.2864600805      7.09e-07   Normal BFGS step
   17    -723.2864600805      1.82e-07   Normal BFGS step
   18    -723.2864600805      7.48e-08  Convergence criterion met
 ---------------------------------------
 SCF time:   CPU 5201.39s  wall 361.00s 
<S^2> =          0.754148875
(3)  G-ENP(liq) elect-nuc-pol free energy of system     -723.286460080 a.u.
(4)  G-CDS(liq) cavity-dispersion-solvent structure 
     free energy                                                2.5639 kcal/mol
(6)  G-S(liq) free energy of system                     -723.282374324 a.u.
 SCF   energy in the final basis set =     -723.2823743240
 Total energy in the final basis set =     -723.2823743240
 
 --------------------------------------------------------------
 
                    Orbital Energies (a.u.)
 --------------------------------------------------------------
 
 Alpha MOs
 -- Occupied --
-19.4683 -19.4197 -19.4092 -19.4089 -19.3484 -19.3474 -10.4222 -10.4197
-10.4111 -10.4097 -10.3964 -10.3588 -10.3554  -1.3464  -1.2804  -1.1768
 -1.1627  -1.0784  -1.0316  -0.9593  -0.8957  -0.8483  -0.8113  -0.7639
 -0.7244  -0.6957  -0.6659  -0.6568  -0.6443  -0.6244  -0.6176  -0.5997
 -0.5836  -0.5699  -0.5651  -0.5577  -0.5339  -0.5194  -0.5092  -0.4959
 -0.4834  -0.4685  -0.4484  -0.4436  -0.4162  -0.4105  -0.3984  -0.3872
 -0.3692  -0.3645
 -- Virtual --
  0.0257   0.0351   0.0371   0.0417   0.0460   0.0542   0.0578   0.0694
  0.0747   0.0828   0.0887   0.0961   0.1014   0.1201   0.1238   0.1293
  0.1336   0.1377   0.1435   0.1445   0.1522   0.1532   0.1600   0.1623
  0.1664   0.1752   0.1763   0.1794   0.1880   0.1925   0.1957   0.2002
  0.2073   0.2109   0.2129   0.2213   0.2228   0.2329   0.2377   0.2502
  0.2572   0.2633   0.2734   0.2806   0.2850   0.2919   0.2947   0.2990
  0.3054   0.3131   0.3180   0.3259   0.3272   0.3358   0.3390   0.3449
  0.3531   0.3571   0.3620   0.3689   0.3742   0.3779   0.3830   0.3859
  0.3882   0.3962   0.3976   0.4022   0.4142   0.4192   0.4235   0.4246
  0.4339   0.4364   0.4512   0.4615   0.4661   0.4736   0.4837   0.4908
  0.4961   0.5163   0.5204   0.5282   0.5473   0.5630   0.5640   0.5956
  0.6050   0.6096   0.6198   0.6264   0.6438   0.6536   0.6599   0.6703
  0.6747   0.6782   0.6926   0.6962   0.7086   0.7138   0.7152   0.7238
  0.7344   0.7437   0.7506   0.7584   0.7697   0.7878   0.7897   0.8097
  0.8249   0.8293   0.8402   0.8465   0.8472   0.8688   0.8765   0.9030
  0.9241   0.9374   0.9584   0.9792   0.9880   1.0067   1.0265   1.0417
  1.0618   1.0735   1.0767   1.0891   1.0972   1.1136   1.1315   1.1366
  1.1434   1.1535   1.1612   1.1680   1.1758   1.1822   1.1880   1.2053
  1.2160   1.2227   1.2361   1.2393   1.2472   1.2527   1.2672   1.2725
  1.2824   1.2869   1.2932   1.3010   1.3066   1.3157   1.3221   1.3340
  1.3426   1.3490   1.3589   1.3685   1.3750   1.3837   1.3993   1.4049
  1.4227   1.4339   1.4369   1.4510   1.4578   1.4666   1.4836   1.5037
  1.5130   1.5198   1.5231   1.5284   1.5474   1.5597   1.5727   1.5854
  1.5902   1.5998   1.6091   1.6165   1.6269   1.6383   1.6426   1.6579
  1.6859   1.6935   1.7142   1.7236   1.7404   1.7457   1.7705   1.7762
  1.8070   1.8170   1.8294   1.8362   1.8521   1.8677   1.8966   1.9353
  1.9582   1.9829   1.9864   2.0008   2.0210   2.0446   2.0684   2.0902
  2.1127   2.1417   2.1625   2.1856   2.1997   2.2426   2.2595   2.2782
  2.3003   2.3173   2.3314   2.3607   2.3816   2.4030   2.4235   2.4293
  2.4656   2.4935   2.5245   2.5912   2.6545   2.6755   2.6878   2.7252
  2.7407   2.7546   2.7618   2.7837   2.8072   2.8332   2.8521   2.8599
  2.8733   2.8852   2.8905   2.9161   2.9256   2.9462   2.9689   2.9849
  2.9958   3.0095   3.0310   3.0460   3.0637   3.0859   3.0946   3.0986
  3.1499   3.1551   3.1733   3.1993   3.2165   3.2329   3.2486   3.2686
  3.2900   3.3267   3.3340   3.3541   3.3574   3.3880   3.3998   3.4081
  3.4231   3.4387   3.4608   3.4821   3.4900   3.5137   3.5182   3.5281
  3.5387   3.5491   3.5557   3.5888   3.6153   3.6270   3.6356   3.6479
  3.6860   3.7026   3.7093   3.7140   3.7208   3.7527   3.7648   3.7850
  3.7989   3.8052   3.8210   3.8347   3.8453   3.8529   3.8688   3.8766
  3.8981   3.9142   3.9258   3.9267   3.9457   3.9573   3.9718   3.9820
  4.0099   4.0145   4.0352   4.0542   4.0693   4.0961   4.1142   4.1247
  4.1334   4.1612   4.1899   4.2023   4.2197   4.2546   4.2593   4.2862
  4.2999   4.3220   4.3345   4.3524   4.3655   4.3844   4.3909   4.4058
  4.4276   4.4360   4.4562   4.4748   4.4835   4.5103   4.5235   4.5550
  4.5755   4.5820   4.5992   4.6162   4.6247   4.6529   4.6643   4.6876
  4.7158   4.7271   4.7437   4.7588   4.7696   4.7773   4.8416   4.8476
  4.9006   4.9131   4.9421   4.9723   4.9955   5.0390   5.0480   5.0908
  5.1080   5.1176   5.1425   5.1601   5.1913   5.2238   5.2613   5.2711
  5.2761   5.2866   5.3139   5.3218   5.3338   5.3441   5.3544   5.3610
  5.3781   5.3913   5.4128   5.4232   5.4448   5.4751   5.4818   5.5085
  5.5107   5.5336   5.5520   5.5545   5.5805   5.5952   5.6245   5.6458
  5.6598   5.6908   5.7062   5.7194   5.7331   5.7555   5.7769   5.7915
  5.8171   5.8311   5.8515   5.8996   5.9697   5.9804   5.9992   6.0533
  6.0655   6.0865   6.1454   6.2625   6.4729   6.4856   6.6058   6.6131
  6.6398   6.6960   6.7752   6.7773   6.8591   6.8966   6.9874   7.0449
  7.1139   7.1331   7.1554   7.2364   7.2683   7.3054   7.3132   7.3308
  7.3435   7.3633   7.3940   7.4267   7.4377   7.4693   7.4721   7.4803
  7.5012   7.5718   7.6384   7.6646   7.7272   7.8086   7.8271   7.8625
  7.9197   7.9661   8.0448   8.1364   8.2668  24.3775  24.6859  24.7466
 24.7844  24.8523  24.8736  25.2401  50.4444  50.5663  50.6046  50.6176
 50.6931  50.6995
 
 Beta MOs
 -- Occupied --
-19.4577 -19.4092 -19.4088 -19.4011 -19.3483 -19.3473 -10.4219 -10.4201
-10.4111 -10.4097 -10.3964 -10.3587 -10.3554  -1.3201  -1.2803  -1.1767
 -1.1626  -1.0778  -1.0101  -0.9480  -0.8949  -0.8427  -0.8078  -0.7633
 -0.7208  -0.6923  -0.6639  -0.6505  -0.6317  -0.6193  -0.6001  -0.5842
 -0.5791  -0.5651  -0.5641  -0.5350  -0.5292  -0.5105  -0.5079  -0.4939
 -0.4817  -0.4678  -0.4456  -0.4399  -0.4025  -0.3961  -0.3877  -0.3724
 -0.3649
 -- Virtual --
 -0.0350   0.0257   0.0354   0.0373   0.0419   0.0475   0.0547   0.0580
  0.0698   0.0750   0.0830   0.0895   0.0965   0.1024   0.1204   0.1244
  0.1296   0.1344   0.1377   0.1437   0.1459   0.1523   0.1539   0.1603
  0.1625   0.1672   0.1755   0.1773   0.1801   0.1884   0.1937   0.1965
  0.2009   0.2081   0.2115   0.2138   0.2219   0.2235   0.2334   0.2430
  0.2515   0.2598   0.2638   0.2746   0.2818   0.2854   0.2938   0.2974
  0.2996   0.3070   0.3135   0.3186   0.3268   0.3282   0.3370   0.3395
  0.3474   0.3541   0.3577   0.3634   0.3693   0.3750   0.3789   0.3834
  0.3863   0.3884   0.3975   0.3981   0.4027   0.4147   0.4207   0.4243
  0.4255   0.4350   0.4382   0.4520   0.4619   0.4670   0.4742   0.4842
  0.4918   0.4963   0.5170   0.5209   0.5289   0.5478   0.5632   0.5644
  0.5959   0.6052   0.6098   0.6202   0.6269   0.6443   0.6539   0.6602
  0.6705   0.6752   0.6789   0.6929   0.6963   0.7088   0.7140   0.7157
  0.7241   0.7352   0.7442   0.7510   0.7588   0.7706   0.7883   0.7901
  0.8100   0.8251   0.8300   0.8413   0.8469   0.8476   0.8696   0.8768
  0.9033   0.9245   0.9380   0.9591   0.9803   0.9886   1.0076   1.0271
  1.0423   1.0624   1.0760   1.0793   1.0896   1.0980   1.1156   1.1334
  1.1386   1.1455   1.1545   1.1630   1.1749   1.1774   1.1842   1.1907
  1.2084   1.2218   1.2266   1.2394   1.2471   1.2492   1.2581   1.2729
  1.2768   1.2839   1.2886   1.2999   1.3034   1.3077   1.3186   1.3236
  1.3348   1.3442   1.3501   1.3599   1.3691   1.3755   1.3846   1.4007
  1.4058   1.4242   1.4346   1.4383   1.4535   1.4589   1.4691   1.4845
  1.5052   1.5160   1.5212   1.5242   1.5294   1.5483   1.5610   1.5740
  1.5894   1.5925   1.6024   1.6114   1.6189   1.6286   1.6398   1.6443
  1.6612   1.6896   1.7091   1.7252   1.7285   1.7439   1.7516   1.7744
  1.7808   1.8083   1.8201   1.8342   1.8394   1.8548   1.8707   1.8970
  1.9383   1.9640   1.9861   1.9895   2.0035   2.0224   2.0470   2.0708
  2.0926   2.1141   2.1421   2.1637   2.1884   2.2031   2.2469   2.2632
  2.2848   2.3062   2.3177   2.3388   2.3661   2.3841   2.4073   2.4291
  2.4320   2.4667   2.4942   2.5255   2.5920   2.6560   2.6763   2.6935
  2.7257   2.7419   2.7555   2.7624   2.7840   2.8076   2.8335   2.8525
  2.8604   2.8734   2.8855   2.8909   2.9163   2.9258   2.9464   2.9693
  2.9857   2.9966   3.0098   3.0311   3.0463   3.0640   3.0863   3.0952
  3.0988   3.1502   3.1552   3.1738   3.1999   3.2167   3.2333   3.2487
  3.2689   3.2902   3.3270   3.3344   3.3545   3.3576   3.3882   3.4000
  3.4084   3.4233   3.4390   3.4611   3.4825   3.4901   3.5138   3.5184
  3.5283   3.5388   3.5501   3.5559   3.5890   3.6156   3.6274   3.6359
  3.6482   3.6863   3.7029   3.7094   3.7143   3.7211   3.7530   3.7651
  3.7852   3.7993   3.8054   3.8213   3.8349   3.8457   3.8531   3.8692
  3.8769   3.8983   3.9144   3.9259   3.9270   3.9459   3.9575   3.9723
  3.9825   4.0101   4.0151   4.0355   4.0547   4.0697   4.0964   4.1146
  4.1248   4.1339   4.1617   4.1900   4.2025   4.2203   4.2548   4.2598
  4.2866   4.3004   4.3221   4.3350   4.3527   4.3663   4.3850   4.3915
  4.4064   4.4280   4.4363   4.4566   4.4751   4.4842   4.5112   4.5244
  4.5562   4.5769   4.5855   4.6015   4.6180   4.6338   4.6548   4.6688
  4.6953   4.7184   4.7294   4.7543   4.7641   4.7738   4.7788   4.8441
  4.8500   4.9072   4.9253   4.9533   4.9739   4.9984   5.0404   5.0638
  5.1136   5.1496   5.1528   5.1660   5.2111   5.2262   5.2317   5.2760
  5.2865   5.2992   5.3029   5.3163   5.3257   5.3362   5.3456   5.3586
  5.3672   5.3835   5.3984   5.4188   5.4303   5.4617   5.4758   5.4833
  5.5095   5.5143   5.5367   5.5540   5.5602   5.5860   5.6084   5.6255
  5.6478   5.6646   5.6925   5.7070   5.7230   5.7335   5.7590   5.7829
  5.7927   5.8225   5.8331   5.8603   5.9026   5.9721   5.9812   6.0002
  6.0536   6.0657   6.0869   6.1457   6.2627   6.4986   6.5210   6.6073
  6.6224   6.6408   6.6969   6.7766   6.7783   6.9420   6.9778   7.0359
  7.0562   7.1188   7.1428   7.1823   7.2605   7.3056   7.3116   7.3193
  7.3337   7.3465   7.3642   7.3967   7.4298   7.4547   7.4696   7.4770
  7.5063   7.5193   7.5721   7.6387   7.6650   7.7277   7.8086   7.8393
  7.8628   7.9204   7.9668   8.0603   8.1544   8.2670  24.3775  24.6860
 24.7464  24.7844  24.8524  24.8737  25.2402  50.4571  50.5747  50.6053
 50.6180  50.6932  50.6997
 --------------------------------------------------------------
 
          Ground-State Mulliken Net Atomic Charges

     Atom                 Charge (a.u.)    Spin (a.u.)
  --------------------------------------------------------
      1 C                    -0.046778       0.001020
      2 C                    -0.070847      -0.000902
      3 C                    -0.502799       0.002501
      4 C                    -0.040030       0.005251
      5 C                    -0.571976      -0.006944
      6 C                     0.017353       0.008072
      7 C                    -0.396496       0.006433
      8 H                     0.327364       0.000069
      9 H                     0.284544       0.000025
     10 H                     0.308784      -0.000040
     11 H                     0.324365       0.000616
     12 H                     0.337867      -0.000386
     13 H                     0.277068      -0.000280
     14 O                    -0.368924       0.000937
     15 H                     0.242157       0.001512
     16 H                     0.316058      -0.001765
     17 O                    -0.401898       0.002744
     18 H                     0.343697      -0.000827
     19 O                    -0.121581       0.000557
     20 O                    -0.112653       0.001258
     21 O                    -0.205788       0.663763
     22 O                     0.060513       0.316387
  --------------------------------------------------------
  Sum of atomic charges =    -0.000000
  Sum of spin   charges =     1.000000

 -----------------------------------------------------------------
                    Cartesian Multipole Moments
 -----------------------------------------------------------------
    Charge (ESU x 10^10)
                -0.0000
    Dipole Moment (Debye)
         X       0.1272      Y      -0.4873      Z       0.3057
       Tot       0.5891
    Quadrupole Moments (Debye-Ang)
        XX     -79.9868     XY       6.0450     YY     -74.4673
        XZ       3.7934     YZ      -7.1632     ZZ     -77.6210
    Octopole Moments (Debye-Ang^2)
       XXX     243.5595    XXY      18.5220    XYY      54.4535
       YYY      93.9300    XXZ      -2.3744    XYZ      13.5778
       YYZ      29.8034    XZZ      92.9402    YZZ      36.1083
       ZZZ      86.2011
    Hexadecapole Moments (Debye-Ang^3)
      XXXX   -1012.6054   XXXY    -139.6332   XXYY    -268.3181
      XYYY    -122.5021   YYYY    -751.1014   XXXZ      50.9674
      XXYZ       7.0862   XYYZ       2.1412   YYYZ       3.5976
      XXZZ    -375.6488   XYZZ     -57.8099   YYZZ    -316.9124
      XZZZ     -40.7582   YZZZ     -69.0233   ZZZZ   -1188.1168
 -----------------------------------------------------------------
 Calculating analytic gradient of the SCF energy
 Gradient of CDS energy
            1           2           3           4           5           6
    1   0.0015739   0.0000461  -0.0000702  -0.0001454   0.0000812  -0.0000398
    2  -0.0013409   0.0002365  -0.0002969  -0.0002451   0.0000781  -0.0000648
    3  -0.0007721   0.0002365   0.0002443  -0.0001543  -0.0001389   0.0000600
            7           8           9          10          11          12
    1  -0.0001226  -0.0000314   0.0000550  -0.0000344  -0.0000802  -0.0001269
    2   0.0009671   0.0002152   0.0000058  -0.0001550  -0.0001566   0.0001367
    3  -0.0003908   0.0000552   0.0002103   0.0001225  -0.0001229  -0.0001082
           13          14          15          16          17          18
    1  -0.0000606  -0.0001804   0.0000789   0.0002837  -0.0016443   0.0004635
    2  -0.0003328  -0.0002446  -0.0000773   0.0001105   0.0012626  -0.0000852
    3  -0.0001471   0.0002667   0.0003303  -0.0003828   0.0007485  -0.0000673
           19          20          21          22
    1   0.0000019   0.0000605  -0.0000514  -0.0000572
    2   0.0000732  -0.0000719  -0.0000790   0.0000647
    3  -0.0000982   0.0001056   0.0000169  -0.0000143
 Gradient of SCF Energy
            1           2           3           4           5           6
    1  -0.0009819  -0.0082872   0.0057023   0.0009858   0.0102859  -0.0013992
    2  -0.0078353   0.0054398   0.0033792   0.0077174  -0.0062224   0.0081160
    3  -0.0052329  -0.0080903  -0.0007813  -0.0001490   0.0000295   0.0031732
            7           8           9          10          11          12
    1   0.0084982   0.0040452   0.0038534  -0.0013288  -0.0041824  -0.0077635
    2  -0.0122775   0.0063188  -0.0019390  -0.0066243  -0.0064173   0.0024284
    3   0.0044073   0.0030633   0.0081620   0.0053114  -0.0033128  -0.0035190
           13          14          15          16          17          18
    1  -0.0059623   0.0007138  -0.0003816  -0.0005685  -0.0016464   0.0036952
    2   0.0014857   0.0126260   0.0054569  -0.0067707  -0.0078084   0.0046457
    3  -0.0072326   0.0113891   0.0038782  -0.0104782   0.0052951  -0.0061827
           19          20          21          22
    1  -0.0007331  -0.0028576  -0.0016914   0.0000040
    2   0.0012607   0.0006584  -0.0009107  -0.0027273
    3   0.0010608   0.0013262  -0.0043113   0.0021942
 Max gradient component =       1.263E-02
 RMS gradient           =       5.491E-03
 Computing fast CPCM-SWIG gradient
 Updating gradient with PCM contributions...
 -- total gradient after adding PCM contribution --
---------------------------------------------------
  Atom         X              Y              Z     
---------------------------------------------------
   1      -0.001175      -0.000003       0.000100
   2       0.000197       0.000078      -0.000067
   3       0.000034       0.000040      -0.000034
   4       0.000006      -0.000012       0.000009
   5       0.000000      -0.000033       0.000000
   6       0.000254       0.000000       0.000102
   7      -0.000072       0.000009       0.000017
   8       0.000200       0.000173       0.000093
   9      -0.000027      -0.000011       0.000010
  10       0.000014       0.000005      -0.000005
  11       0.000012       0.000006       0.000008
  12       0.000011      -0.000001       0.000009
  13       0.000010      -0.000006       0.000006
  14       0.000015      -0.000048      -0.000015
  15      -0.000023       0.000007      -0.000013
  16      -0.000023       0.000027       0.000001
  17       0.000379      -0.000184      -0.000165
  18       0.000027      -0.000028      -0.000033
  19       0.000090      -0.000036      -0.000033
  20       0.000065      -0.000026      -0.000009
  21      -0.000012       0.000018      -0.000017
  22       0.000019       0.000022       0.000036
---------------------------------------------------
 Number of fixed atoms: 0
 Gradient time:  CPU 902.02 s  wall 70.95 s
 ----------------------------------------------------------------
             Standard Nuclear Orientation (Angstroms)
    I     Atom           X                Y                Z
 ----------------------------------------------------------------
    1      C      -0.0788662000    -0.2184728000     0.7168987000
    2      C      -0.9774746000    -0.8856012000     1.7441072000
    3      C      -1.6191851000    -2.1238335000     1.1810674000
    4      C      -1.9809015000    -2.1603518000    -0.0944288000
    5      C      -1.7819778000    -0.9811089000    -0.9967090000
    6      C      -1.1762441000     0.2236216000    -0.2539194000
    7      C      -0.7505148000     1.3969173000    -1.1298950000
    8      H       0.3956171000     0.6589881000     1.1570558000
    9      H      -0.5077660000    -1.0379253000     2.7115760000
   10      H      -1.8043999000    -2.9594513000     1.8415109000
   11      H      -2.4652366000    -3.0261418000    -0.5265956000
   12      H      -2.7180883000    -0.6666800000    -1.4564726000
   13      H      -1.4762275000     1.5813732000    -1.9220545000
   14      O       0.5527122000     1.1916637000    -1.6654489000
   15      H      -0.7012299000     2.2742842000    -0.4873852000
   16      H       0.4804280000     0.7231460000    -2.5032047000
   17      O       0.8680367000    -1.1020439000     0.1661267000
   18      H       1.3228865000    -0.6177905000    -0.5355252000
   19      O      -1.9501146000     0.1461126000     1.9503980000
   20      O      -2.2239183000     0.6762474000     0.6154166000
   21      O      -1.3273552000    -0.9497116000    -3.2551318000
   22      O      -0.9278459000    -1.4172336000    -2.1047810000
 ----------------------------------------------------------------
 Nuclear Repulsion Energy =         920.42124790 hartrees
 There are       50 alpha and       49 beta electrons
 Discretize the solute cavity surface with Lebedev spheres
[...]
 H         -0.033 -0.127  0.005    0.173 -0.029 -0.437    0.012 -0.033 -0.045
 H          0.024 -0.027  0.005   -0.071  0.096  0.024   -0.014 -0.035  0.021
 O          0.005  0.005 -0.004    0.013  0.003  0.017   -0.006  0.001 -0.001
 H         -0.091 -0.106  0.098    0.059 -0.050  0.027    0.058  0.057 -0.065
 H         -0.086 -0.016  0.013   -0.156  0.038  0.008    0.075  0.009 -0.012
 O         -0.007 -0.012  0.035   -0.029  0.041  0.014    0.060 -0.081 -0.041
 H         -0.351  0.465  0.120    0.059 -0.091 -0.013   -0.062  0.128  0.010
 O         -0.010  0.005  0.004    0.003 -0.005 -0.000    0.018 -0.002 -0.065
 O          0.007 -0.013  0.006   -0.018  0.007 -0.007   -0.006  0.005  0.011
 O         -0.003  0.004 -0.009   -0.170  0.198 -0.486   -0.004  0.004 -0.011
 O          0.003 -0.005  0.009    0.145 -0.193  0.518    0.001 -0.005  0.011
 TransDip  -0.146  0.122  0.019   -0.037  0.033 -0.112   -0.145  0.169  0.053

 Mode:                40                     41                     42
 Frequency:      1287.04                1314.48                1325.01
 Force Cnst:      1.7363                 1.4600                 2.4797
 Red. Mass:       1.7790                 1.4342                 2.3972
 IR Active:          YES                    YES                    YES
 IR Intens:       13.854                  1.243                174.411
 Raman Active:       YES                    YES                    YES
               X      Y      Z        X      Y      Z        X      Y      Z
 C          0.032 -0.055 -0.097    0.002  0.039 -0.035    0.127 -0.125  0.023
 C         -0.072 -0.023  0.071    0.006  0.018  0.016   -0.037  0.043  0.013
 C          0.019  0.004  0.014    0.014  0.012  0.020    0.011  0.011 -0.018
 C          0.010  0.029 -0.019    0.023 -0.005  0.015   -0.028 -0.059  0.027
 C         -0.033 -0.072 -0.025   -0.013 -0.068  0.044    0.073  0.166  0.040
 C          0.047  0.003  0.111   -0.090 -0.019 -0.114   -0.069 -0.103 -0.080
 C         -0.012 -0.010 -0.040    0.019  0.013  0.061    0.008  0.036  0.038
 H          0.591 -0.306 -0.218    0.338 -0.315  0.292    0.134 -0.107 -0.025
 H          0.288 -0.224 -0.137   -0.054 -0.226  0.007    0.254 -0.178 -0.165
 H          0.086  0.133  0.198   -0.078 -0.065 -0.103   -0.088 -0.078 -0.157
 H         -0.037  0.142 -0.194   -0.033  0.137 -0.198    0.006 -0.151  0.172
 H          0.033  0.085 -0.055    0.245  0.479 -0.109   -0.029 -0.481 -0.188
 H          0.159  0.191 -0.146   -0.079 -0.194  0.099   -0.015 -0.115  0.021
 O          0.008  0.006  0.006   -0.017 -0.004 -0.011   -0.016 -0.009 -0.011
 H         -0.045 -0.099  0.089    0.096  0.162 -0.155    0.039  0.148 -0.122
 H         -0.223 -0.012  0.035    0.294  0.016 -0.046    0.287  0.012 -0.045
 O         -0.045  0.086  0.048    0.003 -0.003  0.014   -0.070  0.112  0.019
 H          0.022 -0.064 -0.001   -0.097  0.126  0.033    0.261 -0.395 -0.088
 O          0.010 -0.006 -0.029   -0.004  0.003 -0.004   -0.011  0.003 -0.014
 O         -0.019  0.012 -0.009    0.012 -0.003  0.011   -0.004  0.006  0.014
 O          0.010 -0.011  0.028   -0.000  0.001 -0.010   -0.000 -0.001 -0.003
 O         -0.011  0.016 -0.027   -0.005  0.005  0.006   -0.016 -0.004 -0.001
 TransDip   0.049 -0.107  0.018    0.020  0.025  0.016    0.336 -0.222 -0.130

 Mode:                43                     44                     45
 Frequency:      1332.04                1356.15                1394.20
 Force Cnst:      1.2916                 1.6527                 1.4364
 Red. Mass:       1.2355                 1.5252                 1.2542
 IR Active:          YES                    YES                    YES
 IR Intens:       41.064                  3.932                 19.894
 Raman Active:       YES                    YES                    YES
               X      Y      Z        X      Y      Z        X      Y      Z
 C          0.009  0.012 -0.006    0.024  0.048  0.002   -0.023  0.030 -0.044
 C         -0.016 -0.024  0.016   -0.055 -0.170 -0.001    0.010  0.012  0.010
 C         -0.005 -0.007 -0.009   -0.004  0.033 -0.026    0.000 -0.003  0.003
 C         -0.021  0.003 -0.012   -0.001  0.015 -0.041   -0.002 -0.002  0.001
 C          0.014  0.034 -0.081    0.009  0.006  0.058   -0.006  0.015 -0.009
 C         -0.039 -0.027 -0.021   -0.015 -0.031 -0.042    0.038 -0.015  0.064
 C          0.000  0.002  0.025    0.011  0.018  0.021    0.009  0.051  0.047
 H          0.182 -0.100  0.023    0.264 -0.007 -0.160   -0.031 -0.042  0.111
 H          0.065  0.101 -0.003    0.128  0.760  0.057   -0.061 -0.086  0.029
 H          0.075  0.065  0.105    0.143  0.198  0.213   -0.010 -0.012 -0.009
 H          0.021 -0.084  0.106    0.017 -0.065  0.111   -0.002 -0.001 -0.005
 H         -0.384  0.184  0.820    0.121 -0.100 -0.237   -0.031 -0.140 -0.060
 H          0.059 -0.011 -0.033   -0.009 -0.082  0.017    0.340  0.025 -0.245
 O         -0.010 -0.001 -0.007   -0.010 -0.005 -0.007   -0.043 -0.029 -0.048
 H          0.034  0.068 -0.070   -0.017  0.044 -0.014   -0.467 -0.102  0.317
 H          0.121  0.005 -0.019    0.142  0.001 -0.022    0.629 -0.018 -0.105
 O         -0.002  0.008  0.006    0.000 -0.008  0.010    0.008 -0.019  0.003
 H         -0.005  0.003  0.002   -0.098  0.133  0.036   -0.070  0.101  0.027
 O          0.001  0.001 -0.002    0.001  0.012  0.017    0.005 -0.004 -0.003
 O          0.002  0.003  0.004    0.002  0.000  0.004   -0.006  0.005 -0.009
 O         -0.014  0.011 -0.013    0.001 -0.000 -0.007   -0.003  0.001 -0.006
 O          0.056 -0.033  0.021   -0.015  0.006  0.003   -0.000 -0.003  0.005
 TransDip  -0.031  0.013 -0.202    0.044 -0.042 -0.017    0.123  0.073 -0.003

 Mode:                46                     47                     48
 Frequency:      1397.76                1398.63                1414.41
 Force Cnst:      1.6708                 2.1778                 1.9115
 Red. Mass:       1.4514                 1.8895                 1.6217
 IR Active:          YES                    YES                    YES
 IR Intens:        2.612                 52.667                 34.075
 Raman Active:       YES                    YES                    YES
               X      Y      Z        X      Y      Z        X      Y      Z
 C          0.057 -0.030 -0.011    0.029 -0.115  0.117   -0.024  0.003 -0.024
 C         -0.020 -0.044 -0.008   -0.002  0.016 -0.022    0.039  0.071  0.040
 C          0.030  0.058  0.024   -0.018 -0.031 -0.015   -0.059 -0.110 -0.059
 C         -0.007 -0.045  0.033    0.022  0.050 -0.024    0.017  0.093 -0.075
 C         -0.011 -0.011 -0.012   -0.025 -0.120  0.021   -0.001 -0.022  0.056
 C          0.040  0.040 -0.015   -0.018  0.134 -0.072    0.027 -0.004 -0.028
 C         -0.081 -0.076  0.089    0.016 -0.008  0.037   -0.052 -0.037  0.055
 H         -0.227  0.167 -0.084   -0.147  0.253 -0.416   -0.034 -0.096  0.185
 H          0.012  0.117  0.001    0.118  0.065 -0.074   -0.042 -0.170  0.048
 H         -0.088 -0.086 -0.196    0.068  0.069  0.133    0.189  0.206  0.417
 H         -0.035  0.116 -0.262    0.013  0.015  0.064    0.070 -0.221  0.508
 H          0.006  0.057  0.001    0.126  0.427  0.082    0.073 -0.080 -0.121
 H          0.492  0.284 -0.338    0.017 -0.000  0.036    0.257  0.119 -0.184
 O         -0.016  0.016 -0.012   -0.013 -0.016 -0.021   -0.005  0.011 -0.003
 H          0.332  0.208 -0.335   -0.331 -0.052  0.140    0.284  0.153 -0.240
 H          0.095  0.024 -0.021    0.286 -0.006 -0.049    0.017  0.016 -0.006
 O         -0.018  0.001  0.007   -0.018  0.050 -0.014    0.004 -0.004 -0.001
 H         -0.051  0.067  0.025    0.247 -0.341 -0.089    0.000 -0.000 -0.003
 O         -0.003  0.003  0.008   -0.011  0.005  0.004    0.001 -0.006 -0.004
 O         -0.004  0.002 -0.003    0.010 -0.013  0.011   -0.004  0.003 -0.001
 O         -0.000 -0.000  0.002   -0.000  0.001 -0.005    0.000  0.001 -0.009
 O          0.002  0.001 -0.001    0.004  0.004  0.004   -0.008  0.003  0.007
 TransDip   0.014 -0.049 -0.006    0.214 -0.089  0.013   -0.016  0.016  0.186

 Mode:                49                     50                     51
 Frequency:      1458.20                1476.07                1735.02
 Force Cnst:      2.5889                 1.3901                12.4639
 Red. Mass:       2.0665                 1.0829                 7.0274
 IR Active:          YES                    YES                    YES
 IR Intens:       26.078                  9.732                  1.093
 Raman Active:       YES                    YES                    YES
               X      Y      Z        X      Y      Z        X      Y      Z
 C          0.227 -0.055 -0.141   -0.004  0.011 -0.010    0.006 -0.005 -0.020
 C         -0.043 -0.014  0.064    0.001  0.000  0.003    0.024  0.014  0.064
 C          0.002 -0.012 -0.004   -0.000 -0.001 -0.001   -0.161 -0.076 -0.484
 C         -0.001  0.021 -0.031   -0.001 -0.001 -0.000    0.119 -0.054  0.504
 C          0.005 -0.027  0.004    0.002  0.009  0.002   -0.016  0.021 -0.063
 C         -0.044  0.031  0.005    0.002 -0.016  0.003   -0.001 -0.005  0.019
 C          0.040  0.013 -0.025    0.048 -0.061  0.008    0.002 -0.000 -0.007
 H         -0.603  0.215  0.287    0.015 -0.026  0.038   -0.038 -0.016  0.064
 H          0.129 -0.054 -0.018   -0.010 -0.005  0.007    0.105  0.204  0.062
 H          0.059  0.080  0.134    0.001  0.002  0.003    0.153  0.384  0.068
 H         -0.005 -0.026  0.066    0.001 -0.007  0.010    0.108  0.379 -0.174
 H          0.016  0.101  0.068   -0.002 -0.035 -0.016    0.033  0.149 -0.070
 H         -0.174 -0.120  0.134   -0.134  0.607  0.310   -0.006  0.003 -0.001
 O          0.001 -0.000  0.003    0.006 -0.005 -0.001   -0.000  0.000  0.001
 H         -0.097 -0.067  0.098   -0.526  0.277 -0.390   -0.012 -0.018  0.020
 H         -0.036 -0.008  0.009    0.006 -0.010 -0.001   -0.005 -0.000  0.001
 O         -0.062 -0.004  0.041    0.002 -0.004  0.001   -0.002  0.002  0.002
 H         -0.304  0.385  0.130   -0.023  0.029  0.006   -0.007  0.011  0.005
 O         -0.006  0.003 -0.008    0.001 -0.001  0.000   -0.002  0.003 -0.003
 O         -0.009  0.002  0.002   -0.001  0.001 -0.000   -0.001  0.002  0.000
 O          0.000 -0.000  0.000    0.000 -0.000 -0.000    0.001 -0.001  0.004
 O          0.001  0.000  0.000   -0.001 -0.000 -0.000    0.003  0.004 -0.012
 TransDip   0.161  0.024 -0.015   -0.032  0.094 -0.010    0.021 -0.017  0.020

 Mode:                52                     53                     54
 Frequency:      3077.33                3082.47                3109.37
 Force Cnst:      5.9089                 6.0803                 6.1846
 Red. Mass:       1.0590                 1.0861                 1.0857
 IR Active:          YES                    YES                    YES
 IR Intens:       36.202                 39.341                  2.465
 Raman Active:       YES                    YES                    YES
               X      Y      Z        X      Y      Z        X      Y      Z
 C         -0.002 -0.005 -0.002   -0.039 -0.067 -0.033    0.002  0.002  0.001
 C          0.000 -0.000  0.000    0.002 -0.001  0.003   -0.000 -0.000 -0.000
 C          0.000  0.000 -0.000    0.000  0.000  0.000   -0.000  0.000  0.000
 C          0.000  0.000  0.000   -0.000 -0.000 -0.000    0.001  0.002  0.001
 C          0.000 -0.000 -0.000   -0.002  0.001 -0.001   -0.072  0.024 -0.037
 C         -0.000 -0.000  0.001   -0.000 -0.001  0.000   -0.000  0.001 -0.000
 C         -0.040  0.051 -0.021    0.003 -0.003  0.003   -0.000  0.000 -0.000
 H          0.032  0.058  0.028    0.448  0.790  0.398   -0.013 -0.023 -0.011
 H         -0.002  0.001 -0.003   -0.025  0.009 -0.045    0.003 -0.001  0.005
 H         -0.000 -0.000  0.000    0.000  0.002 -0.002   -0.002 -0.002  0.002
 H         -0.000  0.000 -0.000    0.001  0.002  0.001   -0.013 -0.024 -0.015
 H         -0.002  0.003 -0.001    0.026 -0.009  0.013    0.854 -0.285  0.425
 H          0.526 -0.127  0.592   -0.044  0.012 -0.050    0.001 -0.002  0.003
 O         -0.001 -0.000  0.000    0.000  0.000 -0.000    0.000  0.000  0.000
 H         -0.037 -0.471 -0.352    0.002  0.027  0.018   -0.000 -0.004 -0.002
 H          0.001  0.002  0.005    0.000 -0.000 -0.000    0.000  0.000  0.000
 O         -0.000  0.000 -0.000    0.001  0.000 -0.000   -0.000  0.000 -0.000
 H          0.002 -0.001  0.000    0.005 -0.001 -0.001   -0.000 -0.000  0.001
 O          0.000  0.000 -0.000    0.000  0.000  0.000   -0.000  0.000  0.000
 O          0.000 -0.000 -0.000   -0.000  0.000 -0.000    0.000 -0.000 -0.000
 O         -0.000 -0.000 -0.000    0.000 -0.000  0.000    0.000 -0.000  0.000
 O          0.000  0.000  0.000   -0.000  0.000 -0.000   -0.001  0.000 -0.000
 TransDip  -0.145  0.123 -0.030   -0.024 -0.174 -0.097   -0.035  0.032  0.016

 Mode:                55                     56                     57
 Frequency:      3134.76                3154.37                3195.50
 Force Cnst:      6.4193                 6.3830                 6.5441
 Red. Mass:       1.1087                 1.0888                 1.0877
 IR Active:          YES                    YES                    YES
 IR Intens:       22.877                  5.960                  1.998
 Raman Active:       YES                    YES                    YES
               X      Y      Z        X      Y      Z        X      Y      Z
 C         -0.000 -0.001 -0.000   -0.003 -0.004 -0.001   -0.000 -0.000  0.000
 C          0.000 -0.000  0.001   -0.036  0.011 -0.076   -0.002  0.000 -0.004
 C          0.000  0.000 -0.000   -0.000 -0.004  0.005    0.008  0.033 -0.023
 C         -0.000  0.000 -0.000    0.000  0.001  0.000   -0.033 -0.059 -0.031
 C          0.000  0.000 -0.000    0.000 -0.000  0.000   -0.002  0.001 -0.002
 C         -0.001 -0.001 -0.001    0.000 -0.001  0.001    0.000  0.000  0.000
 C         -0.036 -0.046 -0.076   -0.000 -0.000 -0.001    0.000  0.000 -0.000
 H          0.007  0.010  0.006    0.025  0.040  0.019    0.000  0.001 -0.000
 H         -0.003  0.001 -0.006    0.433 -0.140  0.881    0.021 -0.006  0.042
 H         -0.000 -0.000  0.000    0.013  0.060 -0.052   -0.084 -0.381  0.300
 H          0.000  0.000  0.000   -0.005 -0.007 -0.003    0.388  0.692  0.344
 H          0.003  0.001  0.002   -0.003  0.001 -0.002    0.020 -0.008  0.012
 H          0.380 -0.104  0.429    0.003 -0.000  0.003   -0.000  0.000 -0.000
 O          0.001  0.001  0.001    0.000  0.000  0.000   -0.000 -0.000  0.000
 H          0.045  0.655  0.470    0.000  0.004  0.003   -0.000 -0.000  0.000
 H         -0.010 -0.010 -0.008   -0.000 -0.000 -0.000    0.000  0.000  0.000
 O         -0.000  0.000 -0.000    0.000  0.000 -0.000   -0.000  0.000 -0.000
 H         -0.000 -0.000  0.000    0.001 -0.001 -0.000    0.000 -0.000  0.000
 O         -0.000  0.000  0.000   -0.001  0.001 -0.001   -0.000  0.000 -0.000
 O          0.000  0.000  0.000    0.001 -0.001  0.001    0.000 -0.000  0.000
 O          0.000 -0.000 -0.000    0.000  0.000 -0.000   -0.000 -0.000  0.000
 O         -0.000  0.000  0.000    0.000  0.000 -0.000   -0.000 -0.000  0.000
 TransDip  -0.055 -0.062 -0.129   -0.035 -0.019 -0.067   -0.019 -0.022 -0.035

 Mode:                58                     59                     60
 Frequency:      3216.07                3776.68                3844.77
 Force Cnst:      6.7023                 8.9612                 9.2897
 Red. Mass:       1.0998                 1.0663                 1.0666
 IR Active:          YES                    YES                    YES
 IR Intens:        8.057                215.942                128.883
 Raman Active:       YES                    YES                    YES
               X      Y      Z        X      Y      Z        X      Y      Z
 C          0.001  0.001 -0.000    0.000  0.001 -0.001   -0.000 -0.000 -0.000
 C          0.003  0.001  0.006   -0.000  0.000  0.000    0.000  0.000  0.000
 C         -0.011 -0.058  0.052   -0.000  0.000  0.000   -0.000  0.000  0.000
 C         -0.021 -0.034 -0.024   -0.000  0.000 -0.000   -0.000 -0.000 -0.000
 C         -0.001  0.001 -0.002    0.000  0.000  0.000   -0.000  0.000  0.000
 C          0.000  0.000 -0.000   -0.000  0.000  0.000   -0.000  0.000 -0.000
 C          0.000  0.000 -0.000   -0.000 -0.000  0.000   -0.001 -0.001 -0.001
 H         -0.003 -0.006 -0.002   -0.002  0.004  0.002    0.000 -0.000  0.000
 H         -0.029  0.005 -0.058    0.000  0.000 -0.000   -0.000 -0.000  0.000
 H          0.145  0.667 -0.530   -0.000 -0.000  0.000   -0.000 -0.000  0.000
 H          0.220  0.392  0.198   -0.000 -0.000 -0.000   -0.000 -0.000  0.000
 H          0.014 -0.006  0.009   -0.001 -0.000 -0.000   -0.000  0.000 -0.000
 H          0.000 -0.000  0.001    0.001  0.000 -0.001   -0.002  0.001  0.005
 O         -0.000 -0.000  0.000    0.000 -0.001 -0.002   -0.003 -0.030 -0.055
 H         -0.000 -0.001 -0.000    0.001 -0.000 -0.000   -0.001  0.010  0.008
 H          0.000  0.000  0.000    0.002  0.015  0.026    0.069  0.486  0.869
 O         -0.000  0.000  0.000    0.031  0.029 -0.046   -0.001 -0.001  0.001
 H         -0.000 -0.000  0.000   -0.489 -0.479  0.726    0.013  0.016 -0.022
 O          0.000 -0.000  0.000   -0.000 -0.000  0.000   -0.000 -0.000  0.000
 O         -0.000  0.000 -0.000   -0.000  0.000 -0.000   -0.000 -0.000  0.000
 O         -0.000 -0.000  0.000    0.000 -0.000 -0.000   -0.000 -0.000 -0.000
 O          0.000 -0.000  0.000   -0.000 -0.000 -0.000   -0.000 -0.000  0.000
 TransDip  -0.032 -0.079  0.030   -0.244 -0.187  0.357   -0.034  0.179  0.315

 STANDARD THERMODYNAMIC QUANTITIES AT   298.15 K  AND     1.00 ATM

   This Molecule has  0 Imaginary Frequencies
   Zero point vibrational energy:      104.933 kcal/mol

   Atom    1 Element C  Has Mass   12.00000
   Atom    2 Element C  Has Mass   12.00000
   Atom    3 Element C  Has Mass   12.00000
   Atom    4 Element C  Has Mass   12.00000
   Atom    5 Element C  Has Mass   12.00000
   Atom    6 Element C  Has Mass   12.00000
   Atom    7 Element C  Has Mass   12.00000
   Atom    8 Element H  Has Mass    1.00783
   Atom    9 Element H  Has Mass    1.00783
   Atom   10 Element H  Has Mass    1.00783
   Atom   11 Element H  Has Mass    1.00783
   Atom   12 Element H  Has Mass    1.00783
   Atom   13 Element H  Has Mass    1.00783
   Atom   14 Element O  Has Mass   15.99491
   Atom   15 Element H  Has Mass    1.00783
   Atom   16 Element H  Has Mass    1.00783
   Atom   17 Element O  Has Mass   15.99491
   Atom   18 Element H  Has Mass    1.00783
   Atom   19 Element O  Has Mass   15.99491
   Atom   20 Element O  Has Mass   15.99491
   Atom   21 Element O  Has Mass   15.99491
   Atom   22 Element O  Has Mass   15.99491
   Molecular Mass:   189.039930 amu
   Principal axes and moments of inertia in amu*Bohr^2:
                             1           2           3
    Eigenvalues --     1481.43216  2206.43619  2577.11423
          X              -0.21334     0.39061     0.89549
          Y              -0.12234     0.89870    -0.42115
          Z               0.96929     0.19940     0.14395
   Rotational Symmetry Number is   1
   The Molecule is an Asymmetric Top
   Translational Enthalpy:        0.889 kcal/mol
   Rotational Enthalpy:           0.889 kcal/mol
   Vibrational Enthalpy:        110.439 kcal/mol
   gas constant (RT):             0.592 kcal/mol
   Translational Entropy:        41.616  cal/mol.K
   Rotational Entropy:           30.511  cal/mol.K
   Vibrational Entropy:          32.501  cal/mol.K

   Total Enthalpy:              112.809 kcal/mol
   Total Entropy:               104.628  cal/mol.K
 Total job time:  51363.47s(wall), 731111.25s(cpu) 
 Thu Aug  1 10:56:37 2024

        *************************************************************
        *                                                           *
        *  Thank you very much for using Q-Chem.  Have a nice day.  *
        *                                                           *
        *************************************************************


