
Running Job 1 of 1 Q_in.in
qchem Q_in.in_331314.0 /scratch/ari.fischer/qChem2257791.hpc-mn1/qchem331314/ 0
/usr/local/qchem-5.4.1/exe/qcprog.exe_s Q_in.in_331314.0 /scratch/ari.fischer/qChem2257791.hpc-mn1/qchem331314/
                  Welcome to Q-Chem
     A Quantum Leap Into The Future Of Chemistry


 Q-Chem 5.4, Q-Chem, Inc., Pleasanton, CA (2021)

 License issued to: Nanyang Technological University (site)

 E. Epifanovsky,  A. T. B. Gilbert,  Xintian Feng,  Joonho Lee,  Yuezhi Mao,  
 N. Mardirossian,  P. Pokhilko,  A. White,  M. Wormit,  M. P. Coons,  
 A. L. Dempwolff,  Zhengting Gan,  D. Hait,  P. R. Horn,  L. D. Jacobson,  
 I. Kaliman,  J. Kussmann,  A. W. Lange,  Ka Un Lao,  D. S. Levine,  Jie Liu,  
 S. C. McKenzie,  A. F. Morrison,  K. Nanda,  F. Plasser,  D. R. Rehn,  
 M. L. Vidal,  Zhi-Qiang You,  Ying Zhu,  B. Alam,  B. Albrecht,  
 A. Aldossary,  E. Alguire,  J. H. Andersen,  D. Barton,  K. Begam,  A. Behn,  
 Y. A. Bernard,  E. J. Berquist,  H. Burton,  A. Carreras,  K. Carter-Fenk,  
 R. Chakraborty,  A. D. Chien,  K. D. Closser,  V. Cofer-Shabica,  
 S. Dasgupta,  Jia Deng,  M. de Wergifosse,  M. Diedenhofen,  Hainam Do,  
 S. Ehlert,  Po-Tung Fang,  S. Fatehi,  Qingguo Feng,  T. Friedhoff,  
 J. Gayvert,  Qinghui Ge,  G. Gidofalvi,  M. Goldey,  J. Gomes,  
 C. Gonzalez-Espinoza,  S. Gulania,  A. Gunina,  M. W. D. Hanson-Heine,  
 P. H. P. Harbach,  A. W. Hauser,  M. F. Herbst,  M. Hernandez Vera,  
 M. Hodecker,  Z. C. Holden,  S. Houck,  Xunkun Huang,  Kerwin Hui,  
 B. C. Huynh,  M. Ivanov,  Hyunjun Ji,  Hanjie Jiang,  B. Kaduk,  S. Kaehler,  
 K. Khistyaev,  Jaehoon Kim,  P. Klunzinger,  Z. Koczor-Benda,  
 Joong Hoon Koh,  D. Kosenkov,  L. Koulias,  T. Kowalczyk,  C. M. Krauter,  
 K. Kue,  A. Kunitsa,  T. Kus,  A. Landau,  K. V. Lawler,  D. Lefrancois,  
 S. Lehtola,  Rain Li,  Yi-Pei Li,  Jiashu Liang,  M. Liebenthal,  
 Hung-Hsuan Lin,  You-Sheng Lin,  Fenglai Liu,  Kuan-Yu Liu,  
 M. Loipersberger,  A. Luenser,  A. Manjanath,  P. Manohar,  E. Mansoor,  
 S. F. Manzer,  Shan-Ping Mao,  A. V. Marenich,  T. Markovich,  S. Mason,  
 S. A. Maurer,  P. F. McLaughlin,  M. F. S. J. Menger,  J.-M. Mewes,  
 S. A. Mewes,  P. Morgante,  J. W. Mullinax,  K. J. Oosterbaan,  G. Paran,  
 Alexander C. Paul,  Suranjan K. Paul,  F. Pavosevic,  Zheng Pei,  S. Prager,  
 E. I. Proynov,  E. Ramos,  B. Rana,  A. E. Rask,  A. Rettig,  R. M. Richard,  
 F. Rob,  E. Rossomme,  T. Scheele,  M. Scheurer,  M. Schneider,  
 N. Sergueev,  S. M. Sharada,  W. Skomorowski,  D. W. Small,  C. J. Stein,  
 Yu-Chuan Su,  E. J. Sundstrom,  Zhen Tao,  J. Thirman,  T. Tsuchimochi,  
 N. M. Tubman,  S. P. Veccham,  O. Vydrov,  J. Wenzel,  J. Witte,  A. Yamada,  
 Kun Yao,  S. Yeganeh,  S. R. Yost,  A. Zech,  Igor Ying Zhang,  Xing Zhang,  
 Yu Zhang,  D. Zuev,  A. Aspuru-Guzik,  A. T. Bell,  N. A. Besley,  
 K. B. Bravaya,  B. R. Brooks,  D. Casanova,  Jeng-Da Chai,  S. Coriani,  
 C. J. Cramer,  A. E. DePrince, III,  R. A. DiStasio Jr.,  A. Dreuw,  
 B. D. Dunietz,  T. R. Furlani,  W. A. Goddard III,  S. Grimme,  
 S. Hammes-Schiffer,  T. Head-Gordon,  W. J. Hehre,  Chao-Ping Hsu,  
 T.-C. Jagau,  Yousung Jung,  A. Klamt,  Jing Kong,  D. S. Lambrecht,  
 WanZhen Liang,  N. J. Mayhall,  C. W. McCurdy,  J. B. Neaton,  
 C. Ochsenfeld,  J. A. Parkhill,  R. Peverati,  V. A. Rassolov,  Yihan Shao,  
 L. V. Slipchenko,  T. Stauch,  R. P. Steele,  J. E. Subotnik,  
 A. J. W. Thom,  A. Tkatchenko,  D. G. Truhlar,  T. Van Voorhis,  
 T. A. Wesolowski,  K. B. Whaley,  H. L. Woodcock III,  P. M. Zimmerman,  
 S. Faraji,  P. M. W. Gill,  M. Head-Gordon,  J. M. Herbert,  A. I. Krylov

 Additional authors for Version 5.4.1: 
 S. Kotaru,  Shaozhi Li,  Xiangyuan Li,  F. Matz,  A. Molle,  Haisheng Ren,  
 Yingli Su,  Hung-Yi Tsai,  C. Utku,  Fang Wang

 Contributors to earlier versions of Q-Chem not listed above: 
 R. D. Adamson,  B. Austin,  R. Baer,  J. Baker,  G. J. O. Beran,  
 K. Brandhorst,  S. T. Brown,  E. F. C. Byrd,  A. K. Chakraborty,  
 G. K. L. Chan,  Chun-Min Chang,  Yunqing Chen,  C.-L. Cheng,  
 Siu Hung Chien,  D. M. Chipman,  D. L. Crittenden,  H. Dachsel,  
 R. J. Doerksen,  A. D. Dutoi,  R. G. Edgar,  J. Fosso-Tande,  
 L. Fusti-Molnar,  D. Ghosh,  A. Ghysels,  A. Golubeva-Zadorozhnaya,  
 J. Gonthier,  M. S. Gordon,  S. R. Gwaltney,  G. Hawkins,  J. E. Herr,  
 A. Heyden,  S. Hirata,  E. G. Hohenstein,  G. Kedziora,  F. J. Keil,  
 C. Kelley,  Jihan Kim,  R. A. King,  R. Z. Khaliullin,  P. P. Korambath,  
 W. Kurlancheek,  A. Laurent,  A. M. Lee,  M. S. Lee,  S. V. Levchenko,  
 Ching Yeh Lin,  D. Liotard,  E. Livshits,  R. C. Lochan,  I. Lotan,  
 L. A. Martinez-Martinez,  P. E. Maslen,  N. Nair,  D. P. O'Neill,  
 D. Neuhauser,  E. Neuscamman,  C. M. Oana,  R. Olivares-Amaya,  R. Olson,  
 T. M. Perrine,  B. Peters,  P. A. Pieniazek,  A. Prociuk,  Y. M. Rhee,  
 J. Ritchie,  M. A. Rohrdanz,  E. Rosta,  N. J. Russ,  H. F. Schaefer III,  
 M. W. Schmidt,  N. E. Schultz,  S. Sharma,  N. Shenvi,  C. D. Sherrill,  
 A. C. Simmonett,  A. Sodt,  T. Stein,  D. Stuck,  K. S. Thanthiriwatte,  
 V. Vanovschi,  L. Vogt,  Tao Wang,  A. Warshel,  M. A. Watson,  
 C. F. Williams,  Q. Wu,  X. Xu,  Jun Yang,  W. Zhang,  Yan Zhao

 Please cite Q-Chem as follows:
 Y. Shao et al., Mol. Phys. 113, 184-215 (2015)
 DOI: 10.1080/00268976.2014.952696

 Q-Chem 5.4.1 for Intel X86 EM64T Linux

 Parts of Q-Chem use Armadillo 9.800.1 (Horizon Scraper).
 http://arma.sourceforge.net/

 Q-Chem begins on Wed Jul 31 17:12:52 2024  

 Host: 
0

     Scratch files written to /scratch/ari.fischer/qChem2257791.hpc-mn1/qchem331314//
 Aug1521 |scratch|qcdevops|jenkins|workspace|build_RNUM 8249   
 Processing $rem in /usr/local/qchem-5.4.1/config/preferences:
 Processing $rem in /home/ari.fischer/.qchemrc:
 Symmetry turned off for PCM/SM12/SMD calculation

 Checking the input file for inconsistencies... 	...done.

--------------------------------------------------------------
User input:
--------------------------------------------------------------
$molecule
0 2
C        -0.0824806221   -0.2208014171    0.7066884020
C        -0.9708538377   -0.8885328410    1.7468571217
C        -1.6215798918   -2.1316914324    1.1965043063
C        -2.0017733933   -2.1693670116   -0.0800657111
C        -1.7923580925   -0.9949010837   -0.9923148178
C        -1.1929679575    0.2199667497   -0.2533734640
C        -0.7514896498    1.3886282847   -1.1335937807
H         0.3930127621    0.6647268880    1.1465803044
H        -0.4938498884   -1.0343436355    2.7171410437
H        -1.8080763571   -2.9666134710    1.8652815950
H        -2.4984045854   -3.0369961825   -0.5062220038
H        -2.7211568735   -0.6868023302   -1.4809607395
H        -1.4871688862    1.6071993372   -1.9139613154
O         0.5387118697    1.1366496553   -1.6884544233
H        -0.6603282653    2.2622698953   -0.4821289334
H         0.4135600714    0.6696784024   -2.5305371159
O         0.8576300871   -1.0899281815    0.1224474234
H         1.2425116882   -0.5735371600   -0.6110983380
O        -1.9457419466    0.1452804869    1.9620616882
O        -2.2397196510    0.6722451871    0.6185769350
O        -1.1094051912   -0.7854470364   -3.1815829813
O        -0.9157369889   -1.4626753040   -2.0752396953
$end

$rem
BASIS = 6-311++G(2df,2p)
GUI = 2
JOB_TYPE = Optimization
METHOD = wB97M-V
SCF_ALGORITHM = DIIS_GDM
MAX_SCF_CYCLES = 400
GEOM_OPT_MAX_CYCLES = 150
SCF_CONVERGENCE = 7
THRESH = 12
Solvent_method = SMD
$end
--------------------------------------------------------------
 ----------------------------------------------------------------
             Standard Nuclear Orientation (Angstroms)
    I     Atom           X                Y                Z
 ----------------------------------------------------------------
    1      C      -0.0824806221    -0.2208014171     0.7066884020
    2      C      -0.9708538377    -0.8885328410     1.7468571217
    3      C      -1.6215798918    -2.1316914324     1.1965043063
    4      C      -2.0017733933    -2.1693670116    -0.0800657111
    5      C      -1.7923580925    -0.9949010837    -0.9923148178
    6      C      -1.1929679575     0.2199667497    -0.2533734640
    7      C      -0.7514896498     1.3886282847    -1.1335937807
    8      H       0.3930127621     0.6647268880     1.1465803044
    9      H      -0.4938498884    -1.0343436355     2.7171410437
   10      H      -1.8080763571    -2.9666134710     1.8652815950
   11      H      -2.4984045854    -3.0369961825    -0.5062220038
   12      H      -2.7211568735    -0.6868023302    -1.4809607395
   13      H      -1.4871688862     1.6071993372    -1.9139613154
   14      O       0.5387118697     1.1366496553    -1.6884544233
   15      H      -0.6603282653     2.2622698953    -0.4821289334
   16      H       0.4135600714     0.6696784024    -2.5305371159
   17      O       0.8576300871    -1.0899281815     0.1224474234
   18      H       1.2425116882    -0.5735371600    -0.6110983380
   19      O      -1.9457419466     0.1452804869     1.9620616882
   20      O      -2.2397196510     0.6722451871     0.6185769350
   21      O      -1.1094051912    -0.7854470364    -3.1815829813
   22      O      -0.9157369889    -1.4626753040    -2.0752396953
 ----------------------------------------------------------------
 Nuclear Repulsion Energy =         923.23340022 hartrees
 There are       50 alpha and       49 beta electrons
 Requested basis set is 6-311++G(2df,2p)
 There are 158 shells and 532 basis functions

 Total QAlloc Memory Limit 288000 MB
 Mega-Array Size       188 MB
 MEM_STATIC part       192 MB
 
 Citation of the SMD model:
 Marenich, A.V.; Cramer, C.J.; Truhlar, D.G.
 J. Phys. Chem. B 2009, 113, 6378-6396.
 iSolventCode=           1
 Solvent: water                                                           
 
 vradii
            1           2           3           4           5           6
    1   1.8500000   1.8500000   1.8500000   1.8500000   1.8500000   1.8500000
            7           8           9          10          11          12
    1   1.8500000   1.2000000   1.2000000   1.2000000   1.2000000   1.2000000
           13          14          15          16          17          18
    1   1.2000000   1.5200000   1.2000000   1.2000000   1.5200000   1.2000000
           19          20          21          22
    1   1.5200000   1.5200000   1.5200000   1.5200000
 Changing PCM_VDW_RADII to SMD_RADIUS
 Discretize the solute cavity surface with Lebedev spheres
	Using 110 Lebedev grid points for each H atom
	Using 194 Lebedev grid points for other atoms
	Atomic van der Waals radii will be scaled by 1.20
 Remove points where switching function is < 1.0e-08
 Keep 1594 surface tesserae and discard 1918 interior tesserae
 Molecular Surface Area = 175.841 Angst**2
 A cutoff of  1.0D-12 yielded  11189 shell pairs
 There are    128004 function pairs (    160706 Cartesian)
 Smallest overlap matrix eigenvalue = 2.16E-06

 Scale SEOQF with 1.000000e-01/1.000000e-01/1.000000e-01

 Standard Electronic Orientation quadrupole field applied
 Nucleus-field energy     =    -0.0000000081 hartrees
 Guess from superposition of atomic densities
 Warning:  Energy on first SCF cycle will be non-variational
 SAD guess density has 99.000000 electrons

 -----------------------------------------------------------------------
  General SCF calculation program by
  Eric Jon Sundstrom, Paul Horn, Yuezhi Mao, Dmitri Zuev, Alec White,
  David Stuck, Shaama M.S., Shane Yost, Joonho Lee, David Small,
  Daniel Levine, Susi Lehtola, Hugh Burton, Evgeny Epifanovsky,
  Bang C. Huynh
 -----------------------------------------------------------------------
 Exchange:     0.1500 Hartree-Fock + 1.0000 wB97M-V + LR-HF
 Correlation:  1.0000 wB97M-V
 Using SG-2 standard quadrature grid
 Nonlocal Correlation:  VV10 with C = 0.0100 and b = 6.00 and scale = 1.00000
 Grid used for NLC:  SG-1 standard quadrature
 
 Citation of the SMD model:
 Marenich, A.V.; Cramer, C.J.; Truhlar, D.G.
 J. Phys. Chem. B 2009, 113, 6378-6396.
 iSolventCode=           1
 Solvent: water                                                           
 
 vradii
            1           2           3           4           5           6
    1   1.8500000   1.8500000   1.8500000   1.8500000   1.8500000   1.8500000
            7           8           9          10          11          12
    1   1.8500000   1.2000000   1.2000000   1.2000000   1.2000000   1.2000000
           13          14          15          16          17          18
    1   1.2000000   1.5200000   1.2000000   1.2000000   1.5200000   1.2000000
           19          20          21          22
    1   1.5200000   1.5200000   1.5200000   1.5200000
 using 16 threads for integral computing
 -------------------------------------------------------
 OpenMP Integral computing Module                
 Release: version 1.0, May 2013, Q-Chem Inc. Pittsburgh 
 -------------------------------------------------------
 -------------------------------------------------------
 OpenMP BLAS3 based DFT computing Module                
 Release: version 1.0, May 2013, Q-Chem Inc. Pittsburgh 
 -------------------------------------------------------
 A unrestricted SCF calculation will be
 performed using DIIS, GDM
 SCF converges when RMS gradient is below 1.0e-07
 ---------------------------------------
  Cycle       Energy         DIIS error
 ---------------------------------------
    1    -726.5466702330      1.08e-02  
    2    -723.1202193369      1.15e-03  Done DIIS. Switching to GDM
 ---------------------------------------
  Cycle       Energy        RMS Gradient
 ---------------------------------------
    1    -723.1202193369      8.70e-02   Descent step
    2    -723.2540469286      5.14e-02   Normal BFGS step
    3    -723.2787058176      2.89e-02   Normal BFGS step
    4    -723.2828128031      8.43e-03   Normal BFGS step
    5    -723.2846575951      5.44e-03   Normal BFGS step
    6    -723.2849806200      4.10e-03   Normal BFGS step
    7    -723.2850923071      2.14e-03   Normal BFGS step
    8    -723.2851269689      1.37e-03   Normal BFGS step
    9    -723.2851359137      1.03e-03   Normal BFGS step
   10    -723.2851423511      6.88e-04   Normal BFGS step
   11    -723.2851455868      6.30e-04   Normal BFGS step
   12    -723.2851493265      4.76e-04   Normal BFGS step
   13    -723.2851506863      2.12e-04   Normal BFGS step
   14    -723.2851510645      5.43e-05   Normal BFGS step
   15    -723.2851511230      1.96e-05   Normal BFGS step
   16    -723.2851511289      1.03e-05   Normal BFGS step
   17    -723.2851511306      4.03e-06   Normal BFGS step
   18    -723.2851511309      2.71e-06   Normal BFGS step
   19    -723.2851511310      1.69e-06   Normal BFGS step
   20    -723.2851511311      9.46e-07   Normal BFGS step
   21    -723.2851511312      2.33e-07   Normal BFGS step
   22    -723.2851511312      1.57e-07   Normal BFGS step
   23    -723.2851511311      4.72e-08  Convergence criterion met
 ---------------------------------------
 SCF time:   CPU 6558.09s  wall 453.00s 
<S^2> =          0.754132134
(3)  G-ENP(liq) elect-nuc-pol free energy of system     -723.285151131 a.u.
(4)  G-CDS(liq) cavity-dispersion-solvent structure 
     free energy                                                2.4949 kcal/mol
(6)  G-S(liq) free energy of system                     -723.281175333 a.u.
 SCF   energy in the final basis set =     -723.2811753330
 Total energy in the final basis set =     -723.2811753330
 
 --------------------------------------------------------------
 
                    Orbital Energies (a.u.)
 --------------------------------------------------------------
 
 Alpha MOs
 -- Occupied --
-19.4712 -19.4221 -19.4101 -19.4100 -19.3501 -19.3485 -10.4238 -10.4224
-10.4129 -10.4108 -10.3983 -10.3612 -10.3582  -1.3449  -1.2762  -1.1772
 -1.1623  -1.0786  -1.0326  -0.9582  -0.8944  -0.8482  -0.8103  -0.7624
 -0.7242  -0.6937  -0.6646  -0.6541  -0.6501  -0.6213  -0.6179  -0.5973
 -0.5826  -0.5690  -0.5649  -0.5579  -0.5345  -0.5196  -0.5104  -0.4955
 -0.4848  -0.4693  -0.4496  -0.4424  -0.4186  -0.4131  -0.3973  -0.3897
 -0.3701  -0.3664
 -- Virtual --
  0.0258   0.0351   0.0368   0.0418   0.0440   0.0540   0.0576   0.0689
  0.0745   0.0827   0.0864   0.0944   0.1013   0.1201   0.1243   0.1289
  0.1347   0.1379   0.1428   0.1434   0.1512   0.1535   0.1596   0.1629
  0.1665   0.1745   0.1764   0.1795   0.1879   0.1927   0.1973   0.2002
  0.2070   0.2115   0.2127   0.2186   0.2221   0.2323   0.2380   0.2499
  0.2595   0.2648   0.2736   0.2789   0.2850   0.2897   0.2925   0.2985
  0.3057   0.3123   0.3166   0.3243   0.3308   0.3320   0.3380   0.3434
  0.3509   0.3566   0.3617   0.3705   0.3744   0.3795   0.3819   0.3850
  0.3865   0.3934   0.3974   0.4008   0.4107   0.4169   0.4220   0.4235
  0.4331   0.4399   0.4489   0.4592   0.4659   0.4678   0.4817   0.4957
  0.4990   0.5130   0.5168   0.5266   0.5411   0.5571   0.5654   0.5900
  0.6023   0.6088   0.6179   0.6313   0.6402   0.6543   0.6572   0.6695
  0.6758   0.6859   0.6897   0.6953   0.7073   0.7088   0.7179   0.7267
  0.7341   0.7440   0.7484   0.7551   0.7711   0.7835   0.7871   0.8109
  0.8225   0.8247   0.8395   0.8477   0.8525   0.8686   0.8781   0.9007
  0.9226   0.9301   0.9537   0.9807   0.9860   0.9984   1.0206   1.0444
  1.0634   1.0748   1.0862   1.0899   1.0970   1.1177   1.1278   1.1324
  1.1389   1.1521   1.1605   1.1674   1.1740   1.1834   1.1958   1.2045
  1.2085   1.2204   1.2292   1.2381   1.2416   1.2556   1.2627   1.2701
  1.2798   1.2848   1.2921   1.3012   1.3083   1.3167   1.3274   1.3322
  1.3445   1.3505   1.3616   1.3692   1.3781   1.3824   1.3922   1.3997
  1.4228   1.4298   1.4409   1.4523   1.4577   1.4701   1.4843   1.4940
  1.5054   1.5110   1.5130   1.5268   1.5406   1.5528   1.5626   1.5785
  1.5884   1.5970   1.6082   1.6197   1.6309   1.6335   1.6427   1.6562
  1.6730   1.7002   1.7117   1.7244   1.7425   1.7478   1.7654   1.7849
  1.8029   1.8235   1.8368   1.8421   1.8536   1.8828   1.8993   1.9346
  1.9656   1.9892   1.9974   2.0118   2.0260   2.0545   2.0783   2.0951
  2.1102   2.1380   2.1544   2.1921   2.2100   2.2414   2.2533   2.2738
  2.2950   2.3162   2.3329   2.3623   2.3769   2.4096   2.4276   2.4310
  2.4671   2.4902   2.5147   2.5912   2.6614   2.6882   2.7072   2.7255
  2.7326   2.7556   2.7756   2.7989   2.8111   2.8326   2.8495   2.8598
  2.8701   2.8839   2.8901   2.9171   2.9256   2.9507   2.9633   2.9816
  2.9920   3.0068   3.0265   3.0467   3.0592   3.0785   3.0947   3.1068
  3.1425   3.1548   3.1648   3.1874   3.2149   3.2320   3.2501   3.2643
  3.2825   3.3276   3.3309   3.3543   3.3591   3.3849   3.3957   3.4059
  3.4220   3.4426   3.4557   3.4793   3.4846   3.5118   3.5143   3.5305
  3.5344   3.5482   3.5588   3.5829   3.6170   3.6258   3.6328   3.6532
  3.6817   3.7000   3.7052   3.7116   3.7199   3.7514   3.7632   3.7821
  3.7959   3.8066   3.8122   3.8304   3.8455   3.8467   3.8678   3.8719
  3.9003   3.9094   3.9183   3.9266   3.9421   3.9525   3.9623   3.9828
  3.9973   4.0115   4.0330   4.0454   4.0618   4.0925   4.1033   4.1212
  4.1340   4.1529   4.1861   4.1951   4.2174   4.2480   4.2489   4.2808
  4.2855   4.3144   4.3227   4.3475   4.3537   4.3735   4.3876   4.4040
  4.4212   4.4351   4.4502   4.4670   4.4719   4.5008   4.5164   4.5454
  4.5647   4.5800   4.5936   4.6063   4.6259   4.6432   4.6539   4.6829
  4.7118   4.7144   4.7289   4.7460   4.7566   4.7651   4.8324   4.8435
  4.8969   4.9051   4.9265   4.9652   4.9926   5.0404   5.0451   5.0895
  5.1122   5.1217   5.1646   5.1901   5.1973   5.2210   5.2549   5.2601
  5.2747   5.2815   5.3073   5.3207   5.3352   5.3437   5.3508   5.3656
  5.3745   5.3843   5.4160   5.4216   5.4435   5.4687   5.4753   5.5036
  5.5062   5.5189   5.5467   5.5545   5.5635   5.5846   5.6133   5.6337
  5.6508   5.6718   5.6915   5.7045   5.7341   5.7575   5.7719   5.7778
  5.8051   5.8197   5.8348   5.8852   5.9464   5.9720   5.9849   6.0285
  6.0442   6.0608   6.1215   6.2316   6.4446   6.4688   6.5818   6.6033
  6.6229   6.6856   6.7369   6.7715   6.8854   6.9162   6.9776   7.0371
  7.1050   7.1374   7.1482   7.2261   7.2582   7.2778   7.3157   7.3212
  7.3490   7.3758   7.3888   7.4253   7.4325   7.4613   7.4757   7.4862
  7.5020   7.5615   7.6319   7.6477   7.6990   7.8129   7.8371   7.8647
  7.9046   7.9537   8.0452   8.1162   8.2660  24.3675  24.6718  24.7245
 24.7673  24.8349  24.8552  25.2057  50.4416  50.5593  50.5982  50.6189
 50.6907  50.7012
 
 Beta MOs
 -- Occupied --
-19.4605 -19.4101 -19.4100 -19.4039 -19.3501 -19.3484 -10.4235 -10.4227
-10.4129 -10.4108 -10.3983 -10.3611 -10.3582  -1.3186  -1.2761  -1.1770
 -1.1621  -1.0781  -1.0102  -0.9476  -0.8937  -0.8425  -0.8072  -0.7618
 -0.7200  -0.6906  -0.6627  -0.6477  -0.6351  -0.6171  -0.5986  -0.5857
 -0.5756  -0.5655  -0.5642  -0.5373  -0.5264  -0.5135  -0.5077  -0.4941
 -0.4812  -0.4683  -0.4476  -0.4393  -0.4013  -0.3974  -0.3893  -0.3731
 -0.3664
 -- Virtual --
 -0.0416   0.0259   0.0353   0.0370   0.0422   0.0453   0.0543   0.0578
  0.0694   0.0747   0.0829   0.0869   0.0947   0.1022   0.1204   0.1248
  0.1292   0.1354   0.1382   0.1430   0.1445   0.1514   0.1539   0.1599
  0.1630   0.1676   0.1748   0.1773   0.1804   0.1882   0.1946   0.1973
  0.2011   0.2090   0.2122   0.2134   0.2191   0.2230   0.2333   0.2432
  0.2507   0.2614   0.2660   0.2755   0.2803   0.2857   0.2915   0.2959
  0.2992   0.3074   0.3129   0.3178   0.3247   0.3321   0.3330   0.3384
  0.3445   0.3519   0.3574   0.3629   0.3709   0.3747   0.3813   0.3824
  0.3853   0.3868   0.3943   0.3975   0.4015   0.4112   0.4179   0.4227
  0.4242   0.4346   0.4417   0.4495   0.4596   0.4669   0.4684   0.4826
  0.4966   0.4993   0.5140   0.5170   0.5283   0.5415   0.5575   0.5656
  0.5905   0.6024   0.6090   0.6181   0.6318   0.6406   0.6547   0.6575
  0.6698   0.6765   0.6863   0.6900   0.6956   0.7076   0.7090   0.7182
  0.7272   0.7349   0.7444   0.7488   0.7552   0.7718   0.7841   0.7873
  0.8110   0.8226   0.8256   0.8406   0.8482   0.8533   0.8694   0.8785
  0.9011   0.9232   0.9305   0.9543   0.9815   0.9868   0.9993   1.0218
  1.0448   1.0639   1.0760   1.0867   1.0910   1.0978   1.1200   1.1289
  1.1352   1.1410   1.1531   1.1622   1.1720   1.1774   1.1851   1.1978
  1.2085   1.2198   1.2258   1.2341   1.2402   1.2433   1.2573   1.2692
  1.2727   1.2815   1.2874   1.2947   1.3027   1.3101   1.3180   1.3306
  1.3338   1.3462   1.3516   1.3631   1.3699   1.3788   1.3842   1.3937
  1.4022   1.4255   1.4303   1.4434   1.4546   1.4604   1.4718   1.4851
  1.4961   1.5085   1.5137   1.5141   1.5294   1.5426   1.5552   1.5680
  1.5824   1.5916   1.5975   1.6104   1.6201   1.6329   1.6370   1.6435
  1.6569   1.6760   1.7053   1.7227   1.7292   1.7474   1.7521   1.7697
  1.7876   1.8037   1.8246   1.8392   1.8459   1.8552   1.8879   1.9019
  1.9379   1.9697   1.9906   2.0018   2.0153   2.0290   2.0588   2.0820
  2.0973   2.1130   2.1390   2.1554   2.1968   2.2150   2.2452   2.2591
  2.2772   2.3014   2.3173   2.3370   2.3699   2.3805   2.4140   2.4296
  2.4351   2.4705   2.4908   2.5152   2.5920   2.6616   2.6890   2.7134
  2.7259   2.7339   2.7563   2.7760   2.8005   2.8114   2.8333   2.8500
  2.8602   2.8705   2.8842   2.8905   2.9173   2.9258   2.9510   2.9637
  2.9826   2.9924   3.0071   3.0266   3.0471   3.0596   3.0788   3.0951
  3.1071   3.1428   3.1550   3.1655   3.1879   3.2151   3.2322   3.2503
  3.2646   3.2828   3.3278   3.3313   3.3546   3.3594   3.3851   3.3959
  3.4061   3.4222   3.4428   3.4560   3.4797   3.4848   3.5119   3.5144
  3.5306   3.5346   3.5489   3.5591   3.5832   3.6173   3.6261   3.6331
  3.6536   3.6820   3.7004   3.7053   3.7119   3.7202   3.7515   3.7635
  3.7823   3.7964   3.8067   3.8124   3.8307   3.8462   3.8467   3.8681
  3.8722   3.9005   3.9097   3.9185   3.9269   3.9425   3.9529   3.9626
  3.9834   3.9977   4.0119   4.0334   4.0460   4.0623   4.0929   4.1037
  4.1214   4.1345   4.1531   4.1865   4.1955   4.2179   4.2486   4.2492
  4.2812   4.2864   4.3146   4.3230   4.3479   4.3542   4.3739   4.3880
  4.4047   4.4217   4.4359   4.4507   4.4675   4.4722   4.5016   4.5175
  4.5466   4.5650   4.5807   4.5976   4.6091   4.6336   4.6440   4.6606
  4.6921   4.7129   4.7180   4.7390   4.7522   4.7588   4.7662   4.8337
  4.8467   4.9032   4.9133   4.9419   4.9667   4.9958   5.0426   5.0619
  5.1087   5.1477   5.1568   5.1874   5.2074   5.2307   5.2604   5.2712
  5.2832   5.2901   5.3000   5.3157   5.3253   5.3373   5.3467   5.3591
  5.3661   5.3820   5.3885   5.4211   5.4296   5.4577   5.4727   5.4776
  5.5043   5.5123   5.5217   5.5506   5.5564   5.5731   5.5944   5.6142
  5.6379   5.6535   5.6744   5.6920   5.7084   5.7366   5.7586   5.7732
  5.7828   5.8097   5.8222   5.8456   5.8890   5.9484   5.9724   5.9857
  6.0290   6.0444   6.0611   6.1218   6.2318   6.4814   6.4913   6.5924
  6.6041   6.6233   6.6869   6.7372   6.7735   6.9653   6.9891   7.0271
  7.0464   7.1229   7.1502   7.1652   7.2506   7.2608   7.3069   7.3231
  7.3353   7.3529   7.3786   7.3906   7.4305   7.4480   7.4703   7.4790
  7.4923   7.5342   7.5621   7.6326   7.6485   7.7000   7.8136   7.8494
  7.8658   7.9057   7.9544   8.0609   8.1330   8.2661  24.3675  24.6719
 24.7243  24.7673  24.8349  24.8553  25.2058  50.4541  50.5682  50.5986
 50.6193  50.6909  50.7015
 --------------------------------------------------------------
 
          Ground-State Mulliken Net Atomic Charges

     Atom                 Charge (a.u.)    Spin (a.u.)
  --------------------------------------------------------
      1 C                    -0.083734       0.003120
      2 C                    -0.039819      -0.001967
      3 C                    -0.482032      -0.002422
      4 C                    -0.108646       0.012720
      5 C                    -0.568748      -0.012597
      6 C                     0.082645       0.008773
      7 C                    -0.426027       0.006237
      8 H                     0.330348       0.000104
      9 H                     0.282336      -0.000030
     10 H                     0.311103      -0.000079
     11 H                     0.322547      -0.000048
     12 H                     0.344510       0.001714
     13 H                     0.288673       0.000102
     14 O                    -0.356097      -0.001026
     15 H                     0.238923       0.001803
     16 H                     0.306976       0.002184
     17 O                    -0.397236       0.004645
     18 H                     0.340077      -0.000787
     19 O                    -0.121914      -0.000078
     20 O                    -0.119197       0.001857
     21 O                    -0.199502       0.651059
     22 O                     0.054814       0.324717
  --------------------------------------------------------
  Sum of atomic charges =     0.000000
  Sum of spin   charges =     1.000000

 -----------------------------------------------------------------
                    Cartesian Multipole Moments
 -----------------------------------------------------------------
    Charge (ESU x 10^10)
                -0.0000
    Dipole Moment (Debye)
         X      -0.3862      Y      -0.6066      Z       0.2242
       Tot       0.7532
    Quadrupole Moments (Debye-Ang)
        XX     -79.6076     XY       6.8383     YY     -73.9325
        XZ       5.3022     YZ      -6.6525     ZZ     -76.7658
    Octopole Moments (Debye-Ang^2)
       XXX     238.1906    XXY      17.4285    XYY      53.1858
       YYY      93.8922    XXZ      -5.5642    XYZ      11.8901
       YYZ      28.7653    XZZ      87.5087    YZZ      32.4754
       ZZZ      81.4142
    Hexadecapole Moments (Debye-Ang^3)
      XXXX    -996.8033   XXXY    -131.5845   XXYY    -262.5271
      XYYY    -116.3269   YYYY    -741.9113   XXXZ      75.1624
      XXYZ      12.7663   XYYZ       8.6270   YYYZ       9.3754
      XXZZ    -361.7737   XYZZ     -50.8693   YYZZ    -308.5552
      XZZZ      -7.5975   YZZZ     -49.8714   ZZZZ   -1156.8577
 -----------------------------------------------------------------
 Calculating analytic gradient of the SCF energy
 Gradient of CDS energy
            1           2           3           4           5           6
    1   0.0016135   0.0000495  -0.0000660  -0.0001544   0.0000749  -0.0000439
    2  -0.0013569   0.0002380  -0.0002997  -0.0002452   0.0000664  -0.0000617
    3  -0.0008484   0.0002323   0.0002478  -0.0001542  -0.0001548   0.0000603
            7           8           9          10          11          12
    1  -0.0001024  -0.0000309   0.0000564  -0.0000355  -0.0000847  -0.0001317
    2   0.0009671   0.0002195   0.0000084  -0.0001587  -0.0001617   0.0001477
    3  -0.0003836   0.0000561   0.0002167   0.0001271  -0.0001218  -0.0001124
           13          14          15          16          17          18
    1  -0.0000760  -0.0001862   0.0000907   0.0002758  -0.0016623   0.0004498
    2  -0.0003283  -0.0002403  -0.0000800   0.0001031   0.0012615  -0.0000660
    3  -0.0001628   0.0002664   0.0003324  -0.0003787   0.0008232  -0.0000807
           19          20          21          22
    1   0.0000016   0.0000601  -0.0000798  -0.0000184
    2   0.0000730  -0.0000744  -0.0000892   0.0000774
    3  -0.0000968   0.0001066   0.0000381  -0.0000129
 Gradient of SCF Energy
            1           2           3           4           5           6
    1   0.0033991  -0.0089070   0.0080299  -0.0002652   0.0122903  -0.0017780
    2  -0.0087022   0.0050772   0.0041313   0.0084033  -0.0052536   0.0074946
    3  -0.0079185  -0.0092783   0.0038296  -0.0051679   0.0019223   0.0016055
            7           8           9          10          11          12
    1   0.0107796   0.0046585   0.0049881  -0.0020997  -0.0059200  -0.0106921
    2  -0.0158413   0.0091980  -0.0021175  -0.0093520  -0.0092886   0.0031699
    3   0.0011636   0.0044885   0.0111091   0.0074931  -0.0048211  -0.0059917
           13          14          15          16          17          18
    1  -0.0084874   0.0047060   0.0002429  -0.0039506  -0.0032386   0.0029952
    2   0.0027726   0.0141942   0.0079492  -0.0097479  -0.0138761   0.0103358
    3  -0.0085665   0.0164350   0.0058097  -0.0141222   0.0088002  -0.0105045
           19          20          21          22
    1  -0.0015216  -0.0063940  -0.0020424   0.0032067
    2   0.0015137   0.0030033   0.0044108  -0.0074748
    3   0.0058379  -0.0009690  -0.0084823   0.0073274
 Max gradient component =       1.643E-02
 RMS gradient           =       7.533E-03
 Computing fast CPCM-SWIG gradient
 Updating gradient with PCM contributions...
 -- total gradient after adding PCM contribution --
---------------------------------------------------
  Atom         X              Y              Z     
---------------------------------------------------
   1       0.002697      -0.001240      -0.003259
   2      -0.000005       0.000039      -0.001367
   3       0.002243       0.000266       0.004480
   4      -0.001199       0.000338      -0.004294
   5       0.000454       0.000737       0.000124
   6       0.000516      -0.000089       0.000101
   7       0.002172      -0.002559      -0.002172
   8       0.001142       0.003136       0.001597
   9       0.001062      -0.000236       0.002920
  10      -0.000703      -0.002585       0.002012
  11      -0.001440      -0.002616      -0.001370
  12      -0.002356       0.000858      -0.001723
  13      -0.002568       0.000946      -0.002190
  14       0.003830       0.002761       0.007050
  15       0.000276       0.002559       0.001807
  16      -0.003143      -0.004239      -0.005812
  17      -0.002560      -0.006843       0.004259
  18       0.000871       0.006018      -0.004860
  19      -0.000660       0.000163       0.004813
  20      -0.003427       0.002251      -0.002542
  21      -0.001040       0.005124      -0.005239
  22       0.003837      -0.004792       0.005663
---------------------------------------------------
 Number of fixed atoms: 0
 Gradient time:  CPU 912.12 s  wall 72.93 s
 Geometry Optimization Parameters
   NAtoms,    NIC,     NZ,  NCons,   NDum,   NFix, NCnnct, MaxDiis
       22     176       0       0       0       0       0       0


** GEOMETRY OPTIMIZATION IN DELOCALIZED INTERNAL COORDINATES **
   Searching for a Minimum

   Optimization Cycle:   1

                       Coordinates (Angstroms)
     ATOM                X               Y               Z
      1  C        -0.0824806221   -0.2208014171    0.7066884020
      2  C        -0.9708538377   -0.8885328410    1.7468571217
      3  C        -1.6215798918   -2.1316914324    1.1965043063
      4  C        -2.0017733933   -2.1693670116   -0.0800657111
      5  C        -1.7923580925   -0.9949010837   -0.9923148178
      6  C        -1.1929679575    0.2199667497   -0.2533734640
      7  C        -0.7514896498    1.3886282847   -1.1335937807
      8  H         0.3930127621    0.6647268880    1.1465803044
      9  H        -0.4938498884   -1.0343436355    2.7171410437
     10  H        -1.8080763571   -2.9666134710    1.8652815950
     11  H        -2.4984045854   -3.0369961825   -0.5062220038
     12  H        -2.7211568735   -0.6868023302   -1.4809607395
     13  H        -1.4871688862    1.6071993372   -1.9139613154
     14  O         0.5387118697    1.1366496553   -1.6884544233
     15  H        -0.6603282653    2.2622698953   -0.4821289334
     16  H         0.4135600714    0.6696784024   -2.5305371159
     17  O         0.8576300871   -1.0899281815    0.1224474234
     18  H         1.2425116882   -0.5735371600   -0.6110983380
     19  O        -1.9457419466    0.1452804869    1.9620616882
     20  O        -2.2397196510    0.6722451871    0.6185769350
     21  O        -1.1094051912   -0.7854470364   -3.1815829813
     22  O        -0.9157369889   -1.4626753040   -2.0752396953
   Point Group: c1    Number of degrees of freedom:    60


   Energy is   -723.281175333


 Attempting to generate delocalized internal coordinates
 Initial Hessian constructed with Jon Baker's OPTIMIZE code

 60 Hessian modes will be used to form the next step
  Hessian Eigenvalues:
     0.005446    0.006426    0.007644    0.012090    0.013719    0.014678
     0.014767    0.019041    0.020184    0.027688    0.038542    0.040050
     0.048990    0.050266    0.054280    0.056870    0.058505    0.061118
     0.071177    0.077360    0.079728    0.081809    0.096672    0.100177
     0.109200    0.113385    0.138162    0.144944    0.154078    0.159833
     0.159981    0.160000    0.160000    0.186276    0.210184    0.220666
     0.250000    0.250574    0.270111    0.273653    0.295883    0.304053
     0.310064    0.331660    0.339982    0.342956    0.343788    0.343996
     0.346993    0.351906    0.352929    0.357767    0.359422    0.396725
     0.414410    0.444299    0.521384    0.531745    0.551212    0.640872

 Minimum search - taking simple RFO step
 Searching for Lamda that Minimizes Along All modes
 Value Taken    Lamda =  -0.00236893
 Step Taken.  Stepsize is  0.263416

                             Maximum     Tolerance    Cnvgd?
         Gradient           0.008189      0.000300      NO
         Displacement       0.094647      0.001200      NO
         Energy change     *********      0.000001      NO


 New Cartesian Coordinates Obtained by Inverse Iteration

 Displacement from previous Coordinates is:  0.578098
 ----------------------------------------------------------------
             Standard Nuclear Orientation (Angstroms)
    I     Atom           X                Y                Z
 ----------------------------------------------------------------
    1      C      -0.0762840381    -0.2250633506     0.7081133371
    2      C      -0.9716034719    -0.8856800437     1.7400350646
    3      C      -1.6199205795    -2.1247582330     1.1901135518
    4      C      -1.9974354373    -2.1663039599    -0.0801584566
    5      C      -1.7922423237    -1.0005374909    -0.9980055686
    6      C      -1.1764875988     0.2115798500    -0.2668398331
    7      C      -0.7495360046     1.3981665950    -1.1284599897
    8      H       0.3917820530     0.6579022931     1.1470243167
    9      H      -0.5027177607    -1.0289799043     2.7093965428
   10      H      -1.8093176884    -2.9530788711     1.8582096203
   11      H      -2.5002236341    -3.0289018357    -0.4967158247
   12      H      -2.7288167815    -0.6898641182    -1.4591225816
   13      H      -1.4702873767     1.6022329148    -1.9191668639
   14      O       0.5635736466     1.2184464378    -1.6556807396
   15      H      -0.7062967713     2.2608573754    -0.4656057701
   16      H       0.5039169259     0.7920649473    -2.5177320570
   17      O       0.8800076860    -1.1007882131     0.1600363658
   18      H       1.3033315450    -0.6214261858    -0.5678298524
   19      O      -1.9432882940     0.1483124078     1.9411113733
   20      O      -2.2240765785     0.6646287169     0.5983677570
   21      O      -1.2590816075    -0.9136943086    -3.2389175054
   22      O      -0.9626615097    -1.4901072236    -2.1055673867
 ----------------------------------------------------------------
 Nuclear Repulsion Energy =         919.27183688 hartrees
 There are       50 alpha and       49 beta electrons
 Discretize the solute cavity surface with Lebedev spheres
	Using 110 Lebedev grid points for each H atom
	Using 194 Lebedev grid points for other atoms
	Atomic van der Waals radii will be scaled by 1.20
 Remove points where switching function is < 1.0e-08
 Keep 1621 surface tesserae and discard 1891 interior tesserae
 Molecular Surface Area = 179.599 Angst**2
 Applying Cartesian multipole field
    Component          Value
    ---------          -----
     (2,0,0)        1.00000E-11
     (0,2,0)        2.00000E-11
     (0,0,2)       -3.00000E-11
 Nucleus-field energy     =    -0.0000000079 hartrees
 Requested basis set is 6-311++G(2df,2p)
 There are 158 shells and 532 basis functions
 A cutoff of  1.0D-12 yielded  11162 shell pairs
 There are    127467 function pairs (    159928 Cartesian)
 Smallest overlap matrix eigenvalue = 2.13E-06
 Guess MOs from SCF MO coefficient file

 -----------------------------------------------------------------------
  General SCF calculation program by
  Eric Jon Sundstrom, Paul Horn, Yuezhi Mao, Dmitri Zuev, Alec White,
  David Stuck, Shaama M.S., Shane Yost, Joonho Lee, David Small,
  Daniel Levine, Susi Lehtola, Hugh Burton, Evgeny Epifanovsky,
  Bang C. Huynh
 -----------------------------------------------------------------------
 Exchange:     0.1500 Hartree-Fock + 1.0000 wB97M-V + LR-HF
 Correlation:  1.0000 wB97M-V
 Using SG-2 standard quadrature grid
 Nonlocal Correlation:  VV10 with C = 0.0100 and b = 6.00 and scale = 1.00000
 Grid used for NLC:  SG-1 standard quadrature
 
 Citation of the SMD model:
 Marenich, A.V.; Cramer, C.J.; Truhlar, D.G.
 J. Phys. Chem. B 2009, 113, 6378-6396.
 iSolventCode=           1
 Solvent: water                                                           
 
 vradii
            1           2           3           4           5           6
    1   1.8500000   1.8500000   1.8500000   1.8500000   1.8500000   1.8500000
            7           8           9          10          11          12
    1   1.8500000   1.2000000   1.2000000   1.2000000   1.2000000   1.2000000
           13          14          15          16          17          18
    1   1.2000000   1.5200000   1.2000000   1.2000000   1.5200000   1.2000000
           19          20          21          22
    1   1.5200000   1.5200000   1.5200000   1.5200000
 -------------------------------------------------------
 OpenMP BLAS3 based DFT computing Module                
 Release: version 1.0, May 2013, Q-Chem Inc. Pittsburgh 
 -------------------------------------------------------
 A unrestricted SCF calculation will be
 performed using Roothaan-Hall, DIIS, GDM
 SCF converges when RMS gradient is below 1.0e-07
 ---------------------------------------
  Cycle       Energy         DIIS error
 ---------------------------------------
    1    -723.2378885448      2.79e-04  Roothaan Step
 ---------------------------------------
  Cycle       Energy         DIIS error
 ---------------------------------------
    1    -723.2794365560      1.66e-04  
    2    -723.2842072021      1.22e-04  Done DIIS. Switching to GDM
 ---------------------------------------
  Cycle       Energy        RMS Gradient
 ---------------------------------------
    1    -723.2842072021      9.15e-03   Normal BFGS step
    2    -723.2844262660      8.50e-03   Normal BFGS step
    3    -723.2859518979      3.21e-03   Normal BFGS step
    4    -723.2859825684      1.94e-03   Normal BFGS step
    5    -723.2860180922      6.76e-04   Normal BFGS step
    6    -723.2860216967      2.54e-04   Normal BFGS step
    7    -723.2860230648      2.22e-04   Normal BFGS step
    8    -723.2860233659      1.82e-04   Normal BFGS step
    9    -723.2860235346      1.46e-04   Normal BFGS step
   10    -723.2860237045      1.03e-04   Normal BFGS step
   11    -723.2860238580      2.94e-05   Normal BFGS step
   12    -723.2860238813      1.28e-05   Normal BFGS step
   13    -723.2860238883      6.94e-06   Normal BFGS step
   14    -723.2860238893      3.85e-06   Normal BFGS step
   15    -723.2860238896      2.07e-06   Normal BFGS step
   16    -723.2860238897      8.47e-07   Normal BFGS step
   17    -723.2860238897      8.86e-07   Normal BFGS step
   18    -723.2860238897      2.24e-07   Normal BFGS step
   19    -723.2860238898      1.25e-07   Normal BFGS step
   20    -723.2860238897      1.01e-07   Normal BFGS step
   21    -723.2860238897      4.62e-08  Convergence criterion met
 ---------------------------------------
 SCF time:   CPU 6185.99s  wall 430.00s 
<S^2> =          0.754116423
(3)  G-ENP(liq) elect-nuc-pol free energy of system     -723.286023890 a.u.
(4)  G-CDS(liq) cavity-dispersion-solvent structure 
     free energy                                                2.5597 kcal/mol
(6)  G-S(liq) free energy of system                     -723.281944784 a.u.
 SCF   energy in the final basis set =     -723.2819447841
 Total energy in the final basis set =     -723.2819447841
 
 --------------------------------------------------------------
 
                    Orbital Energies (a.u.)
 --------------------------------------------------------------
 
 Alpha MOs
 -- Occupied --
-19.4682 -19.4196 -19.4094 -19.4091 -19.3490 -19.3475 -10.4234 -10.4204
-10.4111 -10.4101 -10.3966 -10.3587 -10.3553  -1.3451  -1.2798  -1.1761
 -1.1616  -1.0795  -1.0309  -0.9589  -0.8953  -0.8477  -0.8115  -0.7638
 -0.7241  -0.6944  -0.6652  -0.6556  -0.6452  -0.6225  -0.6188  -0.5988
 -0.5833  -0.5695  -0.5652  -0.5577  -0.5344  -0.5184  -0.5098  -0.4955
 -0.4837  -0.4683  -0.4483  -0.4423  -0.4156  -0.4109  -0.3978  -0.3886
 -0.3698  -0.3653
 -- Virtual --
  0.0257   0.0350   0.0371   0.0417   0.0458   0.0540   0.0578   0.0692
  0.0748   0.0827   0.0878   0.0959   0.1011   0.1199   0.1246   0.1290
  0.1338   0.1379   0.1430   0.1437   0.1521   0.1533   0.1601   0.1622
  0.1668   0.1748   0.1763   0.1798   0.1878   0.1931   0.1969   0.2006
  0.2065   0.2114   0.2129   0.2205   0.2221   0.2336   0.2386   0.2500
  0.2585   0.2637   0.2738   0.2784   0.2844   0.2919   0.2941   0.2991
  0.3049   0.3120   0.3176   0.3245   0.3292   0.3342   0.3384   0.3450
  0.3520   0.3571   0.3620   0.3711   0.3757   0.3760   0.3829   0.3867
  0.3874   0.3942   0.3987   0.4013   0.4130   0.4182   0.4237   0.4245
  0.4300   0.4347   0.4498   0.4619   0.4667   0.4716   0.4808   0.4921
  0.4962   0.5146   0.5181   0.5280   0.5440   0.5604   0.5666   0.5949
  0.6050   0.6095   0.6192   0.6307   0.6428   0.6552   0.6610   0.6718
  0.6746   0.6816   0.6922   0.6961   0.7104   0.7119   0.7161   0.7260
  0.7345   0.7438   0.7496   0.7565   0.7696   0.7879   0.7907   0.8113
  0.8259   0.8284   0.8379   0.8468   0.8496   0.8680   0.8744   0.9059
  0.9243   0.9363   0.9593   0.9796   0.9857   1.0025   1.0269   1.0390
  1.0622   1.0707   1.0800   1.0871   1.0977   1.1102   1.1316   1.1348
  1.1412   1.1544   1.1595   1.1686   1.1781   1.1805   1.1834   1.2033
  1.2114   1.2244   1.2308   1.2406   1.2434   1.2544   1.2661   1.2701
  1.2793   1.2845   1.2904   1.3005   1.3075   1.3125   1.3202   1.3365
  1.3405   1.3474   1.3587   1.3692   1.3767   1.3799   1.3974   1.4019
  1.4232   1.4324   1.4413   1.4495   1.4594   1.4688   1.4850   1.4985
  1.5094   1.5153   1.5237   1.5280   1.5456   1.5611   1.5724   1.5828
  1.5867   1.5956   1.6061   1.6183   1.6301   1.6385   1.6407   1.6564
  1.6810   1.6878   1.7074   1.7270   1.7390   1.7451   1.7694   1.7815
  1.8060   1.8258   1.8279   1.8382   1.8562   1.8670   1.8988   1.9222
  1.9598   1.9877   1.9887   1.9986   2.0192   2.0506   2.0571   2.0892
  2.1110   2.1378   2.1579   2.1877   2.1970   2.2416   2.2572   2.2778
  2.2993   2.3175   2.3341   2.3617   2.3804   2.4028   2.4222   2.4262
  2.4641   2.4908   2.5135   2.5885   2.6598   2.6769   2.6905   2.7243
  2.7371   2.7519   2.7631   2.7874   2.8090   2.8308   2.8519   2.8615
  2.8724   2.8855   2.8867   2.9146   2.9272   2.9468   2.9659   2.9853
  2.9936   3.0097   3.0301   3.0474   3.0611   3.0794   3.0939   3.1032
  3.1469   3.1499   3.1704   3.1959   3.2139   3.2342   3.2521   3.2668
  3.2910   3.3261   3.3333   3.3508   3.3577   3.3872   3.3975   3.4073
  3.4239   3.4414   3.4611   3.4785   3.4872   3.5147   3.5148   3.5307
  3.5370   3.5443   3.5550   3.5871   3.6163   3.6290   3.6350   3.6456
  3.6850   3.6999   3.7060   3.7156   3.7219   3.7533   3.7637   3.7793
  3.7955   3.8065   3.8190   3.8334   3.8457   3.8529   3.8697   3.8791
  3.8989   3.9104   3.9216   3.9267   3.9457   3.9567   3.9619   3.9782
  4.0048   4.0137   4.0277   4.0509   4.0672   4.0930   4.1083   4.1235
  4.1297   4.1604   4.1843   4.2026   4.2141   4.2524   4.2558   4.2886
  4.2939   4.3204   4.3305   4.3519   4.3606   4.3811   4.3884   4.4059
  4.4296   4.4345   4.4528   4.4750   4.4808   4.5076   4.5238   4.5482
  4.5723   4.5876   4.5971   4.6123   4.6247   4.6522   4.6635   4.6854
  4.7161   4.7230   4.7372   4.7558   4.7654   4.7752   4.8453   4.8468
  4.9002   4.9159   4.9381   4.9694   4.9959   5.0409   5.0486   5.0912
  5.1070   5.1207   5.1468   5.1654   5.1899   5.2233   5.2592   5.2692
  5.2734   5.2855   5.3114   5.3200   5.3324   5.3446   5.3517   5.3622
  5.3757   5.3874   5.4061   5.4230   5.4425   5.4721   5.4802   5.5035
  5.5100   5.5323   5.5464   5.5548   5.5719   5.5913   5.6239   5.6440
  5.6559   5.6847   5.7023   5.7172   5.7388   5.7522   5.7797   5.7913
  5.8190   5.8298   5.8469   5.8974   5.9659   5.9798   5.9962   6.0498
  6.0620   6.0854   6.1423   6.2544   6.4681   6.4786   6.6024   6.6065
  6.6391   6.6976   6.7649   6.7726   6.8689   6.8978   6.9828   7.0454
  7.1107   7.1268   7.1451   7.2341   7.2703   7.2960   7.3113   7.3263
  7.3406   7.3581   7.3932   7.4259   7.4362   7.4668   7.4722   7.4832
  7.4989   7.5718   7.6366   7.6607   7.7222   7.8081   7.8344   7.8617
  7.9139   7.9618   8.0398   8.1260   8.2684  24.3781  24.6878  24.7388
 24.7783  24.8432  24.8713  25.2429  50.4428  50.5623  50.6022  50.6163
 50.6899  50.6980
 
 Beta MOs
 -- Occupied --
-19.4576 -19.4094 -19.4091 -19.4011 -19.3489 -19.3475 -10.4231 -10.4208
-10.4111 -10.4101 -10.3966 -10.3586 -10.3553  -1.3187  -1.2796  -1.1759
 -1.1616  -1.0791  -1.0093  -0.9477  -0.8945  -0.8422  -0.8081  -0.7633
 -0.7203  -0.6914  -0.6634  -0.6495  -0.6319  -0.6186  -0.5988  -0.5849
 -0.5780  -0.5657  -0.5643  -0.5363  -0.5276  -0.5112  -0.5073  -0.4934
 -0.4812  -0.4675  -0.4452  -0.4397  -0.4020  -0.3959  -0.3885  -0.3731
 -0.3654
 -- Virtual --
 -0.0355   0.0258   0.0352   0.0373   0.0419   0.0472   0.0545   0.0580
  0.0696   0.0750   0.0829   0.0885   0.0963   0.1020   0.1202   0.1251
  0.1293   0.1346   0.1380   0.1433   0.1449   0.1523   0.1538   0.1604
  0.1624   0.1675   0.1751   0.1773   0.1805   0.1881   0.1946   0.1974
  0.2013   0.2077   0.2119   0.2139   0.2211   0.2227   0.2339   0.2440
  0.2511   0.2610   0.2645   0.2750   0.2799   0.2849   0.2935   0.2975
  0.2997   0.3064   0.3124   0.3184   0.3254   0.3305   0.3356   0.3390
  0.3465   0.3533   0.3578   0.3633   0.3715   0.3761   0.3779   0.3833
  0.3870   0.3876   0.3956   0.3989   0.4017   0.4137   0.4193   0.4243
  0.4258   0.4312   0.4362   0.4506   0.4623   0.4677   0.4719   0.4816
  0.4926   0.4966   0.5155   0.5183   0.5291   0.5445   0.5606   0.5668
  0.5951   0.6052   0.6097   0.6195   0.6311   0.6432   0.6555   0.6613
  0.6720   0.6752   0.6821   0.6925   0.6963   0.7106   0.7121   0.7166
  0.7263   0.7353   0.7442   0.7499   0.7568   0.7705   0.7882   0.7910
  0.8115   0.8262   0.8292   0.8389   0.8471   0.8501   0.8688   0.8746
  0.9062   0.9248   0.9366   0.9601   0.9805   0.9862   1.0035   1.0275
  1.0395   1.0628   1.0717   1.0831   1.0875   1.0983   1.1124   1.1328
  1.1363   1.1442   1.1551   1.1631   1.1742   1.1805   1.1841   1.1856
  1.2062   1.2200   1.2275   1.2398   1.2414   1.2465   1.2566   1.2728
  1.2738   1.2801   1.2878   1.2972   1.3029   1.3093   1.3141   1.3220
  1.3376   1.3420   1.3485   1.3594   1.3697   1.3772   1.3811   1.3991
  1.4029   1.4246   1.4332   1.4427   1.4518   1.4601   1.4715   1.4858
  1.5006   1.5115   1.5167   1.5260   1.5294   1.5466   1.5619   1.5747
  1.5871   1.5900   1.5977   1.6085   1.6199   1.6313   1.6400   1.6424
  1.6592   1.6847   1.7113   1.7132   1.7294   1.7435   1.7495   1.7729
  1.7854   1.8072   1.8265   1.8326   1.8431   1.8587   1.8708   1.8995
  1.9264   1.9647   1.9904   1.9914   2.0013   2.0211   2.0518   2.0608
  2.0918   2.1126   2.1384   2.1591   2.1906   2.2015   2.2450   2.2632
  2.2821   2.3052   2.3178   2.3401   2.3681   2.3827   2.4081   2.4278
  2.4290   2.4652   2.4914   2.5140   2.5893   2.6604   2.6775   2.6969
  2.7248   2.7383   2.7530   2.7639   2.7882   2.8092   2.8311   2.8523
  2.8619   2.8725   2.8857   2.8871   2.9148   2.9274   2.9470   2.9663
  2.9862   2.9942   3.0100   3.0303   3.0478   3.0613   3.0797   3.0945
  3.1035   3.1470   3.1502   3.1710   3.1964   3.2140   3.2345   3.2522
  3.2670   3.2912   3.3264   3.3337   3.3512   3.3579   3.3874   3.3977
  3.4076   3.4241   3.4416   3.4613   3.4788   3.4874   3.5149   3.5150
  3.5308   3.5372   3.5451   3.5552   3.5874   3.6165   3.6293   3.6353
  3.6460   3.6853   3.7003   3.7060   3.7158   3.7222   3.7534   3.7640
  3.7795   3.7959   3.8067   3.8192   3.8337   3.8460   3.8531   3.8699
  3.8795   3.8990   3.9106   3.9218   3.9270   3.9460   3.9569   3.9626
  3.9786   4.0051   4.0142   4.0281   4.0514   4.0676   4.0933   4.1087
  4.1237   4.1302   4.1608   4.1844   4.2030   4.2146   4.2527   4.2563
  4.2889   4.2946   4.3206   4.3309   4.3521   4.3614   4.3820   4.3890
  4.4065   4.4299   4.4350   4.4532   4.4755   4.4813   4.5084   4.5250
  4.5494   4.5726   4.5902   4.6004   4.6159   4.6335   4.6543   4.6699
  4.6928   4.7195   4.7243   4.7476   4.7599   4.7682   4.7769   4.8475
  4.8495   4.9081   4.9254   4.9508   4.9712   4.9988   5.0421   5.0659
  5.1135   5.1510   5.1531   5.1663   5.2101   5.2284   5.2384   5.2740
  5.2858   5.2969   5.3026   5.3148   5.3240   5.3355   5.3453   5.3578
  5.3656   5.3811   5.3928   5.4137   5.4266   5.4593   5.4739   5.4813
  5.5046   5.5140   5.5345   5.5493   5.5607   5.5777   5.6029   5.6250
  5.6465   5.6602   5.6863   5.7026   5.7216   5.7391   5.7549   5.7832
  5.7942   5.8240   5.8318   5.8575   5.9007   5.9681   5.9802   5.9969
  6.0501   6.0621   6.0856   6.1426   6.2546   6.4908   6.5166   6.6037
  6.6165   6.6397   6.6988   6.7651   6.7749   6.9508   6.9774   7.0345
  7.0535   7.1170   7.1385   7.1702   7.2600   7.2958   7.3069   7.3239
  7.3305   7.3418   7.3589   7.3961   7.4302   7.4518   7.4687   7.4751
  7.5046   7.5216   7.5721   7.6370   7.6611   7.7228   7.8082   7.8468
  7.8622   7.9146   7.9624   8.0549   8.1441   8.2685  24.3781  24.6878
 24.7386  24.7783  24.8433  24.8714  25.2430  50.4556  50.5709  50.6028
 50.6167  50.6901  50.6981
 --------------------------------------------------------------
 
          Ground-State Mulliken Net Atomic Charges

     Atom                 Charge (a.u.)    Spin (a.u.)
  --------------------------------------------------------
      1 C                    -0.065591       0.002224
      2 C                    -0.050543      -0.001657
      3 C                    -0.494344      -0.000934
      4 C                    -0.051361       0.009467
      5 C                    -0.622713      -0.011840
      6 C                     0.058571       0.009568
      7 C                    -0.396957       0.007176
      8 H                     0.330288       0.000080
      9 H                     0.284395      -0.000003
     10 H                     0.310831      -0.000078
     11 H                     0.324699       0.000281
     12 H                     0.342104       0.000861
     13 H                     0.275274       0.000114
     14 O                    -0.372476      -0.001319
     15 H                     0.244822       0.001832
     16 H                     0.318004       0.000038
     17 O                    -0.403987       0.003232
     18 H                     0.345333      -0.000924
     19 O                    -0.124504       0.000225
     20 O                    -0.106398       0.001428
     21 O                    -0.200964       0.663433
     22 O                     0.055516       0.316795
  --------------------------------------------------------
  Sum of atomic charges =    -0.000000
  Sum of spin   charges =     1.000000

 -----------------------------------------------------------------
                    Cartesian Multipole Moments
 -----------------------------------------------------------------
    Charge (ESU x 10^10)
                -0.0000
    Dipole Moment (Debye)
         X      -0.0338      Y      -0.4468      Z       0.2167
       Tot       0.4977
    Quadrupole Moments (Debye-Ang)
        XX     -79.7019     XY       6.2516     YY     -74.6837
        XZ       3.8278     YZ      -7.3900     ZZ     -77.0129
    Octopole Moments (Debye-Ang^2)
       XXX     240.8141    XXY      18.0863    XYY      53.8569
       YYY      95.2801    XXZ      -3.3118    XYZ      12.9891
       YYZ      30.0074    XZZ      91.9141    YZZ      37.0400
       ZZZ      84.8021
    Hexadecapole Moments (Debye-Ang^3)
      XXXX   -1008.7265   XXXY    -139.3768   XXYY    -268.1368
      XYYY    -125.6123   YYYY    -763.7249   XXXZ      55.8154
      XXYZ       8.7926   XYYZ       2.6627   YYYZ       3.0817
      XXZZ    -370.1932   XYZZ     -56.6452   YYZZ    -316.3189
      XZZZ     -36.3011   YZZZ     -69.5042   ZZZZ   -1174.4517
 -----------------------------------------------------------------
 Calculating analytic gradient of the SCF energy
 Gradient of CDS energy
            1           2           3           4           5           6
    1   0.0015672   0.0000490  -0.0000654  -0.0001503   0.0000800  -0.0000390
    2  -0.0013025   0.0002345  -0.0002952  -0.0002392   0.0000690  -0.0000645
    3  -0.0007520   0.0002307   0.0002443  -0.0001456  -0.0001450   0.0000577
            7           8           9          10          11          12
    1  -0.0001414  -0.0000332   0.0000539  -0.0000351  -0.0000819  -0.0001301
    2   0.0009603   0.0002148   0.0000088  -0.0001536  -0.0001560   0.0001410
    3  -0.0003692   0.0000506   0.0002114   0.0001239  -0.0001254  -0.0001072
           13          14          15          16          17          18
    1  -0.0000571  -0.0001856   0.0000870   0.0002912  -0.0016270   0.0004598
    2  -0.0003283  -0.0002419  -0.0000854   0.0001241   0.0012204  -0.0000841
    3  -0.0001605   0.0002640   0.0003296  -0.0003805   0.0007362  -0.0000733
           19          20          21          22
    1   0.0000025   0.0000615  -0.0000638  -0.0000422
    2   0.0000720  -0.0000728  -0.0000857   0.0000646
    3  -0.0000975   0.0001053   0.0000213  -0.0000188
 Gradient of SCF Energy
            1           2           3           4           5           6
    1   0.0003363  -0.0084757   0.0062144   0.0011072   0.0094881  -0.0032772
    2  -0.0074068   0.0052953   0.0035609   0.0077194  -0.0058165   0.0083896
    3  -0.0043878  -0.0085293  -0.0010492  -0.0011066   0.0021896   0.0045678
            7           8           9          10          11          12
    1   0.0068563   0.0036515   0.0035853  -0.0014788  -0.0045595  -0.0077954
    2  -0.0126235   0.0059168  -0.0017008  -0.0064626  -0.0061968   0.0014436
    3   0.0033853   0.0033493   0.0083118   0.0052308  -0.0029057  -0.0040867
           13          14          15          16          17          18
    1  -0.0058216   0.0028498   0.0000632  -0.0001050  -0.0009105   0.0036053
    2   0.0025484   0.0140322   0.0052018  -0.0063425  -0.0089964   0.0056982
    3  -0.0067564   0.0132442   0.0038264  -0.0121241   0.0074133  -0.0081720
           19          20          21          22
    1  -0.0003529  -0.0022928  -0.0019714  -0.0007169
    2   0.0007531   0.0011238  -0.0000288  -0.0061085
    3   0.0024854  -0.0013865  -0.0056330   0.0021336
 Max gradient component =       1.403E-02
 RMS gradient           =       5.787E-03
 Computing fast CPCM-SWIG gradient
 Updating gradient with PCM contributions...
 -- total gradient after adding PCM contribution --
---------------------------------------------------
  Atom         X              Y              Z     
---------------------------------------------------
   1      -0.000274      -0.000097       0.000854
   2       0.000173       0.000014      -0.000432
   3       0.000479       0.000191      -0.000365
   4       0.000057      -0.000278      -0.000389
   5      -0.000603       0.000621       0.001151
   6      -0.001433       0.000812       0.001496
   7      -0.001809      -0.000173      -0.000259
   8       0.000050      -0.000070       0.000431
   9      -0.000266       0.000134       0.000147
  10      -0.000090       0.000113      -0.000142
  11      -0.000172       0.000187       0.000273
  12       0.000086      -0.000845      -0.000348
  13       0.000012       0.000750       0.000407
  14       0.001918       0.001596       0.000706
  15       0.000465      -0.000034      -0.000055
  16       0.000651       0.000642      -0.000975
  17       0.000660      -0.001570       0.001858
  18       0.000469       0.001221      -0.001781
  19       0.000507      -0.000611       0.001399
  20       0.000592       0.000432      -0.002692
  21      -0.000478       0.000699      -0.001626
  22      -0.000993      -0.003736       0.000340
---------------------------------------------------
 Number of fixed atoms: 0
 Gradient time:  CPU 905.14 s  wall 72.97 s
 Geometry Optimization Parameters
   NAtoms,    NIC,     NZ,  NCons,   NDum,   NFix, NCnnct, MaxDiis
       22     176       0       0       0       0       0       0

 Cartesian Hessian Update
 Hessian updated using BFGS update


** GEOMETRY OPTIMIZATION IN DELOCALIZED INTERNAL COORDINATES **
   Searching for a Minimum

   Optimization Cycle:   2

                       Coordinates (Angstroms)
     ATOM                X               Y               Z
      1  C        -0.0762840381   -0.2250633506    0.7081133371
      2  C        -0.9716034719   -0.8856800437    1.7400350646
      3  C        -1.6199205795   -2.1247582330    1.1901135518
      4  C        -1.9974354373   -2.1663039599   -0.0801584566
      5  C        -1.7922423237   -1.0005374909   -0.9980055686
      6  C        -1.1764875988    0.2115798500   -0.2668398331
      7  C        -0.7495360046    1.3981665950   -1.1284599897
      8  H         0.3917820530    0.6579022931    1.1470243167
      9  H        -0.5027177607   -1.0289799043    2.7093965428
     10  H        -1.8093176884   -2.9530788711    1.8582096203
     11  H        -2.5002236341   -3.0289018357   -0.4967158247
     12  H        -2.7288167815   -0.6898641182   -1.4591225816
     13  H        -1.4702873767    1.6022329148   -1.9191668639
     14  O         0.5635736466    1.2184464378   -1.6556807396
     15  H        -0.7062967713    2.2608573754   -0.4656057701
     16  H         0.5039169259    0.7920649473   -2.5177320570
     17  O         0.8800076860   -1.1007882131    0.1600363658
     18  H         1.3033315450   -0.6214261858   -0.5678298524
     19  O        -1.9432882940    0.1483124078    1.9411113733
     20  O        -2.2240765785    0.6646287169    0.5983677570
     21  O        -1.2590816075   -0.9136943086   -3.2389175054
     22  O        -0.9626615097   -1.4901072236   -2.1055673867
   Point Group: c1    Number of degrees of freedom:    60


   Energy is   -723.281944784

 Hessian updated using BFGS update

 60 Hessian modes will be used to form the next step
  Hessian Eigenvalues:
     0.005649    0.006693    0.007620    0.012476    0.013665    0.014624
     0.014768    0.019081    0.020186    0.028594    0.039874    0.040252
     0.048947    0.052045    0.055154    0.058125    0.059400    0.061105
     0.071257    0.077407    0.080338    0.084809    0.097526    0.100738
     0.108024    0.113585    0.138198    0.145919    0.147712    0.158957
     0.159839    0.159984    0.166405    0.191852    0.210505    0.235929
     0.248042    0.250894    0.272018    0.285500    0.292874    0.302902
     0.313206    0.322629    0.339791    0.343164    0.343889    0.344188
     0.346709    0.351491    0.352625    0.358060    0.362728    0.399941
     0.417958    0.445167    0.498803    0.529725    0.551523    0.631240

 Minimum search - taking simple RFO step
 Searching for Lamda that Minimizes Along All modes
 Value Taken    Lamda =  -0.00075563
 Step Taken.  Stepsize is  0.123496

                             Maximum     Tolerance    Cnvgd?
         Gradient           0.010332      0.000300      NO
         Displacement       0.052732      0.001200      NO
         Energy change     -0.000769      0.000001      NO


 New Cartesian Coordinates Obtained by Inverse Iteration

 Displacement from previous Coordinates is:  0.279121
 ----------------------------------------------------------------
             Standard Nuclear Orientation (Angstroms)
    I     Atom           X                Y                Z
 ----------------------------------------------------------------
    1      C      -0.0806900276    -0.2201436164     0.7158270400
    2      C      -0.9776408794    -0.8843610752     1.7432833406
    3      C      -1.6191035761    -2.1226713426     1.1850330613
    4      C      -1.9835126896    -2.1610906586    -0.0879095626
    5      C      -1.7835377894    -0.9875632549    -0.9960501060
    6      C      -1.1783806834     0.2186173338    -0.2576612464
    7      C      -0.7515523017     1.3941776017    -1.1279662855
    8      H       0.3882100181     0.6603145781     1.1552374438
    9      H      -0.5091684929    -1.0319110480     2.7109996897
   10      H      -1.8040033572    -2.9558832142     1.8467005962
   11      H      -2.4730665740    -3.0253156380    -0.5143088559
   12      H      -2.7189311527    -0.6763753698    -1.4571594380
   13      H      -1.4844667479     1.5966785006    -1.9063623092
   14      O       0.5384242203     1.1717722378    -1.6890102303
   15      H      -0.6804318701     2.2621078493    -0.4761778976
   16      H       0.4430595784     0.7191275496    -2.5318875694
   17      O       0.8733268332    -1.0982024194     0.1694051136
   18      H       1.3120732623    -0.6258992296    -0.5495468081
   19      O      -1.9515604076     0.1466099750     1.9457184566
   20      O      -2.2273313185     0.6693867426     0.6079031080
   21      O      -1.2428334339    -0.8773360584    -3.2323683745
   22      O      -0.9365482100    -1.4470316437    -2.1010936661
 ----------------------------------------------------------------
 Nuclear Repulsion Energy =         921.84194172 hartrees
 There are       50 alpha and       49 beta electrons
 Discretize the solute cavity surface with Lebedev spheres
	Using 110 Lebedev grid points for each H atom
	Using 194 Lebedev grid points for other atoms
	Atomic van der Waals radii will be scaled by 1.20
 Remove points where switching function is < 1.0e-08
 Keep 1613 surface tesserae and discard 1899 interior tesserae
 Molecular Surface Area = 177.920 Angst**2
 Applying Cartesian multipole field
    Component          Value
    ---------          -----
     (2,0,0)        1.00000E-11
     (0,2,0)        2.00000E-11
     (0,0,2)       -3.00000E-11
 Nucleus-field energy     =    -0.0000000082 hartrees
 Requested basis set is 6-311++G(2df,2p)
 There are 158 shells and 532 basis functions
 A cutoff of  1.0D-12 yielded  11177 shell pairs
 There are    127715 function pairs (    160273 Cartesian)
 Smallest overlap matrix eigenvalue = 2.09E-06
 Guess MOs from SCF MO coefficient file

 -----------------------------------------------------------------------
  General SCF calculation program by
  Eric Jon Sundstrom, Paul Horn, Yuezhi Mao, Dmitri Zuev, Alec White,
  David Stuck, Shaama M.S., Shane Yost, Joonho Lee, David Small,
  Daniel Levine, Susi Lehtola, Hugh Burton, Evgeny Epifanovsky,
  Bang C. Huynh
 -----------------------------------------------------------------------
 Exchange:     0.1500 Hartree-Fock + 1.0000 wB97M-V + LR-HF
 Correlation:  1.0000 wB97M-V
 Using SG-2 standard quadrature grid
 Nonlocal Correlation:  VV10 with C = 0.0100 and b = 6.00 and scale = 1.00000
 Grid used for NLC:  SG-1 standard quadrature
 
 Citation of the SMD model:
 Marenich, A.V.; Cramer, C.J.; Truhlar, D.G.
 J. Phys. Chem. B 2009, 113, 6378-6396.
 iSolventCode=           1
 Solvent: water                                                           
 
 vradii
            1           2           3           4           5           6
    1   1.8500000   1.8500000   1.8500000   1.8500000   1.8500000   1.8500000
            7           8           9          10          11          12
    1   1.8500000   1.2000000   1.2000000   1.2000000   1.2000000   1.2000000
           13          14          15          16          17          18
    1   1.2000000   1.5200000   1.2000000   1.2000000   1.5200000   1.2000000
           19          20          21          22
    1   1.5200000   1.5200000   1.5200000   1.5200000
 -------------------------------------------------------
 OpenMP BLAS3 based DFT computing Module                
 Release: version 1.0, May 2013, Q-Chem Inc. Pittsburgh 
 -------------------------------------------------------
 A unrestricted SCF calculation will be
 performed using Roothaan-Hall, DIIS, GDM
 SCF converges when RMS gradient is below 1.0e-07
 ---------------------------------------
  Cycle       Energy         DIIS error
 ---------------------------------------
    1    -723.2507525307      1.69e-04  Roothaan Step
 ---------------------------------------
  Cycle       Energy         DIIS error
 ---------------------------------------
    1    -723.2813354509      1.56e-04  
    2    -723.2848742306      1.12e-04  Done DIIS. Switching to GDM
 ---------------------------------------
  Cycle       Energy        RMS Gradient
 ---------------------------------------
    1    -723.2848742306      3.33e-03   Normal BFGS step
    2    -723.2850043542      4.73e-03   Normal BFGS step
    3    -723.2861995086      9.28e-04   Normal BFGS step
    4    -723.2862083035      1.33e-03   Normal BFGS step
    5    -723.2862231490      8.58e-04   Normal BFGS step
    6    -723.2862254825      7.14e-04   Normal BFGS step
    7    -723.2862281423      5.00e-04   Normal BFGS step
    8    -723.2862313613      1.61e-04   Normal BFGS step
    9    -723.2862318293      1.70e-04   Normal BFGS step
   10    -723.2862321085      6.81e-05   Normal BFGS step
   11    -723.2862321587      3.39e-05   Normal BFGS step
   12    -723.2862321792      1.29e-05   Normal BFGS step
   13    -723.2862321837      5.90e-06   Normal BFGS step
   14    -723.2862321844      3.86e-06   Normal BFGS step
   15    -723.2862321847      1.69e-06   Normal BFGS step
   16    -723.2862321847      6.89e-07   Normal BFGS step
   17    -723.2862321846      5.03e-07   Normal BFGS step
   18    -723.2862321847      1.93e-07   Normal BFGS step
   19    -723.2862321847      1.27e-07   Normal BFGS step
  GDM::WARNING energy changes are now smaller than effective accuracy.
  GDM::        calculation will continue, but THRESH should be increased
  GDM::        or SCF_CONVERGENCE decreased. 
  GDM::        effective_thresh = 4.78e-09
   20    -723.2862321848      6.08e-08  Convergence criterion met
 ---------------------------------------
 SCF time:   CPU 6003.70s  wall 418.00s 
<S^2> =          0.754121561
(3)  G-ENP(liq) elect-nuc-pol free energy of system     -723.286232185 a.u.
(4)  G-CDS(liq) cavity-dispersion-solvent structure 
     free energy                                                2.5388 kcal/mol
(6)  G-S(liq) free energy of system                     -723.282186296 a.u.
 SCF   energy in the final basis set =     -723.2821862958
 Total energy in the final basis set =     -723.2821862958
 
 --------------------------------------------------------------
 
                    Orbital Energies (a.u.)
 --------------------------------------------------------------
 
 Alpha MOs
 -- Occupied --
-19.4695 -19.4202 -19.4094 -19.4092 -19.3484 -19.3474 -10.4224 -10.4201
-10.4108 -10.4096 -10.3962 -10.3585 -10.3551  -1.3482  -1.2809  -1.1769
 -1.1631  -1.0792  -1.0323  -0.9599  -0.8961  -0.8489  -0.8120  -0.7645
 -0.7251  -0.6960  -0.6663  -0.6571  -0.6472  -0.6243  -0.6189  -0.5994
 -0.5842  -0.5704  -0.5654  -0.5589  -0.5348  -0.5194  -0.5100  -0.4961
 -0.4839  -0.4689  -0.4484  -0.4427  -0.4165  -0.4113  -0.3982  -0.3883
 -0.3699  -0.3649
 -- Virtual --
  0.0257   0.0351   0.0371   0.0418   0.0459   0.0541   0.0578   0.0693
  0.0749   0.0828   0.0886   0.0957   0.1015   0.1202   0.1243   0.1295
  0.1342   0.1378   0.1432   0.1440   0.1519   0.1534   0.1600   0.1626
  0.1666   0.1752   0.1767   0.1796   0.1882   0.1931   0.1968   0.2005
  0.2072   0.2114   0.2128   0.2203   0.2228   0.2330   0.2388   0.2497
  0.2592   0.2635   0.2741   0.2805   0.2850   0.2923   0.2942   0.2999
  0.3063   0.3130   0.3180   0.3254   0.3293   0.3355   0.3390   0.3448
  0.3529   0.3577   0.3621   0.3705   0.3757   0.3775   0.3827   0.3866
  0.3877   0.3952   0.3982   0.4017   0.4125   0.4188   0.4237   0.4241
  0.4331   0.4367   0.4509   0.4617   0.4673   0.4705   0.4829   0.4925
  0.4976   0.5158   0.5186   0.5271   0.5443   0.5608   0.5646   0.5943
  0.6055   0.6093   0.6199   0.6301   0.6424   0.6542   0.6603   0.6714
  0.6770   0.6816   0.6930   0.6966   0.7101   0.7127   0.7176   0.7254
  0.7349   0.7454   0.7511   0.7575   0.7703   0.7877   0.7894   0.8119
  0.8257   0.8292   0.8385   0.8468   0.8497   0.8681   0.8771   0.9036
  0.9239   0.9363   0.9575   0.9802   0.9851   1.0044   1.0238   1.0427
  1.0623   1.0755   1.0814   1.0900   1.0974   1.1130   1.1317   1.1359
  1.1394   1.1545   1.1602   1.1668   1.1772   1.1811   1.1893   1.2044
  1.2133   1.2255   1.2313   1.2396   1.2445   1.2543   1.2663   1.2721
  1.2829   1.2859   1.2897   1.3019   1.3073   1.3143   1.3222   1.3351
  1.3421   1.3487   1.3606   1.3694   1.3766   1.3852   1.3984   1.4042
  1.4250   1.4341   1.4452   1.4494   1.4583   1.4695   1.4859   1.5012
  1.5125   1.5174   1.5215   1.5251   1.5478   1.5628   1.5732   1.5830
  1.5912   1.5971   1.6093   1.6162   1.6290   1.6374   1.6429   1.6602
  1.6817   1.6827   1.7088   1.7279   1.7436   1.7470   1.7713   1.7832
  1.8079   1.8259   1.8325   1.8397   1.8535   1.8740   1.8995   1.9355
  1.9600   1.9889   1.9918   2.0036   2.0241   2.0514   2.0703   2.0919
  2.1092   2.1433   2.1602   2.1920   2.1969   2.2431   2.2600   2.2794
  2.3019   2.3189   2.3362   2.3637   2.3818   2.4086   2.4244   2.4292
  2.4630   2.4927   2.5190   2.5917   2.6580   2.6807   2.6925   2.7253
  2.7380   2.7564   2.7664   2.7887   2.8078   2.8320   2.8544   2.8603
  2.8719   2.8854   2.8890   2.9167   2.9260   2.9473   2.9687   2.9849
  2.9960   3.0103   3.0332   3.0502   3.0632   3.0836   3.0970   3.1011
  3.1501   3.1543   3.1715   3.1970   3.2164   3.2352   3.2508   3.2699
  3.2904   3.3295   3.3342   3.3555   3.3590   3.3895   3.3996   3.4079
  3.4244   3.4426   3.4613   3.4829   3.4913   3.5141   3.5180   3.5327
  3.5406   3.5481   3.5585   3.5897   3.6167   3.6293   3.6366   3.6503
  3.6858   3.7033   3.7098   3.7150   3.7230   3.7542   3.7650   3.7847
  3.7984   3.8087   3.8225   3.8337   3.8455   3.8548   3.8719   3.8789
  3.9004   3.9142   3.9257   3.9290   3.9473   3.9599   3.9658   3.9823
  4.0079   4.0165   4.0333   4.0527   4.0690   4.0962   4.1142   4.1267
  4.1332   4.1626   4.1892   4.2035   4.2204   4.2578   4.2601   4.2898
  4.3000   4.3232   4.3371   4.3558   4.3625   4.3870   4.3945   4.4098
  4.4335   4.4374   4.4580   4.4765   4.4838   4.5116   4.5254   4.5566
  4.5785   4.5891   4.5993   4.6150   4.6288   4.6554   4.6664   4.6897
  4.7174   4.7255   4.7394   4.7592   4.7678   4.7775   4.8456   4.8524
  4.9032   4.9194   4.9408   4.9736   4.9993   5.0419   5.0510   5.0911
  5.1101   5.1216   5.1574   5.1688   5.1912   5.2240   5.2613   5.2671
  5.2777   5.2869   5.3137   5.3235   5.3331   5.3450   5.3546   5.3618
  5.3761   5.3894   5.4130   5.4240   5.4443   5.4760   5.4824   5.5113
  5.5118   5.5363   5.5551   5.5581   5.5772   5.5975   5.6301   5.6473
  5.6625   5.6927   5.7081   5.7212   5.7355   5.7549   5.7843   5.7966
  5.8217   5.8327   5.8511   5.8988   5.9713   5.9844   6.0014   6.0559
  6.0667   6.0916   6.1486   6.2627   6.4767   6.4857   6.6086   6.6153
  6.6414   6.6992   6.7754   6.7776   6.8712   6.9004   6.9867   7.0467
  7.1120   7.1373   7.1473   7.2377   7.2700   7.3082   7.3196   7.3333
  7.3427   7.3656   7.3963   7.4277   7.4395   7.4707   7.4738   7.4894
  7.5014   7.5745   7.6392   7.6644   7.7301   7.8096   7.8350   7.8621
  7.9186   7.9669   8.0458   8.1351   8.2676  24.3805  24.6912  24.7498
 24.7893  24.8550  24.8785  25.2493  50.4453  50.5647  50.6046  50.6207
 50.6921  50.6995
 
 Beta MOs
 -- Occupied --
-19.4588 -19.4094 -19.4092 -19.4018 -19.3483 -19.3474 -10.4221 -10.4204
-10.4108 -10.4097 -10.3962 -10.3584 -10.3551  -1.3219  -1.2808  -1.1768
 -1.1630  -1.0787  -1.0109  -0.9487  -0.8954  -0.8432  -0.8085  -0.7640
 -0.7211  -0.6927  -0.6644  -0.6507  -0.6335  -0.6195  -0.5999  -0.5860
 -0.5786  -0.5661  -0.5647  -0.5368  -0.5287  -0.5121  -0.5082  -0.4940
 -0.4816  -0.4682  -0.4458  -0.4397  -0.4024  -0.3963  -0.3883  -0.3730
 -0.3652
 -- Virtual --
 -0.0366   0.0258   0.0354   0.0373   0.0420   0.0474   0.0546   0.0580
  0.0697   0.0751   0.0830   0.0893   0.0960   0.1024   0.1205   0.1248
  0.1298   0.1350   0.1380   0.1434   0.1452   0.1521   0.1539   0.1604
  0.1628   0.1674   0.1754   0.1776   0.1803   0.1885   0.1946   0.1973
  0.2013   0.2084   0.2120   0.2136   0.2209   0.2235   0.2333   0.2441
  0.2509   0.2616   0.2644   0.2754   0.2818   0.2855   0.2937   0.2979
  0.3005   0.3079   0.3135   0.3188   0.3261   0.3305   0.3369   0.3395
  0.3465   0.3539   0.3583   0.3634   0.3709   0.3762   0.3793   0.3830
  0.3869   0.3879   0.3965   0.3985   0.4022   0.4131   0.4201   0.4244
  0.4252   0.4343   0.4385   0.4516   0.4621   0.4684   0.4708   0.4837
  0.4931   0.4979   0.5167   0.5188   0.5281   0.5448   0.5611   0.5648
  0.5947   0.6056   0.6095   0.6202   0.6306   0.6428   0.6545   0.6606
  0.6716   0.6777   0.6821   0.6933   0.6968   0.7103   0.7129   0.7179
  0.7258   0.7357   0.7458   0.7514   0.7578   0.7713   0.7882   0.7896
  0.8121   0.8259   0.8301   0.8399   0.8470   0.8501   0.8689   0.8774
  0.9039   0.9244   0.9367   0.9581   0.9813   0.9858   1.0053   1.0247
  1.0431   1.0626   1.0766   1.0841   1.0906   1.0981   1.1156   1.1339
  1.1375   1.1417   1.1551   1.1633   1.1722   1.1795   1.1831   1.1917
  1.2074   1.2226   1.2277   1.2407   1.2417   1.2466   1.2566   1.2733
  1.2755   1.2841   1.2882   1.2944   1.3043   1.3088   1.3163   1.3245
  1.3360   1.3437   1.3496   1.3617   1.3701   1.3770   1.3863   1.3999
  1.4054   1.4264   1.4347   1.4474   1.4517   1.4594   1.4719   1.4868
  1.5030   1.5159   1.5186   1.5231   1.5263   1.5489   1.5636   1.5755
  1.5892   1.5940   1.5989   1.6115   1.6179   1.6305   1.6391   1.6443
  1.6620   1.6854   1.7059   1.7148   1.7299   1.7477   1.7510   1.7749
  1.7867   1.8087   1.8265   1.8374   1.8437   1.8553   1.8793   1.9003
  1.9386   1.9657   1.9921   1.9932   2.0072   2.0263   2.0542   2.0733
  2.0945   2.1109   2.1438   2.1614   2.1957   2.2008   2.2464   2.2651
  2.2843   2.3083   2.3195   2.3413   2.3698   2.3844   2.4137   2.4300
  2.4330   2.4641   2.4933   2.5197   2.5925   2.6586   2.6811   2.6991
  2.7258   2.7392   2.7573   2.7671   2.7896   2.8081   2.8323   2.8548
  2.8607   2.8721   2.8857   2.8894   2.9169   2.9261   2.9475   2.9691
  2.9858   2.9966   3.0107   3.0333   3.0505   3.0635   3.0839   3.0975
  3.1014   3.1505   3.1544   3.1720   3.1977   3.2165   3.2356   3.2509
  3.2701   3.2906   3.3299   3.3346   3.3558   3.3592   3.3897   3.3998
  3.4082   3.4246   3.4429   3.4616   3.4833   3.4914   3.5142   3.5181
  3.5328   3.5408   3.5490   3.5587   3.5901   3.6169   3.6296   3.6369
  3.6506   3.6862   3.7036   3.7099   3.7153   3.7232   3.7544   3.7653
  3.7849   3.7988   3.8089   3.8227   3.8340   3.8459   3.8551   3.8723
  3.8793   3.9006   3.9144   3.9258   3.9293   3.9475   3.9602   3.9665
  3.9827   4.0083   4.0170   4.0337   4.0532   4.0694   4.0965   4.1146
  4.1269   4.1338   4.1630   4.1895   4.2038   4.2210   4.2580   4.2606
  4.2902   4.3008   4.3234   4.3375   4.3560   4.3633   4.3876   4.3950
  4.4104   4.4340   4.4379   4.4584   4.4770   4.4843   4.5124   4.5266
  4.5576   4.5789   4.5912   4.6036   4.6179   4.6381   4.6574   4.6713
  4.6973   4.7210   4.7277   4.7505   4.7623   4.7714   4.7791   4.8485
  4.8541   4.9110   4.9295   4.9527   4.9752   5.0022   5.0433   5.0683
  5.1147   5.1511   5.1555   5.1724   5.2110   5.2287   5.2429   5.2761
  5.2871   5.2995   5.3016   5.3176   5.3277   5.3356   5.3465   5.3594
  5.3675   5.3820   5.3946   5.4190   5.4304   5.4614   5.4775   5.4838
  5.5121   5.5159   5.5388   5.5576   5.5639   5.5859   5.6073   5.6311
  5.6495   5.6672   5.6944   5.7087   5.7248   5.7357   5.7584   5.7890
  5.7985   5.8270   5.8349   5.8604   5.9025   5.9737   5.9849   6.0022
  6.0562   6.0669   6.0919   6.1489   6.2629   6.4976   6.5256   6.6099
  6.6250   6.6426   6.7004   6.7760   6.7796   6.9525   6.9791   7.0360
  7.0567   7.1212   7.1439   7.1753   7.2641   7.3034   7.3112   7.3345
  7.3358   7.3439   7.3668   7.3990   7.4314   7.4548   7.4711   7.4778
  7.5069   7.5288   7.5749   7.6396   7.6649   7.7307   7.8097   7.8471
  7.8628   7.9192   7.9676   8.0611   8.1529   8.2677  24.3805  24.6913
 24.7496  24.7893  24.8551  24.8785  25.2494  50.4580  50.5733  50.6051
 50.6211  50.6923  50.6997
 --------------------------------------------------------------
 
          Ground-State Mulliken Net Atomic Charges

     Atom                 Charge (a.u.)    Spin (a.u.)
  --------------------------------------------------------
      1 C                    -0.066140       0.001725
      2 C                    -0.051287      -0.001679
      3 C                    -0.501276       0.000035
      4 C                    -0.043336       0.009178
      5 C                    -0.610218      -0.011518
      6 C                     0.057650       0.010542
      7 C                    -0.409996       0.006493
      8 H                     0.329015       0.000077
      9 H                     0.284316      -0.000005
     10 H                     0.309717      -0.000071
     11 H                     0.324911       0.000341
     12 H                     0.342425       0.000632
     13 H                     0.282154       0.000012
     14 O                    -0.365344      -0.000650
     15 H                     0.243035       0.001843
[...]
   1      -0.000031       0.000007       0.000010
   2       0.000006      -0.000012      -0.000001
   3       0.000011       0.000015      -0.000018
   4       0.000007      -0.000009       0.000012
   5      -0.000021      -0.000038      -0.000024
   6       0.000050       0.000008       0.000006
   7      -0.000045       0.000013       0.000014
   8      -0.000004      -0.000014      -0.000001
   9      -0.000003      -0.000003      -0.000008
  10       0.000013       0.000005      -0.000006
  11       0.000013       0.000007       0.000008
  12       0.000012      -0.000002       0.000010
  13       0.000007      -0.000013       0.000012
  14       0.000010      -0.000044      -0.000014
  15      -0.000023       0.000005      -0.000012
  16      -0.000023       0.000027       0.000001
  17       0.000019       0.000011       0.000002
  18      -0.000011       0.000009      -0.000013
  19       0.000015      -0.000007      -0.000007
  20      -0.000005      -0.000005       0.000009
  21      -0.000013       0.000018      -0.000017
  22       0.000018       0.000021       0.000036
---------------------------------------------------
 Number of fixed atoms: 0
 Gradient time:  CPU 906.26 s  wall 73.21 s
 Geometry Optimization Parameters
   NAtoms,    NIC,     NZ,  NCons,   NDum,   NFix, NCnnct, MaxDiis
       22     176       0       0       0       0       0       0

 Cartesian Hessian Update
 Hessian updated using BFGS update


** GEOMETRY OPTIMIZATION IN DELOCALIZED INTERNAL COORDINATES **
   Searching for a Minimum

   Optimization Cycle:   8

                       Coordinates (Angstroms)
     ATOM                X               Y               Z
      1  C        -0.0788662201   -0.2194727702    0.7168987069
      2  C        -0.9774746376   -0.8856011949    1.7441071780
      3  C        -1.6191850543   -2.1238335225    1.1810673618
      4  C        -1.9809014567   -2.1603518312   -0.0944288385
      5  C        -1.7819778087   -0.9811088820   -0.9967089982
      6  C        -1.1762440587    0.2236216387   -0.2539193968
      7  C        -0.7505147912    1.3969173428   -1.1298949551
      8  H         0.3956171338    0.6589881123    1.1570557543
      9  H        -0.5077660035   -1.0379252755    2.7115759567
     10  H        -1.8043998519   -2.9594513110    1.8415109144
     11  H        -2.4652366217   -3.0261418362   -0.5265956330
     12  H        -2.7180882527   -0.6666800269   -1.4564726228
     13  H        -1.4762274891    1.5813732004   -1.9220545458
     14  O         0.5527121942    1.1916636616   -1.6654489097
     15  H        -0.7012298597    2.2742841915   -0.4873851671
     16  H         0.4804279568    0.7231459604   -2.5032047492
     17  O         0.8680366823   -1.1020439193    0.1661267424
     18  H         1.3228864686   -0.6177905470   -0.5355251920
     19  O        -1.9501145887    0.1461125583    1.9503980172
     20  O        -2.2239182898    0.6762474400    0.6154166463
     21  O        -1.3273551993   -0.9497115537   -3.2551318039
     22  O        -0.9278458521   -1.4172336360   -2.1047809656
   Point Group: c1    Number of degrees of freedom:    60


   Energy is   -723.282375463

 Hessian updated using BFGS update

 60 Hessian modes will be used to form the next step
  Hessian Eigenvalues:
     0.002989    0.004901    0.007507    0.008003    0.013724    0.013769
     0.014977    0.019685    0.020245    0.029148    0.039983    0.041094
     0.049454    0.054394    0.057906    0.058674    0.060122    0.061970
     0.071626    0.077920    0.081247    0.087110    0.097806    0.104841
     0.110278    0.116477    0.137765    0.145350    0.150500    0.158099
     0.159840    0.161456    0.169962    0.196560    0.209933    0.239262
     0.256431    0.273243    0.277801    0.299513    0.303278    0.309629
     0.320084    0.338982    0.342446    0.343269    0.344590    0.346571
     0.351020    0.352614    0.355595    0.363228    0.381477    0.397852
     0.423013    0.450045    0.496643    0.529171    0.554387    0.636007

 Minimum search - taking simple RFO step
 Searching for Lamda that Minimizes Along All modes
 Value Taken    Lamda =  -0.00000025
 Step Taken.  Stepsize is  0.006875

                             Maximum     Tolerance    Cnvgd?
         Gradient           0.000100      0.000300     YES
         Displacement       0.003305      0.001200      NO
         Energy change     -0.000000      0.000001     YES

 Final energy is   -723.282375463000     


 ******************************
 **  OPTIMIZATION CONVERGED  **
 ******************************

                       Coordinates (Angstroms)
     ATOM                X               Y               Z
      1  C        -0.0788662201   -0.2194727702    0.7168987069
      2  C        -0.9774746376   -0.8856011949    1.7441071780
      3  C        -1.6191850543   -2.1238335225    1.1810673618
      4  C        -1.9809014567   -2.1603518312   -0.0944288385
      5  C        -1.7819778087   -0.9811088820   -0.9967089982
      6  C        -1.1762440587    0.2236216387   -0.2539193968
      7  C        -0.7505147912    1.3969173428   -1.1298949551
      8  H         0.3956171338    0.6589881123    1.1570557543
      9  H        -0.5077660035   -1.0379252755    2.7115759567
     10  H        -1.8043998519   -2.9594513110    1.8415109144
     11  H        -2.4652366217   -3.0261418362   -0.5265956330
     12  H        -2.7180882527   -0.6666800269   -1.4564726228
     13  H        -1.4762274891    1.5813732004   -1.9220545458
     14  O         0.5527121942    1.1916636616   -1.6654489097
     15  H        -0.7012298597    2.2742841915   -0.4873851671
     16  H         0.4804279568    0.7231459604   -2.5032047492
     17  O         0.8680366823   -1.1020439193    0.1661267424
     18  H         1.3228864686   -0.6177905470   -0.5355251920
     19  O        -1.9501145887    0.1461125583    1.9503980172
     20  O        -2.2239182898    0.6762474400    0.6154166463
     21  O        -1.3273551993   -0.9497115537   -3.2551318039
     22  O        -0.9278458521   -1.4172336360   -2.1047809656

Z-matrix Print:
$molecule
0 2
O 
C  1 1.434656
O  1 1.462254 2 107.583289
C  3 1.432836 1 104.875344 2 -15.532462 0
H  4 1.086197 3 105.443387 1 160.219447 0
C  4 1.504003 3 110.920822 1 -76.231681 0
H  6 1.081086 4 118.734735 3 -102.741159 0
C  6 1.326297 4 119.937444 3 75.325884 0
H  8 1.082100 6 121.882554 4 -178.584876 0
C  8 1.498097 6 121.421358 4 -0.829310 0
H  10 1.089289 8 111.550205 6 -123.740199 0
O  10 1.465459 8 107.369574 6 121.106691 0
O  12 1.304412 10 112.435664 8 138.302343 0
C  4 1.518678 3 100.556911 1 41.393537 0
H  14 1.091131 4 109.730012 3 64.082967 0
O  14 1.406736 4 112.825220 3 -170.620768 0
H  16 0.966284 14 106.662580 4 174.065572 0
C  2 1.524861 1 108.012603 3 -136.512410 0
H  18 1.088586 2 107.081212 1 42.548575 0
H  18 1.090046 2 111.210932 1 -76.225769 0
O  18 1.423850 2 111.142873 1 159.400111 0
H  21 0.962584 18 109.195092 2 89.082667 0
$end

 
 --------------------------------------------------------------
 
                    Orbital Energies (a.u.)
 --------------------------------------------------------------
 
 Alpha MOs
 -- Occupied --
-19.4683 -19.4197 -19.4091 -19.4089 -19.3484 -19.3473 -10.4222 -10.4197
-10.4111 -10.4097 -10.3964 -10.3588 -10.3554  -1.3464  -1.2804  -1.1770
 -1.1627  -1.0783  -1.0316  -0.9592  -0.8956  -0.8483  -0.8113  -0.7639
 -0.7244  -0.6957  -0.6659  -0.6568  -0.6443  -0.6244  -0.6176  -0.5998
 -0.5836  -0.5699  -0.5651  -0.5577  -0.5339  -0.5194  -0.5093  -0.4959
 -0.4834  -0.4684  -0.4484  -0.4436  -0.4162  -0.4105  -0.3984  -0.3871
 -0.3692  -0.3645
 -- Virtual --
  0.0257   0.0351   0.0371   0.0417   0.0460   0.0542   0.0578   0.0694
  0.0747   0.0828   0.0888   0.0961   0.1014   0.1201   0.1238   0.1293
  0.1336   0.1377   0.1435   0.1445   0.1522   0.1532   0.1600   0.1623
  0.1664   0.1752   0.1763   0.1794   0.1881   0.1925   0.1957   0.2002
  0.2073   0.2109   0.2129   0.2212   0.2228   0.2329   0.2377   0.2501
  0.2572   0.2632   0.2735   0.2807   0.2850   0.2920   0.2947   0.2990
  0.3054   0.3131   0.3180   0.3258   0.3272   0.3358   0.3389   0.3448
  0.3531   0.3571   0.3620   0.3689   0.3742   0.3779   0.3830   0.3859
  0.3882   0.3962   0.3976   0.4022   0.4142   0.4192   0.4235   0.4246
  0.4339   0.4364   0.4512   0.4615   0.4661   0.4736   0.4837   0.4908
  0.4961   0.5163   0.5204   0.5281   0.5473   0.5630   0.5640   0.5956
  0.6050   0.6096   0.6198   0.6264   0.6439   0.6535   0.6599   0.6703
  0.6747   0.6781   0.6926   0.6962   0.7086   0.7138   0.7152   0.7238
  0.7344   0.7437   0.7507   0.7585   0.7697   0.7877   0.7897   0.8097
  0.8249   0.8293   0.8402   0.8465   0.8472   0.8688   0.8765   0.9030
  0.9241   0.9374   0.9584   0.9792   0.9880   1.0066   1.0264   1.0417
  1.0618   1.0735   1.0767   1.0891   1.0972   1.1136   1.1315   1.1366
  1.1434   1.1535   1.1612   1.1680   1.1758   1.1822   1.1880   1.2053
  1.2160   1.2227   1.2361   1.2393   1.2472   1.2527   1.2671   1.2725
  1.2824   1.2869   1.2932   1.3010   1.3066   1.3157   1.3221   1.3340
  1.3426   1.3490   1.3589   1.3685   1.3750   1.3837   1.3993   1.4049
  1.4227   1.4339   1.4369   1.4510   1.4578   1.4666   1.4836   1.5037
  1.5130   1.5198   1.5230   1.5284   1.5474   1.5597   1.5727   1.5854
  1.5902   1.5998   1.6090   1.6166   1.6269   1.6382   1.6426   1.6579
  1.6858   1.6935   1.7141   1.7235   1.7404   1.7457   1.7705   1.7762
  1.8070   1.8170   1.8294   1.8362   1.8521   1.8677   1.8966   1.9352
  1.9583   1.9828   1.9864   2.0008   2.0210   2.0446   2.0684   2.0902
  2.1126   2.1417   2.1624   2.1855   2.1998   2.2426   2.2595   2.2782
  2.3004   2.3174   2.3314   2.3607   2.3816   2.4030   2.4235   2.4293
  2.4656   2.4936   2.5245   2.5912   2.6545   2.6755   2.6878   2.7252
  2.7407   2.7546   2.7618   2.7836   2.8072   2.8330   2.8520   2.8599
  2.8733   2.8851   2.8904   2.9161   2.9256   2.9462   2.9690   2.9849
  2.9958   3.0094   3.0307   3.0460   3.0635   3.0858   3.0946   3.0986
  3.1498   3.1548   3.1733   3.1993   3.2164   3.2328   3.2487   3.2686
  3.2901   3.3268   3.3339   3.3541   3.3572   3.3881   3.3997   3.4082
  3.4231   3.4387   3.4608   3.4821   3.4899   3.5136   3.5181   3.5282
  3.5387   3.5491   3.5557   3.5888   3.6153   3.6270   3.6356   3.6479
  3.6859   3.7027   3.7094   3.7141   3.7207   3.7528   3.7649   3.7850
  3.7988   3.8051   3.8208   3.8346   3.8453   3.8528   3.8687   3.8763
  3.8981   3.9142   3.9258   3.9266   3.9458   3.9572   3.9717   3.9819
  4.0098   4.0143   4.0351   4.0543   4.0691   4.0960   4.1140   4.1245
  4.1333   4.1612   4.1898   4.2021   4.2197   4.2545   4.2593   4.2861
  4.2998   4.3220   4.3344   4.3523   4.3653   4.3843   4.3908   4.4058
  4.4276   4.4359   4.4564   4.4746   4.4835   4.5104   4.5234   4.5547
  4.5756   4.5820   4.5993   4.6160   4.6247   4.6529   4.6643   4.6876
  4.7156   4.7270   4.7437   4.7587   4.7696   4.7771   4.8414   4.8474
  4.9004   4.9131   4.9420   4.9724   4.9955   5.0390   5.0480   5.0907
  5.1080   5.1174   5.1425   5.1600   5.1912   5.2237   5.2613   5.2711
  5.2761   5.2866   5.3137   5.3218   5.3338   5.3439   5.3544   5.3609
  5.3780   5.3912   5.4127   5.4230   5.4448   5.4751   5.4818   5.5085
  5.5107   5.5336   5.5519   5.5545   5.5803   5.5951   5.6249   5.6459
  5.6598   5.6908   5.7062   5.7194   5.7337   5.7558   5.7770   5.7915
  5.8171   5.8312   5.8515   5.8996   5.9699   5.9804   5.9999   6.0535
  6.0657   6.0868   6.1457   6.2626   6.4729   6.4856   6.6058   6.6131
  6.6397   6.6962   6.7764   6.7774   6.8591   6.8966   6.9875   7.0450
  7.1139   7.1331   7.1554   7.2364   7.2683   7.3054   7.3132   7.3309
  7.3435   7.3633   7.3941   7.4268   7.4378   7.4693   7.4723   7.4804
  7.5011   7.5718   7.6384   7.6646   7.7272   7.8086   7.8271   7.8626
  7.9197   7.9661   8.0448   8.1364   8.2668  24.3774  24.6860  24.7466
 24.7847  24.8517  24.8732  25.2401  50.4444  50.5663  50.6046  50.6176
 50.6932  50.6995
 
 Beta MOs
 -- Occupied --
-19.4577 -19.4091 -19.4088 -19.4011 -19.3484 -19.3473 -10.4219 -10.4200
-10.4111 -10.4097 -10.3964 -10.3587 -10.3554  -1.3201  -1.2802  -1.1768
 -1.1627  -1.0778  -1.0101  -0.9479  -0.8949  -0.8427  -0.8077  -0.7633
 -0.7208  -0.6923  -0.6639  -0.6505  -0.6317  -0.6192  -0.6001  -0.5842
 -0.5792  -0.5651  -0.5641  -0.5349  -0.5291  -0.5105  -0.5080  -0.4940
 -0.4817  -0.4678  -0.4455  -0.4399  -0.4025  -0.3961  -0.3877  -0.3724
 -0.3648
 -- Virtual --
 -0.0350   0.0257   0.0354   0.0373   0.0419   0.0475   0.0547   0.0580
  0.0698   0.0751   0.0830   0.0895   0.0965   0.1024   0.1204   0.1244
  0.1296   0.1344   0.1377   0.1437   0.1459   0.1523   0.1539   0.1603
  0.1625   0.1672   0.1755   0.1773   0.1801   0.1884   0.1937   0.1965
  0.2009   0.2081   0.2115   0.2138   0.2219   0.2235   0.2334   0.2430
  0.2515   0.2598   0.2638   0.2746   0.2818   0.2854   0.2939   0.2974
  0.2996   0.3070   0.3135   0.3186   0.3268   0.3282   0.3370   0.3395
  0.3474   0.3541   0.3577   0.3634   0.3693   0.3750   0.3789   0.3833
  0.3863   0.3884   0.3975   0.3981   0.4027   0.4147   0.4207   0.4243
  0.4255   0.4350   0.4382   0.4520   0.4620   0.4670   0.4742   0.4842
  0.4918   0.4963   0.5170   0.5209   0.5288   0.5478   0.5631   0.5644
  0.5958   0.6052   0.6098   0.6202   0.6269   0.6443   0.6539   0.6602
  0.6705   0.6752   0.6788   0.6929   0.6963   0.7088   0.7140   0.7157
  0.7241   0.7352   0.7442   0.7510   0.7588   0.7706   0.7882   0.7901
  0.8100   0.8251   0.8300   0.8413   0.8469   0.8476   0.8696   0.8768
  0.9033   0.9245   0.9379   0.9591   0.9803   0.9886   1.0075   1.0270
  1.0423   1.0624   1.0760   1.0793   1.0896   1.0980   1.1156   1.1334
  1.1386   1.1455   1.1545   1.1630   1.1749   1.1774   1.1842   1.1906
  1.2084   1.2218   1.2266   1.2394   1.2471   1.2492   1.2581   1.2729
  1.2768   1.2839   1.2886   1.2999   1.3034   1.3077   1.3186   1.3236
  1.3348   1.3442   1.3501   1.3599   1.3691   1.3755   1.3846   1.4007
  1.4058   1.4241   1.4346   1.4383   1.4535   1.4589   1.4690   1.4845
  1.5051   1.5159   1.5212   1.5241   1.5293   1.5483   1.5610   1.5740
  1.5894   1.5925   1.6024   1.6114   1.6189   1.6286   1.6398   1.6443
  1.6612   1.6895   1.7091   1.7251   1.7284   1.7439   1.7516   1.7743
  1.7808   1.8083   1.8201   1.8341   1.8394   1.8549   1.8707   1.8970
  1.9383   1.9640   1.9861   1.9895   2.0035   2.0223   2.0470   2.0708
  2.0926   2.1140   2.1422   2.1636   2.1883   2.2031   2.2470   2.2632
  2.2848   2.3063   2.3179   2.3388   2.3662   2.3840   2.4073   2.4291
  2.4319   2.4667   2.4944   2.5255   2.5920   2.6560   2.6763   2.6935
  2.7256   2.7419   2.7555   2.7624   2.7840   2.8075   2.8333   2.8524
  2.8604   2.8734   2.8855   2.8908   2.9163   2.9258   2.9464   2.9693
  2.9856   2.9966   3.0097   3.0309   3.0463   3.0637   3.0862   3.0952
  3.0988   3.1502   3.1550   3.1738   3.1999   3.2165   3.2333   3.2488
  3.2689   3.2903   3.3271   3.3343   3.3545   3.3575   3.3883   3.3999
  3.4084   3.4233   3.4390   3.4610   3.4825   3.4900   3.5138   3.5182
  3.5284   3.5388   3.5500   3.5560   3.5890   3.6155   3.6274   3.6358
  3.6482   3.6862   3.7031   3.7095   3.7144   3.7210   3.7530   3.7652
  3.7851   3.7992   3.8053   3.8211   3.8349   3.8458   3.8531   3.8691
  3.8767   3.8983   3.9144   3.9259   3.9269   3.9460   3.9574   3.9722
  3.9824   4.0101   4.0149   4.0354   4.0548   4.0695   4.0963   4.1145
  4.1246   4.1338   4.1616   4.1900   4.2024   4.2203   4.2547   4.2598
  4.2865   4.3003   4.3221   4.3349   4.3525   4.3662   4.3850   4.3914
  4.4063   4.4281   4.4362   4.4568   4.4749   4.4842   4.5114   4.5244
  4.5559   4.5770   4.5855   4.6016   4.6179   4.6338   4.6547   4.6687
  4.6953   4.7181   4.7294   4.7543   4.7641   4.7738   4.7787   4.8439
  4.8498   4.9070   4.9253   4.9532   4.9740   4.9984   5.0404   5.0639
  5.1134   5.1496   5.1528   5.1659   5.2110   5.2261   5.2317   5.2760
  5.2865   5.2992   5.3029   5.3162   5.3256   5.3362   5.3454   5.3585
  5.3672   5.3834   5.3984   5.4186   5.4303   5.4617   5.4758   5.4833
  5.5094   5.5142   5.5368   5.5539   5.5603   5.5858   5.6084   5.6258
  5.6478   5.6646   5.6924   5.7069   5.7229   5.7341   5.7594   5.7830
  5.7927   5.8225   5.8332   5.8603   5.9027   5.9723   5.9813   6.0008
  6.0538   6.0658   6.0871   6.1460   6.2627   6.4986   6.5210   6.6073
  6.6224   6.6408   6.6971   6.7771   6.7789   6.9420   6.9778   7.0359
  7.0562   7.1188   7.1428   7.1823   7.2605   7.3056   7.3116   7.3193
  7.3337   7.3466   7.3643   7.3968   7.4299   7.4548   7.4697   7.4773
  7.5063   7.5194   7.5722   7.6387   7.6650   7.7277   7.8086   7.8393
  7.8629   7.9204   7.9668   8.0603   8.1544   8.2669  24.3775  24.6860
 24.7464  24.7847  24.8518  24.8733  25.2402  50.4571  50.5747  50.6053
 50.6180  50.6934  50.6997
 --------------------------------------------------------------
 
          Ground-State Mulliken Net Atomic Charges

     Atom                 Charge (a.u.)    Spin (a.u.)
  --------------------------------------------------------
      1 C                    -0.047250       0.001020
      2 C                    -0.070569      -0.000903
      3 C                    -0.502953       0.002501
      4 C                    -0.040047       0.005252
      5 C                    -0.571870      -0.006949
      6 C                     0.017178       0.008077
      7 C                    -0.396559       0.006435
      8 H                     0.327519       0.000068
      9 H                     0.284547       0.000025
     10 H                     0.308793      -0.000040
     11 H                     0.324353       0.000616
     12 H                     0.337877      -0.000386
     13 H                     0.277051      -0.000280
     14 O                    -0.368929       0.000938
     15 H                     0.242141       0.001512
     16 H                     0.316055      -0.001765
     17 O                    -0.401439       0.002745
     18 H                     0.343704      -0.000828
     19 O                    -0.121619       0.000557
     20 O                    -0.112673       0.001259
     21 O                    -0.205789       0.663752
     22 O                     0.060481       0.316395
  --------------------------------------------------------
  Sum of atomic charges =    -0.000000
  Sum of spin   charges =     1.000000

 -----------------------------------------------------------------
                    Cartesian Multipole Moments
 -----------------------------------------------------------------
    Charge (ESU x 10^10)
                -0.0000
    Dipole Moment (Debye)
         X       0.1315      Y      -0.4887      Z       0.3053
       Tot       0.5910
    Quadrupole Moments (Debye-Ang)
        XX     -79.9885     XY       6.0424     YY     -74.4680
        XZ       3.7947     YZ      -7.1608     ZZ     -77.6273
    Octopole Moments (Debye-Ang^2)
       XXX     243.5579    XXY      18.5214    XYY      54.4574
       YYY      93.9268    XXZ      -2.3735    XYZ      13.5753
       YYZ      29.8041    XZZ      92.9453    YZZ      36.1113
       ZZZ      86.1927
    Hexadecapole Moments (Debye-Ang^3)
      XXXX   -1012.6196   XXXY    -139.6385   XXYY    -268.3270
      XYYY    -122.5114   YYYY    -751.1141   XXXZ      50.9577
      XXYZ       7.0878   XYYZ       2.1371   YYYZ       3.6071
      XXZZ    -375.6611   XYZZ     -57.8149   YYZZ    -316.9244
      XZZZ     -40.7598   YZZZ     -69.0053   ZZZZ   -1188.1873
 -----------------------------------------------------------------
 Total job time:  3847.96s(wall), 54329.22s(cpu) 
 Wed Jul 31 18:17:00 2024

        *************************************************************
        *                                                           *
        *  Thank you very much for using Q-Chem.  Have a nice day.  *
        *                                                           *
        *************************************************************


