
Running Job 1 of 1 Q_in.in
qchem Q_in.in_216936.0 /scratch/ari.fischer/qChem1519366.hpc-mn1/qchem216936/ 0
/usr/local/qchem-5.4.1/exe/qcprog.exe_s Q_in.in_216936.0 /scratch/ari.fischer/qChem1519366.hpc-mn1/qchem216936/
                  Welcome to Q-Chem
     A Quantum Leap Into The Future Of Chemistry


 Q-Chem 5.4, Q-Chem, Inc., Pleasanton, CA (2021)

 License issued to: Nanyang Technological University (site)

 E. Epifanovsky,  A. T. B. Gilbert,  Xintian Feng,  Joonho Lee,  Yuezhi Mao,  
 N. Mardirossian,  P. Pokhilko,  A. White,  M. Wormit,  M. P. Coons,  
 A. L. Dempwolff,  Zhengting Gan,  D. Hait,  P. R. Horn,  L. D. Jacobson,  
 I. Kaliman,  J. Kussmann,  A. W. Lange,  Ka Un Lao,  D. S. Levine,  Jie Liu,  
 S. C. McKenzie,  A. F. Morrison,  K. Nanda,  F. Plasser,  D. R. Rehn,  
 M. L. Vidal,  Zhi-Qiang You,  Ying Zhu,  B. Alam,  B. Albrecht,  
 A. Aldossary,  E. Alguire,  J. H. Andersen,  D. Barton,  K. Begam,  A. Behn,  
 Y. A. Bernard,  E. J. Berquist,  H. Burton,  A. Carreras,  K. Carter-Fenk,  
 R. Chakraborty,  A. D. Chien,  K. D. Closser,  V. Cofer-Shabica,  
 S. Dasgupta,  Jia Deng,  M. de Wergifosse,  M. Diedenhofen,  Hainam Do,  
 S. Ehlert,  Po-Tung Fang,  S. Fatehi,  Qingguo Feng,  T. Friedhoff,  
 J. Gayvert,  Qinghui Ge,  G. Gidofalvi,  M. Goldey,  J. Gomes,  
 C. Gonzalez-Espinoza,  S. Gulania,  A. Gunina,  M. W. D. Hanson-Heine,  
 P. H. P. Harbach,  A. W. Hauser,  M. F. Herbst,  M. Hernandez Vera,  
 M. Hodecker,  Z. C. Holden,  S. Houck,  Xunkun Huang,  Kerwin Hui,  
 B. C. Huynh,  M. Ivanov,  Hyunjun Ji,  Hanjie Jiang,  B. Kaduk,  S. Kaehler,  
 K. Khistyaev,  Jaehoon Kim,  P. Klunzinger,  Z. Koczor-Benda,  
 Joong Hoon Koh,  D. Kosenkov,  L. Koulias,  T. Kowalczyk,  C. M. Krauter,  
 K. Kue,  A. Kunitsa,  T. Kus,  A. Landau,  K. V. Lawler,  D. Lefrancois,  
 S. Lehtola,  Rain Li,  Yi-Pei Li,  Jiashu Liang,  M. Liebenthal,  
 Hung-Hsuan Lin,  You-Sheng Lin,  Fenglai Liu,  Kuan-Yu Liu,  
 M. Loipersberger,  A. Luenser,  A. Manjanath,  P. Manohar,  E. Mansoor,  
 S. F. Manzer,  Shan-Ping Mao,  A. V. Marenich,  T. Markovich,  S. Mason,  
 S. A. Maurer,  P. F. McLaughlin,  M. F. S. J. Menger,  J.-M. Mewes,  
 S. A. Mewes,  P. Morgante,  J. W. Mullinax,  K. J. Oosterbaan,  G. Paran,  
 Alexander C. Paul,  Suranjan K. Paul,  F. Pavosevic,  Zheng Pei,  S. Prager,  
 E. I. Proynov,  E. Ramos,  B. Rana,  A. E. Rask,  A. Rettig,  R. M. Richard,  
 F. Rob,  E. Rossomme,  T. Scheele,  M. Scheurer,  M. Schneider,  
 N. Sergueev,  S. M. Sharada,  W. Skomorowski,  D. W. Small,  C. J. Stein,  
 Yu-Chuan Su,  E. J. Sundstrom,  Zhen Tao,  J. Thirman,  T. Tsuchimochi,  
 N. M. Tubman,  S. P. Veccham,  O. Vydrov,  J. Wenzel,  J. Witte,  A. Yamada,  
 Kun Yao,  S. Yeganeh,  S. R. Yost,  A. Zech,  Igor Ying Zhang,  Xing Zhang,  
 Yu Zhang,  D. Zuev,  A. Aspuru-Guzik,  A. T. Bell,  N. A. Besley,  
 K. B. Bravaya,  B. R. Brooks,  D. Casanova,  Jeng-Da Chai,  S. Coriani,  
 C. J. Cramer,  A. E. DePrince, III,  R. A. DiStasio Jr.,  A. Dreuw,  
 B. D. Dunietz,  T. R. Furlani,  W. A. Goddard III,  S. Grimme,  
 S. Hammes-Schiffer,  T. Head-Gordon,  W. J. Hehre,  Chao-Ping Hsu,  
 T.-C. Jagau,  Yousung Jung,  A. Klamt,  Jing Kong,  D. S. Lambrecht,  
 WanZhen Liang,  N. J. Mayhall,  C. W. McCurdy,  J. B. Neaton,  
 C. Ochsenfeld,  J. A. Parkhill,  R. Peverati,  V. A. Rassolov,  Yihan Shao,  
 L. V. Slipchenko,  T. Stauch,  R. P. Steele,  J. E. Subotnik,  
 A. J. W. Thom,  A. Tkatchenko,  D. G. Truhlar,  T. Van Voorhis,  
 T. A. Wesolowski,  K. B. Whaley,  H. L. Woodcock III,  P. M. Zimmerman,  
 S. Faraji,  P. M. W. Gill,  M. Head-Gordon,  J. M. Herbert,  A. I. Krylov

 Additional authors for Version 5.4.1: 
 S. Kotaru,  Shaozhi Li,  Xiangyuan Li,  F. Matz,  A. Molle,  Haisheng Ren,  
 Yingli Su,  Hung-Yi Tsai,  C. Utku,  Fang Wang

 Contributors to earlier versions of Q-Chem not listed above: 
 R. D. Adamson,  B. Austin,  R. Baer,  J. Baker,  G. J. O. Beran,  
 K. Brandhorst,  S. T. Brown,  E. F. C. Byrd,  A. K. Chakraborty,  
 G. K. L. Chan,  Chun-Min Chang,  Yunqing Chen,  C.-L. Cheng,  
 Siu Hung Chien,  D. M. Chipman,  D. L. Crittenden,  H. Dachsel,  
 R. J. Doerksen,  A. D. Dutoi,  R. G. Edgar,  J. Fosso-Tande,  
 L. Fusti-Molnar,  D. Ghosh,  A. Ghysels,  A. Golubeva-Zadorozhnaya,  
 J. Gonthier,  M. S. Gordon,  S. R. Gwaltney,  G. Hawkins,  J. E. Herr,  
 A. Heyden,  S. Hirata,  E. G. Hohenstein,  G. Kedziora,  F. J. Keil,  
 C. Kelley,  Jihan Kim,  R. A. King,  R. Z. Khaliullin,  P. P. Korambath,  
 W. Kurlancheek,  A. Laurent,  A. M. Lee,  M. S. Lee,  S. V. Levchenko,  
 Ching Yeh Lin,  D. Liotard,  E. Livshits,  R. C. Lochan,  I. Lotan,  
 L. A. Martinez-Martinez,  P. E. Maslen,  N. Nair,  D. P. O'Neill,  
 D. Neuhauser,  E. Neuscamman,  C. M. Oana,  R. Olivares-Amaya,  R. Olson,  
 T. M. Perrine,  B. Peters,  P. A. Pieniazek,  A. Prociuk,  Y. M. Rhee,  
 J. Ritchie,  M. A. Rohrdanz,  E. Rosta,  N. J. Russ,  H. F. Schaefer III,  
 M. W. Schmidt,  N. E. Schultz,  S. Sharma,  N. Shenvi,  C. D. Sherrill,  
 A. C. Simmonett,  A. Sodt,  T. Stein,  D. Stuck,  K. S. Thanthiriwatte,  
 V. Vanovschi,  L. Vogt,  Tao Wang,  A. Warshel,  M. A. Watson,  
 C. F. Williams,  Q. Wu,  X. Xu,  Jun Yang,  W. Zhang,  Yan Zhao

 Please cite Q-Chem as follows:
 Y. Shao et al., Mol. Phys. 113, 184-215 (2015)
 DOI: 10.1080/00268976.2014.952696

 Q-Chem 5.4.1 for Intel X86 EM64T Linux

 Parts of Q-Chem use Armadillo 9.800.1 (Horizon Scraper).
 http://arma.sourceforge.net/

 Q-Chem begins on Sat Apr 29 09:58:41 2023  

 Host: 
0

     Scratch files written to /scratch/ari.fischer/qChem1519366.hpc-mn1/qchem216936//
 Aug1521 |scratch|qcdevops|jenkins|workspace|build_RNUM 8249   
 Processing $rem in /usr/local/qchem-5.4.1/config/preferences:
 Processing $rem in /home/ari.fischer/.qchemrc:
 Symmetry turned off for PCM/SM12/SMD calculation


!!********************************************.
!!******************Warning*******************.
!!Desired Analytical derivatives not available.
!!Finite difference job might take a long time.
!!********************************************.
!!********************************************.


 2-order derivative to be evaluated numerically with 1-order analytical derivatives

 Checking the input file for inconsistencies... 	...done.

--------------------------------------------------------------
User input:
--------------------------------------------------------------
$molecule
0 2
C        -0.8449004139    0.0274036975    0.1053575599
C        -2.3014371111    0.0690530884   -0.2180220699
O        -3.0459823405    0.0870730091    1.0133565176
C        -0.0691917048   -1.1277357420   -0.1454878271
C         1.2482795821   -1.1817184149    0.1753518810
C         1.9629601026   -0.0400161025    0.8220297296
O         3.1110329962    0.3699296626    0.0390053045
C         1.0958518069    1.1579448931    1.0155355892
C        -0.2145904720    1.1636298001    0.6839271185
H        -2.5816908607   -0.8025009717   -0.8114413304
H        -2.5359368077    0.9688900405   -0.7923834012
H        -3.9702529874    0.2441392798    0.7921559915
H        -0.5468646916   -1.9822552710   -0.6096742598
H         1.8317465859   -2.0719213789   -0.0237687694
H         2.3435893641   -0.3645158988    1.8006060655
H         3.7655398412   -0.3359262710    0.0911603945
H         1.5648633890    2.0343051943    1.4438898160
H        -0.8078869783    2.0550134853    0.8502013899
$end

$rem
BASIS = 6-311++G(2df,2p)
GUI = 2
JOB_TYPE = Frequency
METHOD = wB97M-V
SOLVENT_METHOD = SMD
SCF_ALGORITHM = DIIS_GDM
MAX_SCF_CYCLES = 400
SCF_CONVERGENCE = 7
THRESH = 12
UNRESTRICTED = 1
SYMMETRY_IGNORE = 1
$end
--------------------------------------------------------------
 ----------------------------------------------------------------
             Standard Nuclear Orientation (Angstroms)
    I     Atom           X                Y                Z
 ----------------------------------------------------------------
    1      C      -0.8449004139     0.0274036975     0.1053575599
    2      C      -2.3014371111     0.0690530884    -0.2180220699
    3      O      -3.0459823405     0.0870730091     1.0133565176
    4      C      -0.0691917048    -1.1277357420    -0.1454878271
    5      C       1.2482795821    -1.1817184149     0.1753518810
    6      C       1.9629601026    -0.0400161025     0.8220297296
    7      O       3.1110329962     0.3699296626     0.0390053045
    8      C       1.0958518069     1.1579448931     1.0155355892
    9      C      -0.2145904720     1.1636298001     0.6839271185
   10      H      -2.5816908607    -0.8025009717    -0.8114413304
   11      H      -2.5359368077     0.9688900405    -0.7923834012
   12      H      -3.9702529874     0.2441392798     0.7921559915
   13      H      -0.5468646916    -1.9822552710    -0.6096742598
   14      H       1.8317465859    -2.0719213789    -0.0237687694
   15      H       2.3435893641    -0.3645158988     1.8006060655
   16      H       3.7655398412    -0.3359262710     0.0911603945
   17      H       1.5648633890     2.0343051943     1.4438898160
   18      H      -0.8078869783     2.0550134853     0.8502013899
 ----------------------------------------------------------------
 Nuclear Repulsion Energy =         429.62068263 hartrees
 There are       34 alpha and       33 beta electrons
 Requested basis set is 6-311++G(2df,2p)
 There are 126 shells and 396 basis functions

 Total QAlloc Memory Limit 288000 MB
 Mega-Array Size       188 MB
 MEM_STATIC part       192 MB
 
 Citation of the SMD model:
 Marenich, A.V.; Cramer, C.J.; Truhlar, D.G.
 J. Phys. Chem. B 2009, 113, 6378-6396.
 iSolventCode=           1
 Solvent: water                                                           
 
 vradii
            1           2           3           4           5           6
    1   1.8500000   1.8500000   1.5200000   1.8500000   1.8500000   1.8500000
            7           8           9          10          11          12
    1   1.5200000   1.8500000   1.8500000   1.2000000   1.2000000   1.2000000
           13          14          15          16          17          18
    1   1.2000000   1.2000000   1.2000000   1.2000000   1.2000000   1.2000000
 Changing PCM_VDW_RADII to SMD_RADIUS
 Discretize the solute cavity surface with Lebedev spheres
	Using 110 Lebedev grid points for each H atom
	Using 194 Lebedev grid points for other atoms
	Atomic van der Waals radii will be scaled by 1.20
 Remove points where switching function is < 1.0e-08
 Keep 1334 surface tesserae and discard 1402 interior tesserae
 Molecular Surface Area = 155.773 Angst**2
 A cutoff of  1.0D-12 yielded   7080 shell pairs
 There are     70563 function pairs (     87426 Cartesian)
 Smallest overlap matrix eigenvalue = 1.26E-06
 Guess from superposition of atomic densities
 Warning:  Energy on first SCF cycle will be non-variational
 SAD guess density has 67.000000 electrons

 -----------------------------------------------------------------------
  General SCF calculation program by
  Eric Jon Sundstrom, Paul Horn, Yuezhi Mao, Dmitri Zuev, Alec White,
  David Stuck, Shaama M.S., Shane Yost, Joonho Lee, David Small,
  Daniel Levine, Susi Lehtola, Hugh Burton, Evgeny Epifanovsky,
  Bang C. Huynh
 -----------------------------------------------------------------------
 Exchange:     0.1500 Hartree-Fock + 1.0000 wB97M-V + LR-HF
 Correlation:  1.0000 wB97M-V
 Using SG-2 standard quadrature grid
 Nonlocal Correlation:  VV10 with C = 0.0100 and b = 6.00 and scale = 1.00000
 Grid used for NLC:  SG-1 standard quadrature
 using 8 threads for integral computing
 -------------------------------------------------------
 OpenMP Integral computing Module                
 Release: version 1.0, May 2013, Q-Chem Inc. Pittsburgh 
 -------------------------------------------------------
 
 Citation of the SMD model:
 Marenich, A.V.; Cramer, C.J.; Truhlar, D.G.
 J. Phys. Chem. B 2009, 113, 6378-6396.
 iSolventCode=           1
 Solvent: water                                                           
 
 vradii
            1           2           3           4           5           6
    1   1.8500000   1.8500000   1.5200000   1.8500000   1.8500000   1.8500000
            7           8           9          10          11          12
    1   1.5200000   1.8500000   1.8500000   1.2000000   1.2000000   1.2000000
           13          14          15          16          17          18
    1   1.2000000   1.2000000   1.2000000   1.2000000   1.2000000   1.2000000
 -------------------------------------------------------
 OpenMP BLAS3 based DFT computing Module                
 Release: version 1.0, May 2013, Q-Chem Inc. Pittsburgh 
 -------------------------------------------------------
 A unrestricted SCF calculation will be
 performed using DIIS, GDM
 SCF converges when RMS gradient is below 1.0e-07
 ---------------------------------------
  Cycle       Energy         DIIS error
 ---------------------------------------
    1    -425.1034946715      1.27e-02  
    2    -422.4263341614      1.21e-03  Done DIIS. Switching to GDM
 ---------------------------------------
  Cycle       Energy        RMS Gradient
 ---------------------------------------
    1    -422.4263341614      3.76e-02   Descent step
    2    -422.5184851815      1.94e-02   Normal BFGS step
    3    -422.5305985849      9.98e-03   Normal BFGS step
    4    -422.5323425686      7.22e-03   Normal BFGS step
    5    -422.5327801055      4.02e-03   Normal BFGS step
    6    -422.5329202183      1.57e-03   Normal BFGS step
    7    -422.5329375295      5.98e-04   Normal BFGS step
    8    -422.5329422199      3.92e-04   Normal BFGS step
    9    -422.5329430687      2.03e-04   Normal BFGS step
   10    -422.5329434437      7.73e-05   Normal BFGS step
   11    -422.5329435206      2.57e-05   Normal BFGS step
   12    -422.5329435299      1.74e-05   Normal BFGS step
   13    -422.5329435317      4.23e-06   Normal BFGS step
   14    -422.5329435319      2.21e-06   Normal BFGS step
   15    -422.5329435319      1.49e-06   Normal BFGS step
   16    -422.5329435319      1.05e-06   Normal BFGS step
   17    -422.5329435319      4.82e-07   Normal BFGS step
   18    -422.5329435319      2.23e-07   Normal BFGS step
   19    -422.5329435319      7.08e-08  Convergence criterion met
 ---------------------------------------
 SCF time:   CPU 1869.71s  wall 236.00s 
<S^2> =          0.787653138
(3)  G-ENP(liq) elect-nuc-pol free energy of system     -422.532943532 a.u.
(4)  G-CDS(liq) cavity-dispersion-solvent structure 
     free energy                                                3.6260 kcal/mol
(6)  G-S(liq) free energy of system                     -422.527165130 a.u.
 SCF   energy in the final basis set =     -422.5271651297
 Total energy in the final basis set =     -422.5271651297
 
 --------------------------------------------------------------
 
                    Orbital Energies (a.u.)
 --------------------------------------------------------------
 
 Alpha MOs
 -- Occupied --
-19.3379 -19.3366 -10.3992 -10.3851 -10.3586 -10.3474 -10.3473 -10.3430
-10.3429  -1.1545  -1.1518  -0.9794  -0.8860  -0.8773  -0.7969  -0.7233
 -0.7121  -0.6284  -0.6263  -0.6199  -0.5848  -0.5744  -0.5314  -0.5245
 -0.5197  -0.4902  -0.4835  -0.4543  -0.4410  -0.4254  -0.3970  -0.3886
 -0.3648  -0.2676
 -- Virtual --
  0.0245   0.0324   0.0371   0.0512   0.0536   0.0567   0.0629   0.0643
  0.0778   0.0891   0.1020   0.1101   0.1181   0.1263   0.1320   0.1418
  0.1461   0.1530   0.1587   0.1607   0.1620   0.1636   0.1700   0.1756
  0.1835   0.1864   0.1906   0.1989   0.2036   0.2078   0.2112   0.2184
  0.2314   0.2434   0.2488   0.2548   0.2609   0.2689   0.2716   0.2759
  0.2854   0.2916   0.3016   0.3153   0.3183   0.3219   0.3302   0.3333
  0.3415   0.3512   0.3603   0.3632   0.3676   0.3768   0.3983   0.4029
  0.4156   0.4205   0.4281   0.4311   0.4486   0.4585   0.4651   0.5397
  0.5503   0.5665   0.5811   0.5839   0.5899   0.5947   0.6007   0.6047
  0.6136   0.6253   0.6294   0.6331   0.6502   0.6577   0.6744   0.6843
  0.6891   0.6999   0.7048   0.7077   0.7247   0.7258   0.7346   0.7414
  0.7503   0.7537   0.7673   0.7685   0.7861   0.8099   0.8104   0.8177
  0.8324   0.8446   0.8484   0.8615   0.8809   0.8918   0.9105   0.9236
  0.9378   0.9592   0.9744   0.9879   1.0234   1.0294   1.0342   1.0627
  1.0787   1.0960   1.1062   1.1162   1.1301   1.1367   1.1458   1.1517
  1.1677   1.2032   1.2134   1.2248   1.2306   1.2409   1.2527   1.2638
  1.2722   1.2891   1.3156   1.3334   1.3433   1.3489   1.3777   1.3837
  1.3906   1.3956   1.4060   1.4139   1.4274   1.4375   1.4444   1.4703
  1.4775   1.4840   1.5061   1.5209   1.5267   1.5380   1.5538   1.5649
  1.5697   1.5832   1.6074   1.6227   1.6384   1.6573   1.6989   1.7176
  1.7533   1.7612   1.8071   1.8321   1.8368   1.8563   1.8850   1.9422
  1.9597   1.9941   2.0280   2.0730   2.0778   2.1295   2.1475   2.1725
  2.2039   2.2842   2.3120   2.3590   2.4180   2.4399   2.5629   2.5678
  2.6181   2.6378   2.6700   2.6945   2.7374   2.7409   2.7821   2.8105
  2.8162   2.8208   2.8337   2.8411   2.8591   2.8683   2.8915   2.8973
  2.9213   2.9287   2.9382   2.9514   2.9550   2.9835   2.9937   3.0049
  3.0109   3.0382   3.0480   3.0763   3.1017   3.1181   3.1498   3.1607
  3.2055   3.2099   3.2358   3.2445   3.2690   3.2763   3.2897   3.3045
  3.3125   3.3286   3.3471   3.3511   3.3706   3.3722   3.3940   3.4328
  3.4427   3.4575   3.4584   3.4829   3.5053   3.5194   3.5461   3.5479
  3.5620   3.6033   3.6093   3.6207   3.6325   3.6362   3.6962   3.6988
  3.7218   3.7273   3.7438   3.7633   3.7722   3.7933   3.8107   3.8200
  3.8323   3.8483   3.8548   3.8717   3.8878   3.8999   3.9183   3.9322
  3.9647   3.9972   4.0028   4.0214   4.0268   4.0679   4.0853   4.1172
  4.1416   4.1498   4.1700   4.2015   4.2026   4.2182   4.2513   4.2872
  4.3032   4.3206   4.3421   4.3487   4.3603   4.3761   4.3991   4.4101
  4.4238   4.4378   4.4610   4.4784   4.5021   4.5197   4.5322   4.5601
  4.5972   4.6263   4.6344   4.6535   4.6876   4.7142   4.7387   4.7780
  4.8446   4.9087   5.0023   5.0268   5.0404   5.1533   5.1750   5.2369
  5.2636   5.2746   5.3081   5.3123   5.3313   5.3638   5.3842   5.4217
  5.4846   5.5067   5.5551   5.5711   5.6188   5.6340   5.6593   5.6744
  5.6777   5.6946   5.7972   5.8208   5.8660   5.9132   5.9395   5.9899
  5.9976   6.1339   6.4254   6.5594   6.5689   7.1045   7.1251   7.3140
  7.3160   7.3225   7.3364   7.3508   7.3878   7.6415   7.6488   7.7981
  7.8031  24.2712  24.6424  24.7715  24.8301  24.8982  25.1219  25.3883
 50.5929  50.6013
 
 Beta MOs
 -- Occupied --
-19.3364 -19.3357 -10.3998 -10.3855 -10.3508 -10.3455 -10.3454 -10.3425
-10.3417  -1.1511  -1.1499  -0.9723  -0.8766  -0.8719  -0.7953  -0.7181
 -0.7035  -0.6249  -0.6212  -0.6155  -0.5803  -0.5680  -0.5285  -0.5226
 -0.5158  -0.4860  -0.4790  -0.4426  -0.4303  -0.4164  -0.3906  -0.3860
 -0.3482
 -- Virtual --
 -0.0238   0.0248   0.0321   0.0369   0.0510   0.0542   0.0566   0.0633
  0.0772   0.0782   0.0894   0.1011   0.1100   0.1186   0.1294   0.1353
  0.1426   0.1461   0.1536   0.1591   0.1609   0.1624   0.1638   0.1734
  0.1766   0.1834   0.1864   0.1909   0.2001   0.2047   0.2084   0.2124
  0.2237   0.2310   0.2427   0.2492   0.2552   0.2601   0.2691   0.2724
  0.2768   0.2859   0.2921   0.3021   0.3170   0.3197   0.3241   0.3325
  0.3368   0.3431   0.3532   0.3617   0.3648   0.3703   0.3802   0.3983
  0.4056   0.4182   0.4216   0.4316   0.4331   0.4502   0.4601   0.4670
  0.5405   0.5516   0.5713   0.5838   0.5872   0.5925   0.5984   0.6015
  0.6093   0.6148   0.6289   0.6327   0.6352   0.6533   0.6598   0.6775
  0.6906   0.6924   0.7023   0.7081   0.7105   0.7280   0.7306   0.7396
  0.7437   0.7544   0.7569   0.7693   0.7707   0.7890   0.8121   0.8154
  0.8227   0.8349   0.8481   0.8526   0.8654   0.8840   0.8972   0.9123
  0.9260   0.9401   0.9607   0.9765   0.9897   1.0246   1.0315   1.0360
  1.0651   1.0804   1.0974   1.1077   1.1174   1.1312   1.1385   1.1469
  1.1537   1.1693   1.2055   1.2156   1.2253   1.2331   1.2421   1.2548
  1.2654   1.2741   1.2921   1.3185   1.3373   1.3463   1.3509   1.3797
  1.3872   1.3945   1.3978   1.4093   1.4174   1.4316   1.4419   1.4465
  1.4744   1.4812   1.4884   1.5092   1.5243   1.5310   1.5432   1.5565
  1.5660   1.5714   1.5852   1.6105   1.6250   1.6404   1.6598   1.7019
  1.7223   1.7595   1.7676   1.8109   1.8361   1.8409   1.8598   1.8890
  1.9461   1.9634   1.9967   2.0318   2.0773   2.0852   2.1332   2.1505
  2.1767   2.2071   2.2877   2.3137   2.3608   2.4193   2.4416   2.5706
  2.5787   2.6211   2.6443   2.6753   2.7037   2.7461   2.7481   2.7896
  2.8168   2.8207   2.8330   2.8425   2.8477   2.8728   2.8793   2.9002
  2.9063   2.9283   2.9365   2.9593   2.9667   2.9761   2.9948   3.0065
  3.0247   3.0284   3.0549   3.0599   3.0912   3.1145   3.1288   3.1554
  3.1650   3.2123   3.2196   3.2422   3.2557   3.2745   3.2824   3.3011
  3.3154   3.3183   3.3369   3.3553   3.3577   3.3797   3.3807   3.4027
  3.4449   3.4459   3.4672   3.4684   3.4858   3.5153   3.5257   3.5550
  3.5577   3.5715   3.6130   3.6195   3.6323   3.6408   3.6535   3.7026
  3.7058   3.7291   3.7366   3.7514   3.7673   3.7802   3.7992   3.8186
  3.8249   3.8351   3.8609   3.8618   3.8799   3.8962   3.9109   3.9276
  3.9398   3.9731   4.0041   4.0102   4.0288   4.0353   4.0755   4.0940
  4.1262   4.1491   4.1571   4.1759   4.2055   4.2083   4.2252   4.2623
  4.2937   4.3085   4.3267   4.3491   4.3550   4.3653   4.3869   4.4085
  4.4189   4.4290   4.4450   4.4696   4.4895   4.5149   4.5318   4.5452
  4.5692   4.6052   4.6377   4.6461   4.6676   4.7007   4.7233   4.7464
  4.7874   4.8576   4.9224   5.0143   5.0366   5.0518   5.1656   5.1873
  5.2447   5.2654   5.2803   5.3117   5.3160   5.3327   5.3674   5.3867
  5.4287   5.4887   5.5113   5.5637   5.5772   5.6222   5.6466   5.6637
  5.6762   5.6870   5.6973   5.8076   5.8274   5.8693   5.9162   5.9460
  5.9948   6.0019   6.1408   6.4349   6.5637   6.5717   7.1058   7.1276
  7.3164   7.3188   7.3242   7.3406   7.3532   7.3924   7.6440   7.6518
  7.8009   7.8082  24.2728  24.6444  24.7720  24.8306  24.9030  25.1231
 25.3909  50.5937  50.6026
 --------------------------------------------------------------
 
          Ground-State Mulliken Net Atomic Charges

     Atom                 Charge (a.u.)    Spin (a.u.)
  --------------------------------------------------------
      1 C                     0.805846       0.428976
      2 C                    -0.663015       0.021293
      3 O                    -0.410631       0.006174
      4 C                    -0.776695      -0.112097
      5 C                     0.045406       0.349990
      6 C                    -0.834250       0.028865
      7 O                    -0.409124       0.017906
      8 C                     0.176317       0.308394
      9 C                    -0.345482      -0.109947
     10 H                     0.202070      -0.000514
     11 H                     0.200740       0.014398
     12 H                     0.318962       0.008379
     13 H                     0.270986       0.006903
     14 H                     0.311643      -0.011122
     15 H                     0.179475       0.044000
     16 H                     0.327111       0.002557
     17 H                     0.308074      -0.009037
     18 H                     0.292566       0.004882
  --------------------------------------------------------
  Sum of atomic charges =    -0.000000
  Sum of spin   charges =     1.000000

 -----------------------------------------------------------------
                    Cartesian Multipole Moments
 -----------------------------------------------------------------
    Charge (ESU x 10^10)
                -0.0000
    Dipole Moment (Debye)
         X      -1.1422      Y      -1.7509      Z      -0.8484
       Tot       2.2561
    Quadrupole Moments (Debye-Ang)
        XX     -40.8658     XY      -9.5849     YY     -51.0277
        XZ      10.2442     YZ       2.2773     ZZ     -58.2918
    Octopole Moments (Debye-Ang^2)
       XXX     -46.9773    XXY     -22.8824    XYY      -4.5899
       YYY      -9.2536    XXZ     -20.6672    XYZ      -0.8837
       YYZ     -20.4869    XZZ       5.4931    YZZ      -1.8717
       ZZZ     -66.2402
    Hexadecapole Moments (Debye-Ang^3)
      XXXX    -917.9546   XXXY    -122.4276   XXYY    -264.2412
      XYYY      -6.2483   YYYY    -292.6380   XXXZ      16.2837
      XXYZ      -9.5055   XYYZ       3.2845   YYYZ     -26.8150
      XXZZ    -265.6317   XYZZ       1.8792   YYZZ     -86.0548
      XZZZ       7.0554   YZZZ     -45.2365   ZZZZ    -217.7716
 -----------------------------------------------------------------
 Calculating analytic gradient of the SCF energy
 Gradient of CDS energy
            1           2           3           4           5           6
    1  -0.0001297  -0.0005896   0.0002917  -0.0001965   0.0002249   0.0003153
    2   0.0000332  -0.0002145   0.0000385  -0.0001978  -0.0003175   0.0000920
    3   0.0001928  -0.0006586  -0.0000473  -0.0001465  -0.0000496   0.0000052
            7           8           9          10          11          12
    1  -0.0002514   0.0001740  -0.0001939   0.0001614   0.0001052  -0.0004464
    2   0.0000238   0.0002949   0.0002172  -0.0001818   0.0002495   0.0000765
    3   0.0001008   0.0001581  -0.0000067   0.0000411   0.0001015   0.0002771
           13          14          15          16          17          18
    1  -0.0001339   0.0000914   0.0000777   0.0004969   0.0001441  -0.0001415
    2  -0.0001166  -0.0001485  -0.0000549  -0.0000731   0.0001526   0.0001267
    3  -0.0000860  -0.0000316   0.0001829  -0.0001130   0.0000627   0.0000170
 Gradient of SCF Energy
            1           2           3           4           5           6
    1  -0.0008941   0.0062906   0.0126971   0.0006832  -0.0016011  -0.0041479
    2   0.0032939   0.0000337  -0.0027285   0.0044811   0.0026619   0.0058814
    3   0.0000081   0.0093589   0.0083844   0.0021433   0.0023452  -0.0057962
            7           8           9          10          11          12
    1  -0.0061198  -0.0032948   0.0016858  -0.0017485  -0.0022249  -0.0119147
    2   0.0130352  -0.0031661  -0.0038789  -0.0042316   0.0043395   0.0023707
    3  -0.0044404   0.0002810  -0.0022881  -0.0041571  -0.0034957  -0.0063548
           13          14          15          16          17          18
    1  -0.0024970   0.0047559   0.0025211   0.0068052  -0.0003762  -0.0006200
    2  -0.0039058  -0.0054360  -0.0022441  -0.0113411  -0.0001231   0.0009579
    3  -0.0024364  -0.0005464   0.0037066   0.0031667   0.0008517  -0.0007311
 Max gradient component =       1.304E-02
 RMS gradient           =       4.962E-03
 Computing fast CPCM-SWIG gradient
 Updating gradient with PCM contributions...
 -- total gradient after adding PCM contribution --
---------------------------------------------------
  Atom         X              Y              Z     
---------------------------------------------------
   1      -0.000041      -0.000085      -0.000034
   2       0.000007       0.000000      -0.000058
   3      -0.000040      -0.000024      -0.000033
   4      -0.000051       0.000025       0.000024
   5       0.000046      -0.000015       0.000005
   6       0.000070       0.000044      -0.000063
   7      -0.000021      -0.000069       0.000081
   8      -0.000007       0.000023      -0.000004
   9       0.000025       0.000015       0.000038
  10       0.000019      -0.000002       0.000004
  11       0.000002      -0.000003      -0.000008
  12       0.000043       0.000025      -0.000020
  13       0.000008      -0.000004       0.000001
  14       0.000016       0.000016       0.000006
  15      -0.000039      -0.000013       0.000051
  16      -0.000027       0.000047       0.000034
  17      -0.000002       0.000009      -0.000011
  18      -0.000009       0.000013      -0.000014
---------------------------------------------------
 Number of fixed atoms: 0
 Gradient time:  CPU 284.97 s  wall 42.30 s
 ######################################################
 ######################################################
 # Starting finite difference calculation for IDERIV  #
 Finite diff step size:  1.88973e-03 a.u.
 ----------------------------------------------------------------
             Standard Nuclear Orientation (Angstroms)
    I     Atom           X                Y                Z
 ----------------------------------------------------------------
    1      C      -0.8439004139     0.0274036975     0.1053575599
    2      C      -2.3014371111     0.0690530884    -0.2180220699
    3      O      -3.0459823405     0.0870730091     1.0133565176
    4      C      -0.0691917048    -1.1277357420    -0.1454878271
    5      C       1.2482795821    -1.1817184149     0.1753518810
    6      C       1.9629601026    -0.0400161025     0.8220297296
    7      O       3.1110329962     0.3699296626     0.0390053045
    8      C       1.0958518069     1.1579448931     1.0155355892
    9      C      -0.2145904720     1.1636298001     0.6839271185
   10      H      -2.5816908607    -0.8025009717    -0.8114413304
   11      H      -2.5359368077     0.9688900405    -0.7923834012
   12      H      -3.9702529874     0.2441392798     0.7921559915
   13      H      -0.5468646916    -1.9822552710    -0.6096742598
   14      H       1.8317465859    -2.0719213789    -0.0237687694
   15      H       2.3435893641    -0.3645158988     1.8006060655
   16      H       3.7655398412    -0.3359262710     0.0911603945
   17      H       1.5648633890     2.0343051943     1.4438898160
   18      H      -0.8078869783     2.0550134853     0.8502013899
 ----------------------------------------------------------------
 Nuclear Repulsion Energy =         429.62627865 hartrees
 There are       34 alpha and       33 beta electrons
 Discretize the solute cavity surface with Lebedev spheres
	Using 110 Lebedev grid points for each H atom
	Using 194 Lebedev grid points for other atoms
	Atomic van der Waals radii will be scaled by 1.20
 Remove points where switching function is < 1.0e-08
 Keep 1334 surface tesserae and discard 1402 interior tesserae
 Molecular Surface Area = 155.774 Angst**2
 Requested basis set is 6-311++G(2df,2p)
 There are 126 shells and 396 basis functions
 A cutoff of  1.0D-12 yielded   7081 shell pairs
 There are     70612 function pairs (     87526 Cartesian)
 Smallest overlap matrix eigenvalue = 1.26E-06
 Guess MOs from SCF MO coefficient file

 -----------------------------------------------------------------------
  General SCF calculation program by
  Eric Jon Sundstrom, Paul Horn, Yuezhi Mao, Dmitri Zuev, Alec White,
  David Stuck, Shaama M.S., Shane Yost, Joonho Lee, David Small,
  Daniel Levine, Susi Lehtola, Hugh Burton, Evgeny Epifanovsky,
  Bang C. Huynh
 -----------------------------------------------------------------------
 Exchange:     0.1500 Hartree-Fock + 1.0000 wB97M-V + LR-HF
 Correlation:  1.0000 wB97M-V
 Using SG-2 standard quadrature grid
 Nonlocal Correlation:  VV10 with C = 0.0100 and b = 6.00 and scale = 1.00000
 Grid used for NLC:  SG-1 standard quadrature
 
 Citation of the SMD model:
 Marenich, A.V.; Cramer, C.J.; Truhlar, D.G.
 J. Phys. Chem. B 2009, 113, 6378-6396.
 iSolventCode=           1
 Solvent: water                                                           
 
 vradii
            1           2           3           4           5           6
    1   1.8500000   1.8500000   1.5200000   1.8500000   1.8500000   1.8500000
            7           8           9          10          11          12
    1   1.5200000   1.8500000   1.8500000   1.2000000   1.2000000   1.2000000
           13          14          15          16          17          18
    1   1.2000000   1.2000000   1.2000000   1.2000000   1.2000000   1.2000000
 -------------------------------------------------------
 OpenMP BLAS3 based DFT computing Module                
 Release: version 1.0, May 2013, Q-Chem Inc. Pittsburgh 
 -------------------------------------------------------
 A unrestricted SCF calculation will be
 performed using Roothaan-Hall, DIIS, GDM
 SCF converges when RMS gradient is below 1.0e-07
 ---------------------------------------
  Cycle       Energy         DIIS error
 ---------------------------------------
    1    -422.5005693003      2.13e-04  Roothaan Step
 ---------------------------------------
  Cycle       Energy         DIIS error
 ---------------------------------------
    1    -422.5260871356      2.42e-04  
    2    -422.5309596960      1.84e-04  Done DIIS. Switching to GDM
 ---------------------------------------
  Cycle       Energy        RMS Gradient
 ---------------------------------------
    1    -422.5309596960      5.37e-03   Normal BFGS step
    2    -422.5312409269      5.46e-03   Normal BFGS step
    3    -422.5329134784      8.05e-04   Normal BFGS step
    4    -422.5329327593      5.09e-04   Normal BFGS step
    5    -422.5329418708      1.80e-04   Normal BFGS step
    6    -422.5329422001      5.33e-05   Normal BFGS step
    7    -422.5329422685      5.38e-05   Normal BFGS step
    8    -422.5329422833      3.52e-05   Normal BFGS step
    9    -422.5329422870      7.03e-06   Normal BFGS step
   10    -422.5329422879      3.97e-06   Normal BFGS step
   11    -422.5329422881      3.13e-06   Normal BFGS step
   12    -422.5329422881      2.26e-06   Normal BFGS step
   13    -422.5329422882      1.10e-06   Normal BFGS step
   14    -422.5329422882      4.39e-07   Normal BFGS step
   15    -422.5329422882      2.18e-07   Normal BFGS step
   16    -422.5329422881      8.68e-08  Convergence criterion met
 ---------------------------------------
 SCF time:   CPU 1750.22s  wall 221.00s 
<S^2> =          0.787661700
(3)  G-ENP(liq) elect-nuc-pol free energy of system     -422.532942288 a.u.
(4)  G-CDS(liq) cavity-dispersion-solvent structure 
     free energy                                                3.6258 kcal/mol
(6)  G-S(liq) free energy of system                     -422.527164130 a.u.
 SCF   energy in the final basis set =     -422.5271641297
 Total energy in the final basis set =     -422.5271641297
 
 --------------------------------------------------------------
 
                    Orbital Energies (a.u.)
 --------------------------------------------------------------
 
 Alpha MOs
 -- Occupied --
-19.3379 -19.3366 -10.3992 -10.3851 -10.3585 -10.3474 -10.3473 -10.3429
-10.3429  -1.1545  -1.1518  -0.9794  -0.8859  -0.8773  -0.7968  -0.7233
 -0.7122  -0.6284  -0.6263  -0.6199  -0.5848  -0.5744  -0.5314  -0.5246
 -0.5197  -0.4902  -0.4836  -0.4543  -0.4410  -0.4254  -0.3970  -0.3886
 -0.3648  -0.2675
 -- Virtual --
  0.0245   0.0324   0.0371   0.0512   0.0536   0.0567   0.0629   0.0643
  0.0778   0.0891   0.1020   0.1101   0.1181   0.1263   0.1320   0.1418
  0.1461   0.1531   0.1587   0.1607   0.1620   0.1637   0.1701   0.1756
  0.1835   0.1864   0.1906   0.1989   0.2036   0.2078   0.2112   0.2185
  0.2314   0.2434   0.2488   0.2548   0.2609   0.2689   0.2716   0.2759
  0.2854   0.2916   0.3016   0.3154   0.3183   0.3220   0.3302   0.3333
  0.3416   0.3512   0.3603   0.3632   0.3676   0.3768   0.3983   0.4029
  0.4156   0.4205   0.4279   0.4311   0.4486   0.4585   0.4651   0.5396
  0.5503   0.5665   0.5811   0.5840   0.5899   0.5948   0.6007   0.6047
  0.6136   0.6253   0.6294   0.6331   0.6503   0.6577   0.6744   0.6843
  0.6891   0.6999   0.7048   0.7077   0.7247   0.7258   0.7346   0.7414
  0.7503   0.7537   0.7673   0.7685   0.7861   0.8099   0.8105   0.8177
  0.8324   0.8446   0.8485   0.8615   0.8810   0.8918   0.9105   0.9236
  0.9378   0.9592   0.9744   0.9879   1.0234   1.0294   1.0342   1.0627
  1.0787   1.0960   1.1062   1.1162   1.1301   1.1367   1.1458   1.1517
  1.1677   1.2032   1.2135   1.2248   1.2306   1.2410   1.2527   1.2639
  1.2722   1.2891   1.3156   1.3334   1.3433   1.3489   1.3777   1.3837
  1.3906   1.3956   1.4061   1.4139   1.4273   1.4375   1.4443   1.4702
  1.4775   1.4840   1.5061   1.5209   1.5268   1.5381   1.5538   1.5649
  1.5697   1.5832   1.6074   1.6227   1.6384   1.6574   1.6988   1.7176
  1.7533   1.7613   1.8071   1.8321   1.8367   1.8562   1.8849   1.9422
  1.9596   1.9941   2.0281   2.0730   2.0779   2.1295   2.1474   2.1724
  2.2040   2.2840   2.3119   2.3589   2.4179   2.4399   2.5629   2.5679
  2.6180   2.6379   2.6699   2.6944   2.7375   2.7409   2.7821   2.8103
  2.8162   2.8207   2.8336   2.8411   2.8590   2.8682   2.8915   2.8972
  2.9213   2.9286   2.9382   2.9514   2.9549   2.9834   2.9936   3.0050
  3.0108   3.0382   3.0480   3.0763   3.1018   3.1181   3.1499   3.1607
  3.2055   3.2101   3.2359   3.2446   3.2688   3.2763   3.2897   3.3045
  3.3124   3.3289   3.3470   3.3509   3.3707   3.3722   3.3939   3.4331
  3.4430   3.4576   3.4585   3.4829   3.5052   3.5194   3.5461   3.5479
  3.5621   3.6034   3.6093   3.6207   3.6325   3.6362   3.6962   3.6989
  3.7217   3.7274   3.7438   3.7633   3.7723   3.7934   3.8106   3.8200
  3.8323   3.8483   3.8549   3.8718   3.8877   3.8999   3.9183   3.9321
  3.9645   3.9973   4.0028   4.0216   4.0267   4.0680   4.0855   4.1172
  4.1416   4.1498   4.1699   4.2011   4.2026   4.2182   4.2512   4.2872
  4.3031   4.3208   4.3423   4.3488   4.3605   4.3760   4.3990   4.4101
  4.4238   4.4376   4.4612   4.4786   4.5023   4.5196   4.5325   4.5601
  4.5974   4.6263   4.6343   4.6534   4.6874   4.7144   4.7390   4.7782
  4.8447   4.9086   5.0022   5.0269   5.0405   5.1532   5.1755   5.2371
  5.2635   5.2747   5.3081   5.3122   5.3312   5.3638   5.3841   5.4217
  5.4846   5.5067   5.5552   5.5711   5.6187   5.6340   5.6593   5.6743
  5.6777   5.6945   5.7965   5.8214   5.8660   5.9132   5.9393   5.9899
  5.9975   6.1343   6.4264   6.5594   6.5687   7.1045   7.1251   7.3139
  7.3160   7.3225   7.3364   7.3508   7.3878   7.6414   7.6488   7.7981
  7.8031  24.2708  24.6428  24.7716  24.8289  24.8984  25.1222  25.3895
 50.5929  50.6013
 
 Beta MOs
 -- Occupied --
-19.3364 -19.3357 -10.3998 -10.3856 -10.3508 -10.3455 -10.3454 -10.3425
-10.3417  -1.1511  -1.1499  -0.9724  -0.8765  -0.8719  -0.7953  -0.7181
 -0.7035  -0.6249  -0.6212  -0.6155  -0.5803  -0.5680  -0.5285  -0.5227
 -0.5158  -0.4860  -0.4790  -0.4424  -0.4304  -0.4164  -0.3906  -0.3860
 -0.3482
 -- Virtual --
 -0.0237   0.0248   0.0321   0.0369   0.0510   0.0542   0.0566   0.0633
  0.0772   0.0782   0.0894   0.1011   0.1100   0.1186   0.1294   0.1353
  0.1426   0.1461   0.1536   0.1591   0.1609   0.1624   0.1638   0.1734
  0.1766   0.1834   0.1864   0.1909   0.2001   0.2047   0.2084   0.2124
  0.2237   0.2310   0.2427   0.2492   0.2552   0.2601   0.2691   0.2725
  0.2768   0.2859   0.2921   0.3021   0.3170   0.3198   0.3242   0.3325
  0.3368   0.3431   0.3532   0.3616   0.3648   0.3703   0.3802   0.3983
  0.4056   0.4182   0.4216   0.4315   0.4330   0.4502   0.4602   0.4670
  0.5404   0.5517   0.5713   0.5838   0.5873   0.5925   0.5984   0.6015
  0.6093   0.6148   0.6289   0.6327   0.6352   0.6534   0.6598   0.6775
  0.6906   0.6924   0.7023   0.7081   0.7105   0.7280   0.7306   0.7396
  0.7437   0.7544   0.7569   0.7693   0.7707   0.7889   0.8121   0.8154
  0.8227   0.8349   0.8481   0.8526   0.8654   0.8841   0.8973   0.9123
  0.9260   0.9400   0.9607   0.9765   0.9897   1.0246   1.0314   1.0360
  1.0651   1.0804   1.0973   1.1077   1.1175   1.1312   1.1385   1.1469
  1.1537   1.1693   1.2055   1.2156   1.2253   1.2331   1.2421   1.2548
  1.2654   1.2741   1.2920   1.3186   1.3373   1.3464   1.3509   1.3797
  1.3872   1.3945   1.3978   1.4093   1.4173   1.4316   1.4419   1.4465
  1.4743   1.4811   1.4884   1.5092   1.5243   1.5311   1.5433   1.5566
  1.5660   1.5714   1.5853   1.6105   1.6251   1.6404   1.6598   1.7018
  1.7223   1.7595   1.7677   1.8109   1.8361   1.8408   1.8597   1.8890
  1.9461   1.9634   1.9967   2.0318   2.0773   2.0853   2.1332   2.1504
  2.1766   2.2072   2.2874   2.3136   2.3607   2.4193   2.4416   2.5706
  2.5787   2.6210   2.6444   2.6753   2.7036   2.7461   2.7481   2.7896
  2.8167   2.8206   2.8330   2.8425   2.8476   2.8727   2.8793   2.9002
  2.9063   2.9283   2.9364   2.9594   2.9667   2.9760   2.9946   3.0064
  3.0246   3.0285   3.0549   3.0599   3.0912   3.1146   3.1288   3.1555
  3.1649   3.2123   3.2198   3.2423   3.2558   3.2744   3.2823   3.3012
  3.3154   3.3183   3.3371   3.3552   3.3575   3.3798   3.3807   3.4026
  3.4450   3.4462   3.4673   3.4685   3.4858   3.5153   3.5257   3.5550
  3.5577   3.5716   3.6131   3.6196   3.6322   3.6408   3.6535   3.7026
  3.7059   3.7290   3.7367   3.7514   3.7673   3.7802   3.7993   3.8185
  3.8250   3.8351   3.8608   3.8620   3.8800   3.8961   3.9110   3.9277
  3.9396   3.9730   4.0041   4.0103   4.0289   4.0354   4.0755   4.0942
  4.1262   4.1491   4.1571   4.1759   4.2055   4.2080   4.2253   4.2621
  4.2936   4.3084   4.3269   4.3491   4.3551   4.3655   4.3868   4.4084
  4.4189   4.4290   4.4448   4.4697   4.4896   4.5151   4.5315   4.5457
  4.5692   4.6053   4.6377   4.6459   4.6674   4.7005   4.7235   4.7467
  4.7877   4.8578   4.9222   5.0142   5.0368   5.0519   5.1655   5.1877
  5.2450   5.2654   5.2805   5.3117   5.3160   5.3327   5.3674   5.3867
  5.4287   5.4888   5.5113   5.5638   5.5772   5.6221   5.6467   5.6638
  5.6762   5.6870   5.6973   5.8069   5.8280   5.8693   5.9162   5.9459
  5.9947   6.0019   6.1412   6.4358   6.5638   6.5715   7.1058   7.1276
  7.3163   7.3188   7.3242   7.3407   7.3532   7.3924   7.6439   7.6518
  7.8008   7.8082  24.2724  24.6448  24.7721  24.8295  24.9033  25.1234
 25.3921  50.5937  50.6026
 --------------------------------------------------------------
 
          Ground-State Mulliken Net Atomic Charges

     Atom                 Charge (a.u.)    Spin (a.u.)
  --------------------------------------------------------
      1 C                     0.806668       0.428490
      2 C                    -0.662838       0.021176
      3 O                    -0.410671       0.006141
      4 C                    -0.777384      -0.112059
      5 C                     0.045757       0.350348
      6 C                    -0.834473       0.028891
      7 O                    -0.409107       0.017923
      8 C                     0.176557       0.308640
      9 C                    -0.346105      -0.109941
     10 H                     0.202029      -0.000512
     11 H                     0.200776       0.014332
     12 H                     0.318969       0.008358
     13 H                     0.270970       0.006905
     14 H                     0.311628      -0.011130
     15 H                     0.179488       0.044039
     16 H                     0.327103       0.002559
     17 H                     0.308053      -0.009041
     18 H                     0.292580       0.004884
  --------------------------------------------------------
  Sum of atomic charges =     0.000000
  Sum of spin   charges =     1.000000

 -----------------------------------------------------------------
                    Cartesian Multipole Moments
 -----------------------------------------------------------------
    Charge (ESU x 10^10)
                 0.0000
    Dipole Moment (Debye)
         X      -1.1419      Y      -1.7510      Z      -0.8480
       Tot       2.2559
    Quadrupole Moments (Debye-Ang)
        XX     -40.8706     XY      -9.5848     YY     -51.0246
        XZ      10.2421     YZ       2.2782     ZZ     -58.2909
    Octopole Moments (Debye-Ang^2)
       XXX     -46.9957    XXY     -22.8817    XYY      -4.5991
       YYY      -9.2535    XXZ     -20.6658    XYZ      -0.8856
       YYZ     -20.4862    XZZ       5.4879    YZZ      -1.8727
       ZZZ     -66.2386
    Hexadecapole Moments (Debye-Ang^3)
      XXXX    -917.9333   XXXY    -122.4277   XXYY    -264.2420
      XYYY      -6.2487   YYYY    -292.6114   XXXZ      16.2698
      XXYZ      -9.5058   XYYZ       3.2785   YYYZ     -26.8084
      XXZZ    -265.6304   XYZZ       1.8773   YYZZ     -86.0510
      XZZZ       7.0478   YZZZ     -45.2349   ZZZZ    -217.7683
 -----------------------------------------------------------------
 Calculating analytic gradient of the SCF energy
 Gradient of CDS energy
            1           2           3           4           5           6
    1  -0.0001284  -0.0005906   0.0002916  -0.0001966   0.0002248   0.0003153
    2   0.0000329  -0.0002145   0.0000387  -0.0001973  -0.0003176   0.0000920
    3   0.0001931  -0.0006589  -0.0000473  -0.0001465  -0.0000496   0.0000052
            7           8           9          10          11          12
    1  -0.0002514   0.0001740  -0.0001940   0.0001615   0.0001052  -0.0004463
    2   0.0000238   0.0002949   0.0002168  -0.0001818   0.0002495   0.0000765
    3   0.0001008   0.0001581  -0.0000069   0.0000412   0.0001016   0.0002772
           13          14          15          16          17          18
    1  -0.0001339   0.0000914   0.0000777   0.0004969   0.0001441  -0.0001415
    2  -0.0001167  -0.0001485  -0.0000549  -0.0000731   0.0001526   0.0001267
    3  -0.0000860  -0.0000316   0.0001829  -0.0001130   0.0000627   0.0000170
 Gradient of SCF Energy
            1           2           3           4           5           6
    1   0.0002373   0.0058712   0.0126366   0.0004292  -0.0016896  -0.0041350
    2   0.0032226   0.0000330  -0.0027235   0.0046600   0.0027201   0.0058812
    3   0.0001730   0.0092679   0.0084040   0.0021771   0.0023377  -0.0057876
            7           8           9          10          11          12
    1  -0.0061250  -0.0033511   0.0014482  -0.0017653  -0.0022434  -0.0119184
    2   0.0130321  -0.0032182  -0.0040077  -0.0042258   0.0043402   0.0023700
    3  -0.0044368   0.0002405  -0.0023653  -0.0041617  -0.0034990  -0.0063511
           13          14          15          16          17          18
    1  -0.0024786   0.0047472   0.0025172   0.0068039  -0.0003843  -0.0006000
    2  -0.0039332  -0.0054364  -0.0022442  -0.0113399  -0.0001194   0.0009890
    3  -0.0024448  -0.0005539   0.0037053   0.0031664   0.0008456  -0.0007174
 Max gradient component =       1.303E-02
 RMS gradient           =       4.951E-03
 Computing fast CPCM-SWIG gradient
 Updating gradient with PCM contributions...
 -- total gradient after adding PCM contribution --
---------------------------------------------------
  Atom         X              Y              Z     
---------------------------------------------------
   1       0.001099      -0.000164       0.000128
   2      -0.000402       0.000001      -0.000141
   3      -0.000101      -0.000019      -0.000012
   4      -0.000313       0.000201       0.000055
   5      -0.000046       0.000045      -0.000001
   6       0.000084       0.000045      -0.000055
   7      -0.000028      -0.000071       0.000084
   8      -0.000070      -0.000032      -0.000045
   9      -0.000213      -0.000107      -0.000037
  10       0.000001       0.000001      -0.000003
  11      -0.000017       0.000001      -0.000014
  12       0.000038       0.000025      -0.000017
  13       0.000026      -0.000027      -0.000006
  14       0.000008       0.000016      -0.000001
  15      -0.000042      -0.000013       0.000049
  16      -0.000027       0.000047       0.000033
  17      -0.000010       0.000012      -0.000017
  18       0.000010       0.000041      -0.000001
---------------------------------------------------
 Number of fixed atoms: 0
 Gradient time:  CPU 281.41 s  wall 40.97 s
 ----------------------------------------------------------------
             Standard Nuclear Orientation (Angstroms)
    I     Atom           X                Y                Z
 ----------------------------------------------------------------
    1      C      -0.8459004139     0.0274036975     0.1053575599
    2      C      -2.3014371111     0.0690530884    -0.2180220699
    3      O      -3.0459823405     0.0870730091     1.0133565176
    4      C      -0.0691917048    -1.1277357420    -0.1454878271
    5      C       1.2482795821    -1.1817184149     0.1753518810
    6      C       1.9629601026    -0.0400161025     0.8220297296
    7      O       3.1110329962     0.3699296626     0.0390053045
    8      C       1.0958518069     1.1579448931     1.0155355892
    9      C      -0.2145904720     1.1636298001     0.6839271185
   10      H      -2.5816908607    -0.8025009717    -0.8114413304
   11      H      -2.5359368077     0.9688900405    -0.7923834012
   12      H      -3.9702529874     0.2441392798     0.7921559915
   13      H      -0.5468646916    -1.9822552710    -0.6096742598
   14      H       1.8317465859    -2.0719213789    -0.0237687694
   15      H       2.3435893641    -0.3645158988     1.8006060655
   16      H       3.7655398412    -0.3359262710     0.0911603945
   17      H       1.5648633890     2.0343051943     1.4438898160
   18      H      -0.8078869783     2.0550134853     0.8502013899
 ----------------------------------------------------------------
 Nuclear Repulsion Energy =         429.61510238 hartrees
 There are       34 alpha and       33 beta electrons
 Discretize the solute cavity surface with Lebedev spheres
	Using 110 Lebedev grid points for each H atom
	Using 194 Lebedev grid points for other atoms
	Atomic van der Waals radii will be scaled by 1.20
 Remove points where switching function is < 1.0e-08
 Keep 1334 surface tesserae and discard 1402 interior tesserae
 Molecular Surface Area = 155.772 Angst**2
 Requested basis set is 6-311++G(2df,2p)
 There are 126 shells and 396 basis functions
 A cutoff of  1.0D-12 yielded   7080 shell pairs
 There are     70563 function pairs (     87426 Cartesian)
 Smallest overlap matrix eigenvalue = 1.26E-06
 Guess MOs from SCF MO coefficient file

 -----------------------------------------------------------------------
  General SCF calculation program by
  Eric Jon Sundstrom, Paul Horn, Yuezhi Mao, Dmitri Zuev, Alec White,
  David Stuck, Shaama M.S., Shane Yost, Joonho Lee, David Small,
  Daniel Levine, Susi Lehtola, Hugh Burton, Evgeny Epifanovsky,
  Bang C. Huynh
 -----------------------------------------------------------------------
 Exchange:     0.1500 Hartree-Fock + 1.0000 wB97M-V + LR-HF
 Correlation:  1.0000 wB97M-V
 Using SG-2 standard quadrature grid
 Nonlocal Correlation:  VV10 with C = 0.0100 and b = 6.00 and scale = 1.00000
 Grid used for NLC:  SG-1 standard quadrature
 
 Citation of the SMD model:
 Marenich, A.V.; Cramer, C.J.; Truhlar, D.G.
 J. Phys. Chem. B 2009, 113, 6378-6396.
 iSolventCode=           1
 Solvent: water                                                           
 
 vradii
            1           2           3           4           5           6
    1   1.8500000   1.8500000   1.5200000   1.8500000   1.8500000   1.8500000
            7           8           9          10          11          12
    1   1.5200000   1.8500000   1.8500000   1.2000000   1.2000000   1.2000000
           13          14          15          16          17          18
    1   1.2000000   1.2000000   1.2000000   1.2000000   1.2000000   1.2000000
 -------------------------------------------------------
 OpenMP BLAS3 based DFT computing Module                
 Release: version 1.0, May 2013, Q-Chem Inc. Pittsburgh 
 -------------------------------------------------------
 A unrestricted SCF calculation will be
 performed using Roothaan-Hall, DIIS, GDM
 SCF converges when RMS gradient is below 1.0e-07
 ---------------------------------------
  Cycle       Energy         DIIS error
 ---------------------------------------
    1    -422.5005625065      2.13e-04  Roothaan Step
 ---------------------------------------
  Cycle       Energy         DIIS error
 ---------------------------------------
    1    -422.5260709530      2.42e-04  
    2    -422.5309466596      1.84e-04  Done DIIS. Switching to GDM
 ---------------------------------------
  Cycle       Energy        RMS Gradient
 ---------------------------------------
    1    -422.5309466596      5.37e-03   Normal BFGS step
    2    -422.5312282545      5.48e-03   Normal BFGS step
    3    -422.5329136973      8.15e-04   Normal BFGS step
    4    -422.5329330231      5.12e-04   Normal BFGS step
    5    -422.5329421974      1.78e-04   Normal BFGS step
    6    -422.5329425319      6.23e-05   Normal BFGS step
    7    -422.5329426026      4.95e-05   Normal BFGS step
    8    -422.5329426183      3.19e-05   Normal BFGS step
    9    -422.5329426225      7.97e-06   Normal BFGS step
   10    -422.5329426235      3.41e-06   Normal BFGS step
   11    -422.5329426237      2.94e-06   Normal BFGS step
   12    -422.5329426237      2.03e-06   Normal BFGS step
   13    -422.5329426237      9.80e-07   Normal BFGS step
   14    -422.5329426238      4.37e-07   Normal BFGS step
   15    -422.5329426238      2.29e-07   Normal BFGS step
   16    -422.5329426237      1.53e-07   Normal BFGS step
  GDM::WARNING energy changes are now smaller than effective accuracy.
  GDM::        calculation will continue, but THRESH should be increased
  GDM::        or SCF_CONVERGENCE decreased. 
  GDM::        effective_thresh = 4.40e-09
   17    -422.5329426237      5.93e-08  Convergence criterion met
 ---------------------------------------
 SCF time:   CPU 1788.41s  wall 226.00s 
<S^2> =          0.787644412
(3)  G-ENP(liq) elect-nuc-pol free energy of system     -422.532942624 a.u.
(4)  G-CDS(liq) cavity-dispersion-solvent structure 
     free energy                                                3.6262 kcal/mol
(6)  G-S(liq) free energy of system                     -422.527163975 a.u.
 SCF   energy in the final basis set =     -422.5271639750
 Total energy in the final basis set =     -422.5271639750
 
 --------------------------------------------------------------
 
                    Orbital Energies (a.u.)
 --------------------------------------------------------------
 
 Alpha MOs
 -- Occupied --
-19.3379 -19.3366 -10.3992 -10.3850 -10.3586 -10.3474 -10.3473 -10.3430
-10.3430  -1.1545  -1.1518  -0.9793  -0.8861  -0.8772  -0.7969  -0.7232
 -0.7121  -0.6284  -0.6264  -0.6198  -0.5848  -0.5745  -0.5313  -0.5245
 -0.5197  -0.4902  -0.4835  -0.4543  -0.4411  -0.4253  -0.3970  -0.3886
 -0.3648  -0.2676
 -- Virtual --
  0.0245   0.0324   0.0371   0.0513   0.0536   0.0567   0.0629   0.0643
  0.0778   0.0891   0.1020   0.1101   0.1181   0.1263   0.1320   0.1419
  0.1461   0.1530   0.1587   0.1607   0.1620   0.1636   0.1700   0.1756
  0.1835   0.1864   0.1906   0.1989   0.2036   0.2078   0.2112   0.2184
  0.2314   0.2434   0.2488   0.2548   0.2609   0.2689   0.2716   0.2759
  0.2855   0.2917   0.3016   0.3153   0.3183   0.3219   0.3302   0.3334
  0.3415   0.3512   0.3603   0.3632   0.3676   0.3768   0.3983   0.4029
  0.4157   0.4205   0.4282   0.4311   0.4485   0.4585   0.4650   0.5398
  0.5502   0.5666   0.5810   0.5838   0.5899   0.5947   0.6007   0.6047
  0.6136   0.6252   0.6294   0.6331   0.6501   0.6577   0.6744   0.6844
  0.6891   0.6999   0.7048   0.7077   0.7246   0.7259   0.7346   0.7414
  0.7503   0.7536   0.7673   0.7685   0.7861   0.8099   0.8104   0.8177
  0.8324   0.8446   0.8484   0.8615   0.8808   0.8917   0.9105   0.9236
  0.9379   0.9592   0.9743   0.9879   1.0235   1.0295   1.0342   1.0627
  1.0787   1.0961   1.1062   1.1161   1.1302   1.1367   1.1457   1.1517
  1.1677   1.2032   1.2134   1.2248   1.2306   1.2409   1.2527   1.2638
  1.2721   1.2891   1.3156   1.3333   1.3432   1.3489   1.3776   1.3837
  1.3906   1.3957   1.4060   1.4140   1.4274   1.4375   1.4444   1.4704
  1.4775   1.4840   1.5061   1.5209   1.5266   1.5379   1.5537   1.5649
  1.5697   1.5831   1.6074   1.6227   1.6384   1.6573   1.6990   1.7176
  1.7533   1.7610   1.8072   1.8321   1.8368   1.8564   1.8850   1.9422
  1.9597   1.9942   2.0280   2.0730   2.0777   2.1295   2.1476   2.1726
  2.2039   2.2845   2.3121   2.3590   2.4181   2.4399   2.5629   2.5678
  2.6181   2.6378   2.6700   2.6946   2.7374   2.7408   2.7820   2.8106
  2.8163   2.8208   2.8337   2.8412   2.8591   2.8683   2.8915   2.8973
  2.9214   2.9288   2.9382   2.9513   2.9551   2.9837   2.9938   3.0049
  3.0110   3.0382   3.0481   3.0763   3.1016   3.1181   3.1497   3.1608
  3.2054   3.2097   3.2357   3.2444   3.2692   3.2763   3.2896   3.3044
  3.3125   3.3284   3.3471   3.3513   3.3705   3.3723   3.3942   3.4326
  3.4425   3.4574   3.4583   3.4829   3.5053   3.5194   3.5461   3.5478
  3.5619   3.6032   3.6093   3.6208   3.6325   3.6363   3.6961   3.6987
  3.7219   3.7273   3.7439   3.7634   3.7721   3.7931   3.8107   3.8200
  3.8323   3.8483   3.8547   3.8717   3.8879   3.8998   3.9182   3.9324
  3.9649   3.9971   4.0028   4.0212   4.0269   4.0679   4.0851   4.1172
  4.1416   4.1498   4.1700   4.2018   4.2026   4.2181   4.2514   4.2872
  4.3033   4.3205   4.3420   4.3487   4.3600   4.3762   4.3992   4.4101
  4.4238   4.4381   4.4609   4.4783   4.5018   4.5198   4.5320   4.5601
  4.5971   4.6263   4.6345   4.6537   4.6878   4.7141   4.7383   4.7778
  4.8444   4.9088   5.0024   5.0266   5.0402   5.1533   5.1746   5.2367
  5.2636   5.2745   5.3081   5.3123   5.3314   5.3638   5.3842   5.4217
  5.4845   5.5067   5.5550   5.5711   5.6188   5.6340   5.6592   5.6745
  5.6777   5.6946   5.7978   5.8202   5.8660   5.9132   5.9396   5.9900
  5.9976   6.1335   6.4244   6.5594   6.5690   7.1045   7.1251   7.3141
  7.3160   7.3226   7.3364   7.3509   7.3878   7.6416   7.6488   7.7981
  7.8031  24.2716  24.6420  24.7714  24.8312  24.8979  25.1216  25.3871
 50.5930  50.6013
 
 Beta MOs
 -- Occupied --
-19.3364 -19.3357 -10.3998 -10.3855 -10.3508 -10.3456 -10.3454 -10.3425
-10.3417  -1.1511  -1.1499  -0.9723  -0.8766  -0.8719  -0.7954  -0.7180
 -0.7034  -0.6249  -0.6212  -0.6155  -0.5803  -0.5681  -0.5285  -0.5226
 -0.5158  -0.4861  -0.4789  -0.4427  -0.4302  -0.4163  -0.3906  -0.3860
 -0.3482
 -- Virtual --
 -0.0238   0.0248   0.0321   0.0369   0.0510   0.0542   0.0566   0.0633
  0.0772   0.0782   0.0894   0.1011   0.1100   0.1186   0.1294   0.1353
  0.1426   0.1461   0.1535   0.1591   0.1609   0.1624   0.1638   0.1734
  0.1766   0.1834   0.1864   0.1909   0.2001   0.2047   0.2084   0.2124
  0.2237   0.2310   0.2427   0.2492   0.2552   0.2601   0.2691   0.2724
  0.2768   0.2860   0.2921   0.3021   0.3170   0.3197   0.3241   0.3326
  0.3369   0.3431   0.3532   0.3617   0.3648   0.3703   0.3802   0.3983
  0.4056   0.4182   0.4216   0.4317   0.4331   0.4502   0.4601   0.4670
  0.5406   0.5516   0.5713   0.5837   0.5871   0.5925   0.5984   0.6016
  0.6093   0.6148   0.6289   0.6327   0.6352   0.6533   0.6597   0.6774
  0.6906   0.6924   0.7023   0.7081   0.7106   0.7281   0.7306   0.7396
  0.7438   0.7544   0.7569   0.7693   0.7707   0.7890   0.8121   0.8153
  0.8227   0.8349   0.8481   0.8525   0.8654   0.8840   0.8972   0.9122
  0.9260   0.9401   0.9607   0.9765   0.9897   1.0247   1.0315   1.0360
  1.0651   1.0804   1.0974   1.1077   1.1174   1.1312   1.1385   1.1468
  1.1537   1.1694   1.2055   1.2156   1.2253   1.2331   1.2421   1.2548
  1.2653   1.2740   1.2921   1.3185   1.3372   1.3463   1.3509   1.3797
  1.3873   1.3945   1.3978   1.4092   1.4174   1.4317   1.4419   1.4465
  1.4745   1.4812   1.4884   1.5092   1.5243   1.5309   1.5432   1.5565
  1.5660   1.5714   1.5852   1.6105   1.6250   1.6403   1.6597   1.7020
  1.7223   1.7595   1.7674   1.8109   1.8362   1.8409   1.8598   1.8891
  1.9462   1.9635   1.9967   2.0318   2.0773   2.0851   2.1332   2.1506
  2.1768   2.2071   2.2880   2.3137   2.3609   2.4194   2.4416   2.5706
  2.5787   2.6212   2.6442   2.6753   2.7038   2.7460   2.7481   2.7895
  2.8169   2.8208   2.8331   2.8425   2.8478   2.8728   2.8794   2.9002
  2.9064   2.9283   2.9366   2.9593   2.9667   2.9761   2.9950   3.0066
  3.0248   3.0284   3.0549   3.0599   3.0912   3.1144   3.1288   3.1553
  3.1651   3.2123   3.2195   3.2420   3.2556   3.2746   3.2825   3.3011
  3.3153   3.3183   3.3367   3.3553   3.3579   3.3797   3.3807   3.4029
  3.4447   3.4455   3.4671   3.4683   3.4858   3.5154   3.5257   3.5549
  3.5576   3.5714   3.6130   3.6195   3.6324   3.6409   3.6535   3.7026
  3.7056   3.7292   3.7366   3.7515   3.7674   3.7801   3.7991   3.8187
  3.8249   3.8351   3.8610   3.8616   3.8798   3.8964   3.9108   3.9276
  3.9399   3.9733   4.0040   4.0102   4.0287   4.0353   4.0754   4.0938
  4.1261   4.1492   4.1571   4.1760   4.2054   4.2086   4.2252   4.2624
  4.2937   4.3086   4.3266   4.3490   4.3549   4.3651   4.3869   4.4087
  4.4190   4.4290   4.4452   4.4695   4.4893   4.5147   4.5321   4.5449
  4.5692   4.6050   4.6377   4.6463   4.6677   4.7008   4.7232   4.7460
  4.7872   4.8574   4.9225   5.0145   5.0364   5.0516   5.1656   5.1868
  5.2445   5.2655   5.2802   5.3117   5.3160   5.3328   5.3674   5.3867
  5.4287   5.4887   5.5113   5.5636   5.5772   5.6223   5.6466   5.6637
  5.6762   5.6870   5.6974   5.8083   5.8268   5.8692   5.9162   5.9462
  5.9949   6.0019   6.1403   6.4339   6.5637   6.5718   7.1059   7.1276
  7.3166   7.3188   7.3243   7.3406   7.3532   7.3924   7.6441   7.6518
  7.8009   7.8081  24.2731  24.6440  24.7719  24.8318  24.9028  25.1228
 25.3897  50.5938  50.6026
 --------------------------------------------------------------
 
          Ground-State Mulliken Net Atomic Charges

     Atom                 Charge (a.u.)    Spin (a.u.)
  --------------------------------------------------------
      1 C                     0.805023       0.429463
      2 C                    -0.663192       0.021411
      3 O                    -0.410590       0.006207
      4 C                    -0.776004      -0.112135
      5 C                     0.045055       0.349631
      6 C                    -0.834027       0.028840
      7 O                    -0.409141       0.017890
      8 C                     0.176079       0.308148
      9 C                    -0.344859      -0.109954
     10 H                     0.202110      -0.000516
     11 H                     0.200703       0.014463
     12 H                     0.318955       0.008401
     13 H                     0.271002       0.006902
     14 H                     0.311658      -0.011114
     15 H                     0.179462       0.043960
     16 H                     0.327119       0.002554
     17 H                     0.308095      -0.009032
     18 H                     0.292552       0.004880
  --------------------------------------------------------
  Sum of atomic charges =    -0.000000
  Sum of spin   charges =     1.000000

 -----------------------------------------------------------------
                    Cartesian Multipole Moments
 -----------------------------------------------------------------
    Charge (ESU x 10^10)
                 0.0000
    Dipole Moment (Debye)
         X      -1.1426      Y      -1.7508      Z      -0.8488
       Tot       2.2563
    Quadrupole Moments (Debye-Ang)
        XX     -40.8609     XY      -9.5851     YY     -51.0308
        XZ      10.2463     YZ       2.2763     ZZ     -58.2927
    Octopole Moments (Debye-Ang^2)
       XXX     -46.9589    XXY     -22.8830    XYY      -4.5807
       YYY      -9.2538    XXZ     -20.6686    XYZ      -0.8818
       YYZ     -20.4875    XZZ       5.4983    YZZ      -1.8708
       ZZZ     -66.2418
    Hexadecapole Moments (Debye-Ang^3)
      XXXX    -917.9762   XXXY    -122.4275   XXYY    -264.2404
      XYYY      -6.2479   YYYY    -292.6646   XXXZ      16.2977
      XXYZ      -9.5052   XYYZ       3.2904   YYYZ     -26.8215
      XXZZ    -265.6330   XYZZ       1.8811   YYZZ     -86.0587
      XZZZ       7.0630   YZZZ     -45.2382   ZZZZ    -217.7750
 -----------------------------------------------------------------
 Calculating analytic gradient of the SCF energy
 Gradient of CDS energy
            1           2           3           4           5           6
    1  -0.0001311  -0.0005887   0.0002918  -0.0001964   0.0002251   0.0003153
    2   0.0000335  -0.0002145   0.0000384  -0.0001983  -0.0003175   0.0000920
    3   0.0001925  -0.0006583  -0.0000473  -0.0001465  -0.0000496   0.0000052
            7           8           9          10          11          12
    1  -0.0002514   0.0001741  -0.0001937   0.0001613   0.0001052  -0.0004464
    2   0.0000238   0.0002948   0.0002175  -0.0001818   0.0002494   0.0000765
    3   0.0001008   0.0001581  -0.0000065   0.0000411   0.0001013   0.0002770
           13          14          15          16          17          18
    1  -0.0001339   0.0000914   0.0000777   0.0004969   0.0001441  -0.0001415
    2  -0.0001166  -0.0001485  -0.0000549  -0.0000731   0.0001526   0.0001266
    3  -0.0000860  -0.0000316   0.0001829  -0.0001130   0.0000627   0.0000170
 Gradient of SCF Energy
            1           2           3           4           5           6
    1  -0.0020277   0.0067125   0.0127578   0.0009367  -0.0015126  -0.0041610
    2   0.0033648   0.0000344  -0.0027336   0.0043032   0.0026039   0.0058816
    3  -0.0001572   0.0094506   0.0083647   0.0021097   0.0023527  -0.0058048
            7           8           9          10          11          12
    1  -0.0061146  -0.0032384   0.0019233  -0.0017316  -0.0022063  -0.0119110
    2   0.0130383  -0.0031140  -0.0037506  -0.0042374   0.0043388   0.0023713
    3  -0.0044439   0.0003215  -0.0022110  -0.0041524  -0.0034923  -0.0063584
           13          14          15          16          17          18
    1  -0.0025153   0.0047646   0.0025250   0.0068065  -0.0003681  -0.0006399
    2  -0.0038785  -0.0054356  -0.0022440  -0.0113424  -0.0001269   0.0009268
    3  -0.0024280  -0.0005389   0.0037079   0.0031671   0.0008578  -0.0007448
 Max gradient component =       1.304E-02
 RMS gradient           =       4.979E-03
 Computing fast CPCM-SWIG gradient
 Updating gradient with PCM contributions...
 -- total gradient after adding PCM contribution --
---------------------------------------------------
  Atom         X              Y              Z     
---------------------------------------------------
   1      -0.001182      -0.000007      -0.000196
   2       0.000418      -0.000001       0.000026
   3       0.000020      -0.000029      -0.000053
   4       0.000211      -0.000150      -0.000008
   5       0.000138      -0.000076       0.000012
   6       0.000056       0.000044      -0.000072
   7      -0.000014      -0.000067       0.000078
   8       0.000056       0.000078       0.000037
   9       0.000263       0.000136       0.000114
  10       0.000037      -0.000005       0.000011
  11       0.000020      -0.000008      -0.000001
  12       0.000048       0.000025      -0.000023
  13      -0.000010       0.000019       0.000008
  14       0.000023       0.000016       0.000012
  15      -0.000036      -0.000013       0.000052
  16      -0.000026       0.000046       0.000034
  17       0.000006       0.000005      -0.000005
  18      -0.000029      -0.000015      -0.000026
---------------------------------------------------
 Number of fixed atoms: 0
 Gradient time:  CPU 278.15 s  wall 40.60 s
 ----------------------------------------------------------------
             Standard Nuclear Orientation (Angstroms)
    I     Atom           X                Y                Z
 ----------------------------------------------------------------
    1      C      -0.8449004139     0.0284036975     0.1053575599
    2      C      -2.3014371111     0.0690530884    -0.2180220699
    3      O      -3.0459823405     0.0870730091     1.0133565176
    4      C      -0.0691917048    -1.1277357420    -0.1454878271
    5      C       1.2482795821    -1.1817184149     0.1753518810
    6      C       1.9629601026    -0.0400161025     0.8220297296
    7      O       3.1110329962     0.3699296626     0.0390053045
    8      C       1.0958518069     1.1579448931     1.0155355892
    9      C      -0.2145904720     1.1636298001     0.6839271185
   10      H      -2.5816908607    -0.8025009717    -0.8114413304
   11      H      -2.5359368077     0.9688900405    -0.7923834012
   12      H      -3.9702529874     0.2441392798     0.7921559915
   13      H      -0.5468646916    -1.9822552710    -0.6096742598
   14      H       1.8317465859    -2.0719213789    -0.0237687694
   15      H       2.3435893641    -0.3645158988     1.8006060655
   16      H       3.7655398412    -0.3359262710     0.0911603945
   17      H       1.5648633890     2.0343051943     1.4438898160
   18      H      -0.8078869783     2.0550134853     0.8502013899
 ----------------------------------------------------------------
 Nuclear Repulsion Energy =         429.62075309 hartrees
 There are       34 alpha and       33 beta electrons
 Discretize the solute cavity surface with Lebedev spheres
	Using 110 Lebedev grid points for each H atom
	Using 194 Lebedev grid points for other atoms
	Atomic van der Waals radii will be scaled by 1.20
 Remove points where switching function is < 1.0e-08
 Keep 1334 surface tesserae and discard 1402 interior tesserae
 Molecular Surface Area = 155.773 Angst**2
 Requested basis set is 6-311++G(2df,2p)
 There are 126 shells and 396 basis functions
 A cutoff of  1.0D-12 yielded   7080 shell pairs
 There are     70563 function pairs (     87426 Cartesian)
 Smallest overlap matrix eigenvalue = 1.26E-06
 Guess MOs from SCF MO coefficient file

 -----------------------------------------------------------------------
  General SCF calculation program by
  Eric Jon Sundstrom, Paul Horn, Yuezhi Mao, Dmitri Zuev, Alec White,
  David Stuck, Shaama M.S., Shane Yost, Joonho Lee, David Small,
  Daniel Levine, Susi Lehtola, Hugh Burton, Evgeny Epifanovsky,
  Bang C. Huynh
 -----------------------------------------------------------------------
 Exchange:     0.1500 Hartree-Fock + 1.0000 wB97M-V + LR-HF
 Correlation:  1.0000 wB97M-V
 Using SG-2 standard quadrature grid
 Nonlocal Correlation:  VV10 with C = 0.0100 and b = 6.00 and scale = 1.00000
 Grid used for NLC:  SG-1 standard quadrature
 
 Citation of the SMD model:
 Marenich, A.V.; Cramer, C.J.; Truhlar, D.G.
 J. Phys. Chem. B 2009, 113, 6378-6396.
 iSolventCode=           1
 Solvent: water                                                           
 
 vradii
            1           2           3           4           5           6
    1   1.8500000   1.8500000   1.5200000   1.8500000   1.8500000   1.8500000
            7           8           9          10          11          12
    1   1.5200000   1.8500000   1.8500000   1.2000000   1.2000000   1.2000000
           13          14          15          16          17          18
    1   1.2000000   1.2000000   1.2000000   1.2000000   1.2000000   1.2000000
 -------------------------------------------------------
 OpenMP BLAS3 based DFT computing Module                
 Release: version 1.0, May 2013, Q-Chem Inc. Pittsburgh 
 -------------------------------------------------------
 A unrestricted SCF calculation will be
 performed using Roothaan-Hall, DIIS, GDM
 SCF converges when RMS gradient is below 1.0e-07
 ---------------------------------------
  Cycle       Energy         DIIS error
 ---------------------------------------
    1    -422.5005655243      2.13e-04  Roothaan Step
 ---------------------------------------
  Cycle       Energy         DIIS error
 ---------------------------------------
    1    -422.5260855076      2.42e-04  
    2    -422.5309588343      1.84e-04  Done DIIS. Switching to GDM
 ---------------------------------------
  Cycle       Energy        RMS Gradient
 ---------------------------------------
    1    -422.5309588343      5.38e-03   Normal BFGS step
    2    -422.5312399610      5.47e-03   Normal BFGS step
    3    -422.5329140254      8.67e-04   Normal BFGS step
    4    -422.5329333268      5.09e-04   Normal BFGS step
    5    -422.5329424438      2.08e-04   Normal BFGS step
    6    -422.5329427744      7.46e-05   Normal BFGS step
    7    -422.5329428430      5.84e-05   Normal BFGS step
    8    -422.5329428578      3.56e-05   Normal BFGS step
    9    -422.5329428614      6.17e-06   Normal BFGS step
   10    -422.5329428622      2.77e-06   Normal BFGS step
   11    -422.5329428623      2.27e-06   Normal BFGS step
   12    -422.5329428623      1.77e-06   Normal BFGS step
   13    -422.5329428624      1.00e-06   Normal BFGS step
   14    -422.5329428624      5.44e-07   Normal BFGS step
   15    -422.5329428624      1.85e-07   Normal BFGS step
   16    -422.5329428623      7.75e-08  Convergence criterion met
 ---------------------------------------
 SCF time:   CPU 1720.25s  wall 217.00s 
<S^2> =          0.787668282
(3)  G-ENP(liq) elect-nuc-pol free energy of system     -422.532942862 a.u.
(4)  G-CDS(liq) cavity-dispersion-solvent structure 
     free energy                                                3.6260 kcal/mol
(6)  G-S(liq) free energy of system                     -422.527164396 a.u.
 SCF   energy in the final basis set =     -422.5271643961
 Total energy in the final basis set =     -422.5271643961
 
 --------------------------------------------------------------
 
                    Orbital Energies (a.u.)
 --------------------------------------------------------------
 
 Alpha MOs
 -- Occupied --
-19.3379 -19.3366 -10.3992 -10.3851 -10.3586 -10.3474 -10.3473 -10.3430
-10.3429  -1.1545  -1.1518  -0.9794  -0.8860  -0.8773  -0.7969  -0.7232
 -0.7122  -0.6284  -0.6263  -0.6198  -0.5848  -0.5745  -0.5314  -0.5245
 -0.5197  -0.4901  -0.4836  -0.4543  -0.4411  -0.4253  -0.3970  -0.3886
 -0.3648  -0.2675
 -- Virtual --
  0.0245   0.0324   0.0371   0.0512   0.0536   0.0567   0.0629   0.0643
  0.0778   0.0891   0.1020   0.1101   0.1181   0.1263   0.1320   0.1418
  0.1461   0.1530   0.1587   0.1607   0.1620   0.1636   0.1700   0.1756
  0.1835   0.1864   0.1906   0.1989   0.2036   0.2078   0.2111   0.2184
  0.2314   0.2434   0.2487   0.2547   0.2609   0.2689   0.2717   0.2759
  0.2854   0.2917   0.3016   0.3154   0.3183   0.3219   0.3302   0.3333
  0.3415   0.3512   0.3603   0.3632   0.3676   0.3768   0.3983   0.4029
  0.4157   0.4205   0.4281   0.4311   0.4485   0.4585   0.4651   0.5397
  0.5502   0.5665   0.5811   0.5839   0.5899   0.5947   0.6008   0.6046
  0.6136   0.6252   0.6294   0.6331   0.6502   0.6577   0.6744   0.6843
  0.6891   0.6999   0.7048   0.7077   0.7247   0.7258   0.7346   0.7414
  0.7503   0.7537   0.7673   0.7685   0.7861   0.8099   0.8104   0.8177
  0.8324   0.8446   0.8484   0.8615   0.8808   0.8918   0.9106   0.9235
  0.9378   0.9592   0.9744   0.9879   1.0233   1.0295   1.0342   1.0627
  1.0788   1.0960   1.1062   1.1162   1.1301   1.1367   1.1458   1.1517
  1.1676   1.2032   1.2134   1.2248   1.2307   1.2409   1.2528   1.2639
  1.2722   1.2891   1.3156   1.3333   1.3433   1.3489   1.3776   1.3837
  1.3905   1.3956   1.4061   1.4139   1.4273   1.4375   1.4443   1.4702
  1.4775   1.4841   1.5061   1.5209   1.5267   1.5380   1.5538   1.5650
  1.5697   1.5832   1.6074   1.6227   1.6385   1.6574   1.6989   1.7176
  1.7533   1.7612   1.8071   1.8321   1.8368   1.8563   1.8849   1.9422
  1.9597   1.9941   2.0280   2.0731   2.0778   2.1295   2.1474   2.1726
  2.2041   2.2842   2.3120   2.3590   2.4180   2.4400   2.5630   2.5678
  2.6181   2.6378   2.6700   2.6944   2.7375   2.7408   2.7821   2.8105
  2.8163   2.8209   2.8337   2.8412   2.8590   2.8682   2.8915   2.8973
  2.9213   2.9287   2.9383   2.9514   2.9549   2.9835   2.9937   3.0049
  3.0108   3.0383   3.0481   3.0763   3.1018   3.1182   3.1497   3.1608
  3.2055   3.2098   3.2358   3.2445   3.2690   3.2763   3.2896   3.3044
  3.3125   3.3288   3.3471   3.3510   3.3706   3.3722   3.3939   3.4329
  3.4428   3.4576   3.4583   3.4829   3.5053   3.5194   3.5461   3.5479
  3.5620   3.6032   3.6093   3.6208   3.6326   3.6363   3.6961   3.6988
  3.7217   3.7274   3.7438   3.7633   3.7723   3.7933   3.8107   3.8199
  3.8323   3.8483   3.8549   3.8719   3.8877   3.8999   3.9182   3.9321
  3.9647   3.9973   4.0028   4.0215   4.0268   4.0679   4.0852   4.1172
  4.1419   4.1498   4.1699   4.2016   4.2026   4.2181   4.2513   4.2872
  4.3032   4.3207   4.3421   4.3488   4.3602   4.3761   4.3989   4.4100
  4.4239   4.4379   4.4609   4.4786   4.5023   4.5196   4.5322   4.5602
  4.5970   4.6263   4.6344   4.6534   4.6876   4.7144   4.7384   4.7779
  4.8448   4.9087   5.0023   5.0270   5.0402   5.1532   5.1751   5.2368
  5.2636   5.2746   5.3081   5.3123   5.3313   5.3638   5.3842   5.4216
  5.4846   5.5067   5.5552   5.5711   5.6187   5.6340   5.6593   5.6744
  5.6777   5.6946   5.7975   5.8203   5.8661   5.9133   5.9395   5.9899
  5.9976   6.1339   6.4253   6.5594   6.5688   7.1045   7.1251   7.3140
  7.3160   7.3226   7.3364   7.3508   7.3878   7.6415   7.6488   7.7981
  7.8031  24.2712  24.6424  24.7715  24.8301  24.8982  25.1218  25.3883
 50.5929  50.6013
 
 Beta MOs
 -- Occupied --
-19.3364 -19.3357 -10.3998 -10.3855 -10.3508 -10.3456 -10.3454 -10.3425
-10.3417  -1.1511  -1.1499  -0.9723  -0.8765  -0.8719  -0.7953  -0.7180
 -0.7035  -0.6249  -0.6212  -0.6154  -0.5803  -0.5681  -0.5285  -0.5226
 -0.5158  -0.4860  -0.4790  -0.4426  -0.4303  -0.4164  -0.3906  -0.3860
 -0.3482
 -- Virtual --
 -0.0238   0.0248   0.0321   0.0369   0.0510   0.0542   0.0566   0.0633
  0.0771   0.0782   0.0894   0.1011   0.1100   0.1186   0.1294   0.1353
  0.1426   0.1461   0.1535   0.1591   0.1609   0.1624   0.1638   0.1734
  0.1766   0.1834   0.1864   0.1909   0.2001   0.2047   0.2084   0.2124
  0.2237   0.2310   0.2427   0.2491   0.2551   0.2601   0.2691   0.2725
  0.2768   0.2860   0.2921   0.3021   0.3170   0.3198   0.3241   0.3326
  0.3369   0.3431   0.3532   0.3617   0.3648   0.3703   0.3802   0.3983
  0.4056   0.4183   0.4216   0.4316   0.4331   0.4501   0.4602   0.4671
  0.5405   0.5516   0.5713   0.5838   0.5872   0.5925   0.5984   0.6016
  0.6092   0.6148   0.6289   0.6327   0.6352   0.6533   0.6597   0.6775
  0.6906   0.6924   0.7023   0.7081   0.7106   0.7281   0.7306   0.7396
  0.7437   0.7544   0.7570   0.7693   0.7707   0.7890   0.8121   0.8154
  0.8227   0.8349   0.8481   0.8525   0.8654   0.8840   0.8973   0.9123
  0.9260   0.9401   0.9607   0.9765   0.9897   1.0246   1.0315   1.0360
  1.0651   1.0804   1.0974   1.1077   1.1174   1.1312   1.1385   1.1469
  1.1537   1.1693   1.2055   1.2156   1.2253   1.2331   1.2421   1.2548
  1.2654   1.2741   1.2921   1.3185   1.3372   1.3464   1.3509   1.3797
  1.3873   1.3945   1.3978   1.4093   1.4174   1.4316   1.4419   1.4464
  1.4744   1.4812   1.4885   1.5092   1.5243   1.5310   1.5432   1.5566
  1.5660   1.5714   1.5852   1.6104   1.6250   1.6404   1.6598   1.7019
  1.7223   1.7595   1.7676   1.8109   1.8361   1.8409   1.8598   1.8890
  1.9461   1.9634   1.9967   2.0318   2.0773   2.0852   2.1331   2.1504
  2.1768   2.2073   2.2876   2.3136   2.3608   2.4193   2.4416   2.5707
  2.5787   2.6211   2.6442   2.6753   2.7036   2.7461   2.7480   2.7896
  2.8168   2.8207   2.8331   2.8425   2.8478   2.8727   2.8793   2.9002
  2.9064   2.9282   2.9364   2.9593   2.9667   2.9761   2.9948   3.0064
  3.0246   3.0284   3.0550   3.0599   3.0912   3.1145   3.1289   3.1553
  3.1650   3.2123   3.2196   3.2423   3.2557   3.2745   3.2824   3.3011
  3.3154   3.3182   3.3370   3.3552   3.3576   3.3796   3.3808   3.4026
  3.4449   3.4459   3.4671   3.4684   3.4858   3.5153   3.5257   3.5550
  3.5577   3.5715   3.6129   3.6195   3.6323   3.6409   3.6536   3.7026
  3.7057   3.7290   3.7367   3.7514   3.7673   3.7802   3.7992   3.8186
  3.8249   3.8351   3.8610   3.8618   3.8801   3.8960   3.9110   3.9276
  3.9397   3.9731   4.0042   4.0103   4.0289   4.0354   4.0755   4.0939
  4.1261   4.1494   4.1571   4.1759   4.2055   4.2084   4.2251   4.2622
  4.2936   4.3084   4.3268   4.3490   4.3551   4.3652   4.3869   4.4084
  4.4188   4.4291   4.4451   4.4696   4.4896   4.5151   4.5317   4.5452
  4.5693   4.6049   4.6377   4.6460   4.6674   4.7007   4.7235   4.7461
  4.7874   4.8578   4.9224   5.0144   5.0368   5.0515   5.1655   5.1873
  5.2447   5.2655   5.2803   5.3117   5.3160   5.3327   5.3674   5.3867
  5.4286   5.4887   5.5113   5.5637   5.5773   5.6221   5.6466   5.6638
[...]
 C          0.066 -0.058 -0.062   -0.013  0.059  0.017    0.047 -0.070 -0.081
 C         -0.274 -0.019  0.125    0.304  0.059 -0.141    0.048  0.155  0.053
 O          0.115  0.060 -0.101   -0.134 -0.067  0.113   -0.016  0.000 -0.001
 C          0.034  0.020 -0.005   -0.012 -0.033 -0.031   -0.032 -0.112  0.005
 C          0.063 -0.099  0.023   -0.086  0.127  0.080    0.055  0.019  0.010
 H         -0.246  0.102  0.150   -0.013 -0.006  0.205   -0.078  0.046 -0.116
 H         -0.019  0.028  0.348   -0.126 -0.042  0.089    0.102  0.046  0.083
 H          0.132 -0.011 -0.175    0.084  0.004 -0.128   -0.002 -0.003 -0.017
 H          0.006  0.220 -0.198    0.227 -0.146 -0.385   -0.350  0.146 -0.057
 H          0.119 -0.065  0.146   -0.020  0.008  0.178    0.025 -0.131  0.090
 H         -0.159  0.124  0.115    0.175 -0.009 -0.101    0.053  0.609  0.202
 H         -0.099 -0.132  0.126    0.059  0.107 -0.098   -0.220 -0.176  0.183
 H          0.122 -0.062  0.052   -0.107 -0.081  0.191   -0.076 -0.023 -0.137
 H          0.163 -0.011 -0.112    0.130  0.354 -0.303    0.330  0.169  0.159
 TransDip  -0.487 -0.041  0.350    0.224  0.102 -0.039    0.019  0.097  0.038

 Mode:                25                     26                     27
 Frequency:      1152.34                1173.05                1199.01
 Force Cnst:      0.8397                 0.9842                 0.9719
 Red. Mass:       1.0733                 1.2140                 1.1474
 IR Active:          YES                    YES                    YES
 IR Intens:        0.829                 11.483                172.306
 Raman Active:       YES                    YES                    YES
               X      Y      Z        X      Y      Z        X      Y      Z
 C          0.000  0.038  0.012   -0.095  0.006 -0.009    0.058  0.032  0.008
 C         -0.003 -0.024 -0.005    0.037  0.001 -0.004   -0.018 -0.016  0.011
 O         -0.000  0.007  0.001    0.010 -0.000  0.024   -0.014  0.005 -0.025
 C         -0.018 -0.010 -0.009    0.044 -0.016  0.002    0.029 -0.018  0.004
 C          0.025 -0.012  0.024   -0.023 -0.028 -0.010   -0.034  0.001 -0.004
 C         -0.007 -0.013 -0.008   -0.030 -0.003  0.004   -0.000  0.010  0.023
 O          0.000 -0.006  0.003    0.010  0.008 -0.012   -0.005  0.033 -0.001
 C         -0.020  0.000 -0.024   -0.020  0.023  0.005    0.008 -0.007 -0.041
 C          0.017 -0.015 -0.001    0.037  0.009  0.009   -0.009  0.000  0.004
 H         -0.008  0.025 -0.075    0.050 -0.005  0.002    0.049  0.014 -0.065
 H          0.015  0.023  0.062   -0.060  0.010  0.052    0.157  0.007 -0.027
 H         -0.004 -0.002  0.011    0.087  0.016 -0.301   -0.114 -0.019  0.399
 H         -0.298  0.156 -0.033    0.465 -0.265  0.025    0.099 -0.050 -0.005
 H          0.483  0.245  0.203   -0.261 -0.152 -0.148   -0.182 -0.074 -0.099
 H          0.010 -0.407 -0.145   -0.076 -0.059 -0.001    0.440 -0.237 -0.238
 H          0.071  0.055 -0.059   -0.024 -0.021  0.029   -0.398 -0.311  0.365
 H         -0.452  0.225 -0.019   -0.345  0.213 -0.030   -0.158  0.045  0.028
 H          0.237  0.106  0.116    0.440  0.238  0.218   -0.012 -0.005  0.012
 TransDip   0.019  0.008 -0.020    0.056 -0.019 -0.091   -0.328 -0.116  0.235

 Mode:                28                     29                     30
 Frequency:      1205.41                1230.89                1261.62
 Force Cnst:      0.9925                 1.4230                 1.6815
 Red. Mass:       1.1593                 1.5940                 1.7930
 IR Active:          YES                    YES                    YES
 IR Intens:       33.191                  2.498                  7.387
 Raman Active:       YES                    YES                    YES
               X      Y      Z        X      Y      Z        X      Y      Z
 C          0.070 -0.001 -0.011   -0.022 -0.141 -0.067    0.214 -0.044  0.064
 C         -0.015 -0.001  0.025    0.019  0.094  0.010   -0.071  0.012 -0.036
 O         -0.022 -0.001 -0.040   -0.004 -0.051  0.006    0.013 -0.005 -0.005
 C          0.012 -0.003  0.007   -0.041  0.062  0.015    0.036 -0.003  0.005
 C         -0.025  0.017  0.001    0.050  0.007  0.019   -0.039  0.052  0.013
 C         -0.009 -0.006 -0.014   -0.005 -0.028 -0.009   -0.006 -0.005 -0.003
 O          0.007 -0.020 -0.003   -0.002  0.005  0.003    0.003  0.001 -0.004
 C         -0.040 -0.016  0.013   -0.032  0.027 -0.010   -0.042 -0.044 -0.023
 C          0.030  0.003  0.011    0.023  0.053  0.028    0.040  0.027  0.016
 H          0.051 -0.007  0.003   -0.381 -0.103  0.504   -0.492  0.035  0.121
 H          0.302 -0.016 -0.133    0.401 -0.105 -0.469   -0.499 -0.020  0.086
 H         -0.178 -0.030  0.623    0.023  0.003 -0.075    0.088  0.012 -0.318
 H          0.084 -0.030 -0.010   -0.125  0.118  0.000   -0.162  0.114  0.015
 H         -0.159 -0.051 -0.068    0.008 -0.014 -0.009   -0.325 -0.093 -0.134
 H         -0.330  0.146  0.163    0.144 -0.090 -0.090   -0.076 -0.013  0.020
 H          0.258  0.201 -0.233   -0.084 -0.067  0.078    0.009  0.006 -0.006
 H         -0.215  0.115 -0.069    0.027 -0.012  0.012   -0.328  0.117 -0.055
 H          0.155  0.077  0.038    0.163  0.136  0.101   -0.038 -0.029 -0.013
 TransDip   0.021  0.079  0.166   -0.043  0.008 -0.025   -0.041 -0.001 -0.077

 Mode:                31                     32                     33
 Frequency:      1311.79                1329.85                1367.65
 Force Cnst:      1.8133                 1.3060                 1.5590
 Red. Mass:       1.7885                 1.2534                 1.4147
 IR Active:          YES                    YES                    YES
 IR Intens:        5.734                 26.668                 11.131
 Raman Active:       YES                    YES                    YES
               X      Y      Z        X      Y      Z        X      Y      Z
 C         -0.010  0.179  0.058    0.013  0.046  0.019    0.008  0.019  0.010
 C         -0.013 -0.015 -0.022   -0.011 -0.008 -0.009   -0.003  0.001 -0.001
 O          0.009 -0.031  0.018    0.002 -0.005  0.006    0.000 -0.000  0.001
 C          0.058 -0.056 -0.008   -0.020  0.007  0.000    0.088 -0.049  0.003
 C         -0.072 -0.037 -0.026   -0.014  0.013 -0.029   -0.022  0.018 -0.002
 C          0.021  0.070  0.027   -0.067 -0.088 -0.038   -0.062  0.076  0.019
 O          0.001  0.004 -0.013   -0.002 -0.020  0.042   -0.000 -0.040  0.032
 C          0.073 -0.039  0.008    0.004  0.007  0.008   -0.012  0.035 -0.000
 C         -0.050 -0.050 -0.028    0.028 -0.006  0.005   -0.068 -0.067 -0.040
 H         -0.594  0.011  0.240   -0.121  0.005  0.031   -0.016  0.005 -0.002
 H          0.518 -0.008 -0.252    0.092  0.003 -0.039    0.003 -0.000 -0.004
 H          0.064  0.017 -0.197    0.018  0.003 -0.060    0.003  0.003 -0.007
 H          0.106 -0.084 -0.005    0.195 -0.119  0.017   -0.302  0.173 -0.000
 H          0.074  0.044  0.026    0.168  0.102  0.128   -0.242 -0.098 -0.106
 H         -0.249 -0.109  0.077    0.611  0.572 -0.095    0.406 -0.073 -0.222
 H          0.002  0.005 -0.003    0.143  0.107 -0.134    0.274  0.204 -0.253
 H         -0.019  0.015 -0.002   -0.213  0.135 -0.025    0.327 -0.170  0.044
 H         -0.141 -0.100 -0.080   -0.090 -0.076 -0.053    0.395  0.198  0.173
 TransDip   0.004  0.033 -0.069   -0.124  0.058 -0.093    0.004  0.067 -0.084

 Mode:                34                     35                     36
 Frequency:      1433.21                1443.96                1483.18
 Force Cnst:      2.4153                 1.8319                 2.5311
 Red. Mass:       1.9957                 1.4912                 1.9529
 IR Active:          YES                    YES                    YES
 IR Intens:       21.234                 53.644                  2.753
 Raman Active:       YES                    YES                    YES
               X      Y      Z        X      Y      Z        X      Y      Z
 C          0.027 -0.035 -0.002   -0.017  0.015  0.013    0.156 -0.009  0.032
 C          0.051 -0.002 -0.009    0.142 -0.010 -0.017   -0.098  0.004  0.015
 O         -0.010  0.002 -0.022   -0.021  0.004 -0.052    0.009 -0.002  0.029
 C         -0.090  0.096  0.014    0.002  0.011  0.003   -0.053  0.073  0.016
 C         -0.006 -0.107 -0.039   -0.033 -0.002 -0.013   -0.080 -0.042 -0.039
 C         -0.034  0.187  0.061    0.041 -0.069 -0.014    0.078 -0.032  0.004
 O         -0.000 -0.042  0.018   -0.000  0.018 -0.008   -0.001  0.011 -0.007
 C         -0.035 -0.061 -0.040   -0.004  0.055  0.020   -0.104  0.072 -0.001
 C          0.054  0.033  0.026   -0.054 -0.051 -0.033   -0.036 -0.075 -0.037
 H         -0.196 -0.006  0.125   -0.484 -0.006  0.301    0.125  0.121 -0.286
 H         -0.216  0.012  0.131   -0.409  0.034  0.298    0.092 -0.120 -0.276
 H         -0.051 -0.011  0.156   -0.116 -0.018  0.373    0.060  0.010 -0.201
 H          0.487 -0.234  0.033    0.060 -0.021  0.013    0.354 -0.146  0.028
 H          0.174 -0.013  0.032    0.157  0.099  0.096    0.308  0.165  0.159
 H          0.199 -0.370 -0.219   -0.059  0.141  0.098   -0.059  0.013  0.077
 H          0.251  0.184 -0.232   -0.117 -0.086  0.106   -0.090 -0.068  0.081
 H          0.065 -0.141 -0.007    0.159 -0.029  0.030    0.332 -0.175  0.031
 H         -0.163 -0.101 -0.077    0.239  0.117  0.108    0.383  0.155  0.153
 TransDip   0.143 -0.018 -0.034    0.198 -0.016  0.124    0.053 -0.001  0.000

 Mode:                37                     38                     39
 Frequency:      1499.46                1539.03                1631.95
 Force Cnst:      1.5289                 6.6536                 9.0437
 Red. Mass:       1.1541                 4.7677                 5.7635
 IR Active:          YES                    YES                    YES
 IR Intens:        2.702                  1.198                  1.326
 Raman Active:       YES                    YES                    YES
               X      Y      Z        X      Y      Z        X      Y      Z
 C          0.038  0.001  0.006    0.000  0.222  0.083    0.155 -0.028  0.027
 C         -0.073  0.003 -0.073    0.014 -0.046 -0.016   -0.026  0.005 -0.005
 O          0.005 -0.000 -0.002    0.001 -0.002 -0.000   -0.002  0.001  0.005
 C         -0.007  0.007  0.001   -0.213 -0.086 -0.089   -0.270  0.063 -0.046
 C         -0.011 -0.002 -0.004    0.310  0.085  0.122    0.241  0.015  0.069
 C          0.012 -0.005  0.000   -0.007 -0.060 -0.029   -0.091  0.021 -0.022
 O         -0.000  0.001 -0.001   -0.001 -0.006 -0.002   -0.011 -0.004  0.004
 C         -0.021  0.010 -0.002   -0.240  0.092 -0.033    0.344 -0.056  0.068
 C         -0.001 -0.011 -0.003    0.149 -0.099  0.002   -0.343 -0.035 -0.100
 H          0.254 -0.453  0.472   -0.276  0.048 -0.000    0.041 -0.008 -0.019
 H          0.260  0.423  0.484    0.102  0.000  0.006   -0.013  0.003 -0.000
 H          0.021  0.004 -0.066    0.002 -0.002 -0.001    0.005  0.004 -0.022
 H          0.034 -0.019  0.004    0.048 -0.261 -0.107    0.252 -0.247 -0.038
 H          0.028  0.019  0.015   -0.347 -0.300 -0.225   -0.151 -0.217 -0.140
 H         -0.013 -0.003  0.011   -0.013 -0.209 -0.073   -0.076  0.008 -0.002
 H         -0.012 -0.009  0.011   -0.010 -0.014  0.010    0.024  0.027 -0.025
 H          0.045 -0.027  0.000    0.288 -0.230 -0.006   -0.235  0.307  0.036
 H          0.048  0.016  0.020    0.051 -0.189 -0.048    0.234  0.327  0.171
 TransDip   0.047  0.004  0.022   -0.003 -0.026 -0.024    0.023 -0.011  0.027

 Mode:                40                     41                     42
 Frequency:      2970.50                3038.22                3085.89
 Force Cnst:      5.6106                 5.7601                 6.1988
 Red. Mass:       1.0792                 1.0591                 1.1048
 IR Active:          YES                    YES                    YES
 IR Intens:       39.147                 69.594                 54.450
 Raman Active:       YES                    YES                    YES
               X      Y      Z        X      Y      Z        X      Y      Z
 C         -0.001 -0.000 -0.000   -0.001 -0.000 -0.000    0.001 -0.001  0.000
 C          0.000  0.000 -0.000    0.029 -0.025  0.056   -0.011 -0.092 -0.017
 O         -0.000  0.000  0.000   -0.001 -0.000  0.001    0.000  0.000 -0.000
 C          0.001 -0.001 -0.000   -0.001 -0.000  0.000    0.001  0.001  0.001
 C         -0.001 -0.002 -0.001    0.000 -0.000  0.000   -0.000 -0.000 -0.000
 C         -0.030  0.024 -0.071   -0.000  0.000 -0.000   -0.000  0.000 -0.000
 O          0.001  0.000 -0.001    0.000  0.000 -0.000   -0.000  0.000  0.000
 C         -0.001  0.002  0.000    0.000  0.000  0.000    0.000 -0.000 -0.000
 C          0.001  0.001  0.000   -0.001  0.000 -0.000   -0.000  0.000 -0.000
 H          0.000  0.001  0.001   -0.127 -0.414 -0.260    0.234  0.693  0.461
 H          0.001 -0.003  0.002   -0.187  0.717 -0.437   -0.117  0.403 -0.259
 H         -0.000  0.000  0.000   -0.002  0.001  0.005    0.003  0.002 -0.000
 H          0.000  0.003 -0.001    0.004  0.004  0.002   -0.006 -0.007 -0.005
 H         -0.012  0.012  0.004    0.000  0.001  0.000   -0.001  0.002  0.000
 H          0.359 -0.292  0.882    0.002 -0.001  0.003    0.000 -0.000  0.001
 H          0.003  0.004 -0.001    0.000 -0.000 -0.000   -0.000  0.000  0.000
 H         -0.009 -0.012 -0.004    0.001  0.000  0.001    0.001  0.002  0.001
 H          0.001 -0.002 -0.002    0.004 -0.005  0.000    0.000  0.001  0.001
 TransDip  -0.043  0.061 -0.186    0.089 -0.057  0.245   -0.037 -0.218 -0.083

 Mode:                43                     44                     45
 Frequency:      3174.91                3175.90                3192.92
 Force Cnst:      6.4523                 6.4637                 6.5759
 Red. Mass:       1.0864                 1.0877                 1.0948
 IR Active:          YES                    YES                    YES
 IR Intens:        8.241                 17.584                 29.621
 Raman Active:       YES                    YES                    YES
               X      Y      Z        X      Y      Z        X      Y      Z
 C         -0.001  0.001  0.000    0.002  0.001  0.001   -0.001  0.003  0.001
 C         -0.000 -0.001 -0.000    0.000 -0.000  0.000   -0.000 -0.000 -0.000
 O          0.000  0.000  0.000   -0.000  0.000  0.000    0.000  0.000 -0.000
 C         -0.028 -0.051 -0.028    0.012  0.024  0.013   -0.023 -0.036 -0.020
 C         -0.020  0.034  0.008    0.011 -0.018 -0.004    0.041 -0.057 -0.012
 C         -0.000 -0.000 -0.000    0.001 -0.000  0.001    0.001  0.001  0.001
 O          0.000  0.000 -0.000   -0.000 -0.000  0.000   -0.000 -0.000  0.000
 C          0.005  0.012  0.006    0.012  0.027  0.013   -0.011 -0.018 -0.009
 C          0.019 -0.027 -0.005    0.038 -0.057 -0.011    0.006 -0.008 -0.001
 H          0.004  0.007  0.005   -0.003 -0.005 -0.004    0.002  0.003  0.002
 H         -0.001  0.003 -0.001   -0.003  0.003 -0.003    0.001 -0.001  0.001
 H          0.000  0.000 -0.000   -0.000 -0.000  0.000    0.000 -0.000 -0.000
 H          0.331  0.598  0.324   -0.152 -0.276 -0.150    0.230  0.408  0.223
 H          0.259 -0.399 -0.089   -0.135  0.209  0.047   -0.431  0.658  0.146
 H          0.002 -0.000  0.004   -0.003  0.002 -0.006   -0.004  0.000 -0.009
 H          0.001 -0.000  0.000   -0.001 -0.000  0.000   -0.002  0.000 -0.000
 H         -0.077 -0.146 -0.071   -0.168 -0.319 -0.156    0.117  0.218  0.107
 H         -0.214  0.323  0.061   -0.439  0.666  0.125   -0.058  0.085  0.016
 TransDip  -0.049 -0.069 -0.037    0.126 -0.041  0.020    0.028 -0.163 -0.056

 Mode:                46                     47                     48
 Frequency:      3197.93                3820.81                3827.11
 Force Cnst:      6.5991                 9.1736                 9.2037
 Red. Mass:       1.0952                 1.0665                 1.0665
 IR Active:          YES                    YES                    YES
 IR Intens:        9.384                114.822                 98.714
 Raman Active:       YES                    YES                    YES
               X      Y      Z        X      Y      Z        X      Y      Z
 C          0.002  0.001  0.001    0.000  0.000  0.000   -0.000 -0.000  0.000
 C          0.000  0.000  0.000    0.000  0.000 -0.000   -0.000  0.000 -0.001
 O         -0.000  0.000  0.000    0.000 -0.000  0.000   -0.060  0.010 -0.013
 C          0.008  0.011  0.006   -0.000 -0.000 -0.000    0.000 -0.000  0.000
 C         -0.012  0.017  0.004   -0.000  0.000  0.000   -0.000  0.000 -0.000
 C         -0.003  0.001 -0.001    0.000 -0.001  0.001   -0.000  0.000 -0.000
 O          0.000 -0.000 -0.000    0.043 -0.045  0.003    0.000 -0.000 -0.000
 C         -0.036 -0.060 -0.030    0.000  0.000 -0.000   -0.000  0.000 -0.000
 C          0.024 -0.030 -0.005   -0.000 -0.000 -0.000    0.000  0.000  0.000
 H         -0.003 -0.004 -0.003   -0.000 -0.000 -0.000    0.001 -0.001 -0.003
 H         -0.001  0.000 -0.001   -0.000 -0.000  0.000    0.002 -0.001 -0.002
 H         -0.000 -0.000  0.000   -0.001  0.000 -0.000    0.960 -0.164  0.218
 H         -0.073 -0.130 -0.071   -0.000 -0.000 -0.000   -0.000 -0.000 -0.000
 H          0.126 -0.194 -0.044    0.002 -0.001 -0.000    0.000 -0.000 -0.000
 H          0.008 -0.006  0.015   -0.003 -0.000  0.001   -0.000 -0.000  0.000
 H          0.002  0.000 -0.001   -0.685  0.724 -0.051   -0.001  0.001 -0.000
 H          0.372  0.694  0.340   -0.000  0.000  0.000    0.000  0.000 -0.000
 H         -0.229  0.343  0.063   -0.000  0.000 -0.000   -0.000 -0.000 -0.000
 TransDip  -0.040 -0.080 -0.040   -0.278  0.200  0.013    0.314 -0.050  0.007

 STANDARD THERMODYNAMIC QUANTITIES AT   298.15 K  AND     1.00 ATM

   This Molecule has  0 Imaginary Frequencies
   Zero point vibrational energy:       92.035 kcal/mol

   Atom    1 Element C  Has Mass   12.00000
   Atom    2 Element C  Has Mass   12.00000
   Atom    3 Element O  Has Mass   15.99491
   Atom    4 Element C  Has Mass   12.00000
   Atom    5 Element C  Has Mass   12.00000
   Atom    6 Element C  Has Mass   12.00000
   Atom    7 Element O  Has Mass   15.99491
   Atom    8 Element C  Has Mass   12.00000
   Atom    9 Element C  Has Mass   12.00000
   Atom   10 Element H  Has Mass    1.00783
   Atom   11 Element H  Has Mass    1.00783
   Atom   12 Element H  Has Mass    1.00783
   Atom   13 Element H  Has Mass    1.00783
   Atom   14 Element H  Has Mass    1.00783
   Atom   15 Element H  Has Mass    1.00783
   Atom   16 Element H  Has Mass    1.00783
   Atom   17 Element H  Has Mass    1.00783
   Atom   18 Element H  Has Mass    1.00783
   Molecular Mass:   125.060290 amu
   Principal axes and moments of inertia in amu*Bohr^2:
                             1           2           3
    Eigenvalues --      421.39857  1900.17615  2164.94840
          X               0.99993     0.00261     0.01125
          Y               0.00196     0.92136    -0.38869
          Z              -0.01138     0.38869     0.92130
   Rotational Symmetry Number is   1
   The Molecule is an Asymmetric Top
   Translational Enthalpy:        0.889 kcal/mol
   Rotational Enthalpy:           0.889 kcal/mol
   Vibrational Enthalpy:         95.958 kcal/mol
   gas constant (RT):             0.592 kcal/mol
   Translational Entropy:        40.384  cal/mol.K
   Rotational Entropy:           28.940  cal/mol.K
   Vibrational Entropy:          25.445  cal/mol.K

   Total Enthalpy:               98.328 kcal/mol
   Total Entropy:                94.770  cal/mol.K
 Total job time:  30548.19s(wall), 236186.51s(cpu) 
 Sat Apr 29 18:27:49 2023

        *************************************************************
        *                                                           *
        *  Thank you very much for using Q-Chem.  Have a nice day.  *
        *                                                           *
        *************************************************************


