
Running Job 1 of 1 Q_in.in
qchem Q_in.in_167091.0 /scratch/ari.fischer/qChem1518401.hpc-mn1/qchem167091/ 0
/usr/local/qchem-5.4.1/exe/qcprog.exe_s Q_in.in_167091.0 /scratch/ari.fischer/qChem1518401.hpc-mn1/qchem167091/
                  Welcome to Q-Chem
     A Quantum Leap Into The Future Of Chemistry


 Q-Chem 5.4, Q-Chem, Inc., Pleasanton, CA (2021)

 License issued to: Nanyang Technological University (site)

 E. Epifanovsky,  A. T. B. Gilbert,  Xintian Feng,  Joonho Lee,  Yuezhi Mao,  
 N. Mardirossian,  P. Pokhilko,  A. White,  M. Wormit,  M. P. Coons,  
 A. L. Dempwolff,  Zhengting Gan,  D. Hait,  P. R. Horn,  L. D. Jacobson,  
 I. Kaliman,  J. Kussmann,  A. W. Lange,  Ka Un Lao,  D. S. Levine,  Jie Liu,  
 S. C. McKenzie,  A. F. Morrison,  K. Nanda,  F. Plasser,  D. R. Rehn,  
 M. L. Vidal,  Zhi-Qiang You,  Ying Zhu,  B. Alam,  B. Albrecht,  
 A. Aldossary,  E. Alguire,  J. H. Andersen,  D. Barton,  K. Begam,  A. Behn,  
 Y. A. Bernard,  E. J. Berquist,  H. Burton,  A. Carreras,  K. Carter-Fenk,  
 R. Chakraborty,  A. D. Chien,  K. D. Closser,  V. Cofer-Shabica,  
 S. Dasgupta,  Jia Deng,  M. de Wergifosse,  M. Diedenhofen,  Hainam Do,  
 S. Ehlert,  Po-Tung Fang,  S. Fatehi,  Qingguo Feng,  T. Friedhoff,  
 J. Gayvert,  Qinghui Ge,  G. Gidofalvi,  M. Goldey,  J. Gomes,  
 C. Gonzalez-Espinoza,  S. Gulania,  A. Gunina,  M. W. D. Hanson-Heine,  
 P. H. P. Harbach,  A. W. Hauser,  M. F. Herbst,  M. Hernandez Vera,  
 M. Hodecker,  Z. C. Holden,  S. Houck,  Xunkun Huang,  Kerwin Hui,  
 B. C. Huynh,  M. Ivanov,  Hyunjun Ji,  Hanjie Jiang,  B. Kaduk,  S. Kaehler,  
 K. Khistyaev,  Jaehoon Kim,  P. Klunzinger,  Z. Koczor-Benda,  
 Joong Hoon Koh,  D. Kosenkov,  L. Koulias,  T. Kowalczyk,  C. M. Krauter,  
 K. Kue,  A. Kunitsa,  T. Kus,  A. Landau,  K. V. Lawler,  D. Lefrancois,  
 S. Lehtola,  Rain Li,  Yi-Pei Li,  Jiashu Liang,  M. Liebenthal,  
 Hung-Hsuan Lin,  You-Sheng Lin,  Fenglai Liu,  Kuan-Yu Liu,  
 M. Loipersberger,  A. Luenser,  A. Manjanath,  P. Manohar,  E. Mansoor,  
 S. F. Manzer,  Shan-Ping Mao,  A. V. Marenich,  T. Markovich,  S. Mason,  
 S. A. Maurer,  P. F. McLaughlin,  M. F. S. J. Menger,  J.-M. Mewes,  
 S. A. Mewes,  P. Morgante,  J. W. Mullinax,  K. J. Oosterbaan,  G. Paran,  
 Alexander C. Paul,  Suranjan K. Paul,  F. Pavosevic,  Zheng Pei,  S. Prager,  
 E. I. Proynov,  E. Ramos,  B. Rana,  A. E. Rask,  A. Rettig,  R. M. Richard,  
 F. Rob,  E. Rossomme,  T. Scheele,  M. Scheurer,  M. Schneider,  
 N. Sergueev,  S. M. Sharada,  W. Skomorowski,  D. W. Small,  C. J. Stein,  
 Yu-Chuan Su,  E. J. Sundstrom,  Zhen Tao,  J. Thirman,  T. Tsuchimochi,  
 N. M. Tubman,  S. P. Veccham,  O. Vydrov,  J. Wenzel,  J. Witte,  A. Yamada,  
 Kun Yao,  S. Yeganeh,  S. R. Yost,  A. Zech,  Igor Ying Zhang,  Xing Zhang,  
 Yu Zhang,  D. Zuev,  A. Aspuru-Guzik,  A. T. Bell,  N. A. Besley,  
 K. B. Bravaya,  B. R. Brooks,  D. Casanova,  Jeng-Da Chai,  S. Coriani,  
 C. J. Cramer,  A. E. DePrince, III,  R. A. DiStasio Jr.,  A. Dreuw,  
 B. D. Dunietz,  T. R. Furlani,  W. A. Goddard III,  S. Grimme,  
 S. Hammes-Schiffer,  T. Head-Gordon,  W. J. Hehre,  Chao-Ping Hsu,  
 T.-C. Jagau,  Yousung Jung,  A. Klamt,  Jing Kong,  D. S. Lambrecht,  
 WanZhen Liang,  N. J. Mayhall,  C. W. McCurdy,  J. B. Neaton,  
 C. Ochsenfeld,  J. A. Parkhill,  R. Peverati,  V. A. Rassolov,  Yihan Shao,  
 L. V. Slipchenko,  T. Stauch,  R. P. Steele,  J. E. Subotnik,  
 A. J. W. Thom,  A. Tkatchenko,  D. G. Truhlar,  T. Van Voorhis,  
 T. A. Wesolowski,  K. B. Whaley,  H. L. Woodcock III,  P. M. Zimmerman,  
 S. Faraji,  P. M. W. Gill,  M. Head-Gordon,  J. M. Herbert,  A. I. Krylov

 Additional authors for Version 5.4.1: 
 S. Kotaru,  Shaozhi Li,  Xiangyuan Li,  F. Matz,  A. Molle,  Haisheng Ren,  
 Yingli Su,  Hung-Yi Tsai,  C. Utku,  Fang Wang

 Contributors to earlier versions of Q-Chem not listed above: 
 R. D. Adamson,  B. Austin,  R. Baer,  J. Baker,  G. J. O. Beran,  
 K. Brandhorst,  S. T. Brown,  E. F. C. Byrd,  A. K. Chakraborty,  
 G. K. L. Chan,  Chun-Min Chang,  Yunqing Chen,  C.-L. Cheng,  
 Siu Hung Chien,  D. M. Chipman,  D. L. Crittenden,  H. Dachsel,  
 R. J. Doerksen,  A. D. Dutoi,  R. G. Edgar,  J. Fosso-Tande,  
 L. Fusti-Molnar,  D. Ghosh,  A. Ghysels,  A. Golubeva-Zadorozhnaya,  
 J. Gonthier,  M. S. Gordon,  S. R. Gwaltney,  G. Hawkins,  J. E. Herr,  
 A. Heyden,  S. Hirata,  E. G. Hohenstein,  G. Kedziora,  F. J. Keil,  
 C. Kelley,  Jihan Kim,  R. A. King,  R. Z. Khaliullin,  P. P. Korambath,  
 W. Kurlancheek,  A. Laurent,  A. M. Lee,  M. S. Lee,  S. V. Levchenko,  
 Ching Yeh Lin,  D. Liotard,  E. Livshits,  R. C. Lochan,  I. Lotan,  
 L. A. Martinez-Martinez,  P. E. Maslen,  N. Nair,  D. P. O'Neill,  
 D. Neuhauser,  E. Neuscamman,  C. M. Oana,  R. Olivares-Amaya,  R. Olson,  
 T. M. Perrine,  B. Peters,  P. A. Pieniazek,  A. Prociuk,  Y. M. Rhee,  
 J. Ritchie,  M. A. Rohrdanz,  E. Rosta,  N. J. Russ,  H. F. Schaefer III,  
 M. W. Schmidt,  N. E. Schultz,  S. Sharma,  N. Shenvi,  C. D. Sherrill,  
 A. C. Simmonett,  A. Sodt,  T. Stein,  D. Stuck,  K. S. Thanthiriwatte,  
 V. Vanovschi,  L. Vogt,  Tao Wang,  A. Warshel,  M. A. Watson,  
 C. F. Williams,  Q. Wu,  X. Xu,  Jun Yang,  W. Zhang,  Yan Zhao

 Please cite Q-Chem as follows:
 Y. Shao et al., Mol. Phys. 113, 184-215 (2015)
 DOI: 10.1080/00268976.2014.952696

 Q-Chem 5.4.1 for Intel X86 EM64T Linux

 Parts of Q-Chem use Armadillo 9.800.1 (Horizon Scraper).
 http://arma.sourceforge.net/

 Q-Chem begins on Thu Apr 27 13:26:09 2023  

 Host: 
0

     Scratch files written to /scratch/ari.fischer/qChem1518401.hpc-mn1/qchem167091//
 Aug1521 |scratch|qcdevops|jenkins|workspace|build_RNUM 8249   
 Processing $rem in /usr/local/qchem-5.4.1/config/preferences:
 Processing $rem in /home/ari.fischer/.qchemrc:
 Symmetry turned off for PCM/SM12/SMD calculation

 Checking the input file for inconsistencies... 	...done.

--------------------------------------------------------------
User input:
--------------------------------------------------------------
$molecule
0 1
C         0.9069577499   -0.1511643788    0.4132771414
C         2.4004757208   -0.3486784084    0.5343247265
O         3.0537535884   -0.4555070899   -0.7286192638
C         0.2202573030    0.6758321006    1.3014744373
C        -1.1611628988    0.8359417171    1.2167993897
C        -1.8690037277    0.1671493413    0.2206015816
O        -3.2317279133    0.2875566661    0.0791872364
C        -1.1984620766   -0.6571593816   -0.6844630351
C         0.1783179684   -0.8118364367   -0.5810356298
H         2.6222968053   -1.2875832291    1.0531675294
H         2.8326965886    0.4641461578    1.1336212927
H         2.8699822441    0.3701508168   -1.2059052686
H         0.7700111392    1.2097252275    2.0734276546
H        -1.6891146107    1.4840352214    1.9124100586
H        -3.5606674957    0.8870861428    0.7697538837
H        -1.7651954616   -1.1676768773   -1.4576216853
H         0.6990271768   -1.4502635898   -1.2896010491
$end

$rem
BASIS = 6-311++G(2df,2p)
GUI = 2
JOB_TYPE = Optimization
METHOD = wB97M-V
SCF_ALGORITHM = DIIS_GDM
MAX_SCF_CYCLES = 400
GEOM_OPT_MAX_CYCLES = 150
SCF_CONVERGENCE = 7
THRESH = 12
Solvent_method = SMD
$end
--------------------------------------------------------------
 ----------------------------------------------------------------
             Standard Nuclear Orientation (Angstroms)
    I     Atom           X                Y                Z
 ----------------------------------------------------------------
    1      C       0.9069577499    -0.1511643788     0.4132771414
    2      C       2.4004757208    -0.3486784084     0.5343247265
    3      O       3.0537535884    -0.4555070899    -0.7286192638
    4      C       0.2202573030     0.6758321006     1.3014744373
    5      C      -1.1611628988     0.8359417171     1.2167993897
    6      C      -1.8690037277     0.1671493413     0.2206015816
    7      O      -3.2317279133     0.2875566661     0.0791872364
    8      C      -1.1984620766    -0.6571593816    -0.6844630351
    9      C       0.1783179684    -0.8118364367    -0.5810356298
   10      H       2.6222968053    -1.2875832291     1.0531675294
   11      H       2.8326965886     0.4641461578     1.1336212927
   12      H       2.8699822441     0.3701508168    -1.2059052686
   13      H       0.7700111392     1.2097252275     2.0734276546
   14      H      -1.6891146107     1.4840352214     1.9124100586
   15      H      -3.5606674957     0.8870861428     0.7697538837
   16      H      -1.7651954616    -1.1676768773    -1.4576216853
   17      H       0.6990271768    -1.4502635898    -1.2896010491
 ----------------------------------------------------------------
 Nuclear Repulsion Energy =         419.15921479 hartrees
 There are       33 alpha and       33 beta electrons
 Requested basis set is 6-311++G(2df,2p)
 There are 120 shells and 386 basis functions

 Total QAlloc Memory Limit 288000 MB
 Mega-Array Size       188 MB
 MEM_STATIC part       192 MB
 
 Citation of the SMD model:
 Marenich, A.V.; Cramer, C.J.; Truhlar, D.G.
 J. Phys. Chem. B 2009, 113, 6378-6396.
 iSolventCode=           1
 Solvent: water                                                           
 
 vradii
            1           2           3           4           5           6
    1   1.8500000   1.8500000   1.5200000   1.8500000   1.8500000   1.8500000
            7           8           9          10          11          12
    1   1.5200000   1.8500000   1.8500000   1.2000000   1.2000000   1.2000000
           13          14          15          16          17
    1   1.2000000   1.2000000   1.2000000   1.2000000   1.2000000
 Changing PCM_VDW_RADII to SMD_RADIUS
 Discretize the solute cavity surface with Lebedev spheres
	Using 110 Lebedev grid points for each H atom
	Using 194 Lebedev grid points for other atoms
	Atomic van der Waals radii will be scaled by 1.20
 Remove points where switching function is < 1.0e-08
 Keep 1259 surface tesserae and discard 1367 interior tesserae
 Molecular Surface Area = 151.421 Angst**2
 A cutoff of  1.0D-12 yielded   6473 shell pairs
 There are     67303 function pairs (     83718 Cartesian)
 Smallest overlap matrix eigenvalue = 8.26E-07
 Linear dependence detected in AO basis
 Tighter screening thresholds may be required for diffuse basis sets
 Use S2THRESH > 14 and THRESH = 14 in case of SCF convergence issues
 Number of orthogonalized atomic orbitals = 385
 Maximum deviation from orthogonality = 7.562E-11

 Scale SEOQF with 1.000000e-01/1.000000e-01/1.000000e-01

 Standard Electronic Orientation quadrupole field applied
 Nucleus-field energy     =     0.0000000068 hartrees
 Guess from superposition of atomic densities
 Warning:  Energy on first SCF cycle will be non-variational
 SAD guess density has 66.000000 electrons

 -----------------------------------------------------------------------
  General SCF calculation program by
  Eric Jon Sundstrom, Paul Horn, Yuezhi Mao, Dmitri Zuev, Alec White,
  David Stuck, Shaama M.S., Shane Yost, Joonho Lee, David Small,
  Daniel Levine, Susi Lehtola, Hugh Burton, Evgeny Epifanovsky,
  Bang C. Huynh
 -----------------------------------------------------------------------
 Exchange:     0.1500 Hartree-Fock + 1.0000 wB97M-V + LR-HF
 Correlation:  1.0000 wB97M-V
 Using SG-2 standard quadrature grid
 Nonlocal Correlation:  VV10 with C = 0.0100 and b = 6.00 and scale = 1.00000
 Grid used for NLC:  SG-1 standard quadrature
 
 Citation of the SMD model:
 Marenich, A.V.; Cramer, C.J.; Truhlar, D.G.
 J. Phys. Chem. B 2009, 113, 6378-6396.
 iSolventCode=           1
 Solvent: water                                                           
 
 vradii
            1           2           3           4           5           6
    1   1.8500000   1.8500000   1.5200000   1.8500000   1.8500000   1.8500000
            7           8           9          10          11          12
    1   1.5200000   1.8500000   1.8500000   1.2000000   1.2000000   1.2000000
           13          14          15          16          17
    1   1.2000000   1.2000000   1.2000000   1.2000000   1.2000000
 using 8 threads for integral computing
 -------------------------------------------------------
 OpenMP Integral computing Module                
 Release: version 1.0, May 2013, Q-Chem Inc. Pittsburgh 
 -------------------------------------------------------
 -------------------------------------------------------
 OpenMP BLAS3 based DFT computing Module                
 Release: version 1.0, May 2013, Q-Chem Inc. Pittsburgh 
 -------------------------------------------------------
 A restricted SCF calculation will be
 performed using DIIS, GDM
 SCF converges when RMS gradient is below 1.0e-07
 ---------------------------------------
  Cycle       Energy         DIIS error
 ---------------------------------------
    1    -424.6485007630      2.65e-02  
    2    -421.9079916376      2.38e-03  Done DIIS. Switching to GDM
 ---------------------------------------
  Cycle       Energy        RMS Gradient
 ---------------------------------------
    1    -421.9079916376      3.84e-02   Descent step
    2    -421.9708982708      2.54e-02   Normal BFGS step
    3    -422.0011424297      4.18e-03   Normal BFGS step
    4    -422.0019830433      4.44e-03   Normal BFGS step
    5    -422.0024246019      5.12e-04   Normal BFGS step
    6    -422.0024319640      7.14e-04   Normal BFGS step
    7    -422.0024351288      7.63e-05   Normal BFGS step
    8    -422.0024352771      5.57e-05   Normal BFGS step
    9    -422.0024353063      1.95e-05   Normal BFGS step
   10    -422.0024353098      6.29e-06   Normal BFGS step
   11    -422.0024353104      1.73e-06   Normal BFGS step
   12    -422.0024353105      8.71e-07   Normal BFGS step
   13    -422.0024353105      2.79e-07   Normal BFGS step
   14    -422.0024353106      1.34e-07   Normal BFGS step
   15    -422.0024353106      6.27e-08  Convergence criterion met
 ---------------------------------------
 SCF time:   CPU 1101.02s  wall 139.00s 
(3)  G-ENP(liq) elect-nuc-pol free energy of system     -422.002435311 a.u.
(4)  G-CDS(liq) cavity-dispersion-solvent structure 
     free energy                                                3.8562 kcal/mol
(6)  G-S(liq) free energy of system                     -421.996290005 a.u.
 SCF   energy in the final basis set =     -421.9962900052
 Total energy in the final basis set =     -421.9962900052
 
 --------------------------------------------------------------
 
                    Orbital Energies (a.u.)
 --------------------------------------------------------------
 
 Alpha MOs
 -- Occupied --
-19.3618 -19.3373 -10.4090 -10.3858 -10.3478 -10.3466 -10.3462 -10.3438
-10.3422  -1.1869  -1.1537  -0.9828  -0.8824  -0.8720  -0.7916  -0.7367
 -0.7064  -0.6520  -0.6276  -0.5830  -0.5715  -0.5476  -0.5428  -0.5247
 -0.5231  -0.4960  -0.4881  -0.4521  -0.4381  -0.4300  -0.3917  -0.3493
 -0.3128
 -- Virtual --
  0.0234   0.0354   0.0373   0.0467   0.0532   0.0554   0.0579   0.0729
  0.0785   0.0870   0.1011   0.1047   0.1091   0.1163   0.1382   0.1419
  0.1462   0.1499   0.1577   0.1608   0.1659   0.1717   0.1723   0.1793
  0.1832   0.1856   0.1937   0.1981   0.2074   0.2120   0.2198   0.2354
  0.2369   0.2513   0.2523   0.2547   0.2633   0.2737   0.2793   0.2818
  0.2981   0.3049   0.3155   0.3225   0.3328   0.3399   0.3443   0.3494
  0.3593   0.3623   0.3660   0.3755   0.3862   0.3991   0.4135   0.4201
  0.4360   0.4478   0.4628   0.4728   0.4872   0.5415   0.5521   0.5743
  0.5894   0.5955   0.5997   0.6058   0.6115   0.6178   0.6237   0.6248
  0.6455   0.6487   0.6678   0.6769   0.6875   0.6918   0.6972   0.7103
  0.7155   0.7265   0.7307   0.7352   0.7489   0.7622   0.7682   0.7716
  0.7796   0.7959   0.7993   0.8124   0.8372   0.8432   0.8522   0.8652
  0.8715   0.8849   0.8960   0.9101   0.9225   0.9290   0.9338   0.9485
  0.9918   1.0234   1.0339   1.0520   1.0618   1.0730   1.0799   1.0956
  1.1012   1.1226   1.1515   1.1571   1.1733   1.1746   1.2014   1.2077
  1.2114   1.2309   1.2411   1.2528   1.2708   1.2872   1.2921   1.3273
  1.3362   1.3559   1.3604   1.3790   1.3860   1.3938   1.4075   1.4127
  1.4442   1.4515   1.4648   1.4747   1.4865   1.4961   1.5137   1.5373
  1.5415   1.5561   1.5789   1.5876   1.6120   1.6232   1.6562   1.6745
  1.7117   1.7243   1.7408   1.7580   1.7942   1.8161   1.8556   1.8708
  1.9292   1.9463   1.9803   2.0122   2.0564   2.0717   2.0923   2.1344
  2.1500   2.1906   2.2496   2.3789   2.3843   2.4265   2.4740   2.5094
  2.5713   2.5960   2.6352   2.6568   2.6818   2.6948   2.7340   2.7944
  2.8058   2.8124   2.8230   2.8434   2.8455   2.8591   2.8612   2.8741
  2.8899   2.9011   2.9228   2.9283   2.9368   2.9667   2.9686   2.9708
  3.0018   3.0230   3.0312   3.0547   3.0582   3.0814   3.0851   3.1582
  3.1844   3.1946   3.2039   3.2207   3.2299   3.2406   3.2478   3.2637
  3.2778   3.2846   3.3122   3.3168   3.3335   3.3512   3.3785   3.3802
  3.3898   3.4278   3.4469   3.4688   3.4744   3.4805   3.4852   3.5069
  3.5267   3.5449   3.5620   3.5754   3.6102   3.6136   3.6252   3.6523
  3.6675   3.6754   3.7027   3.7474   3.7694   3.7799   3.7849   3.8038
  3.8132   3.8227   3.8447   3.8552   3.8650   3.8838   3.9043   3.9274
  3.9414   3.9652   3.9767   4.0487   4.0518   4.0840   4.0956   4.1186
  4.1267   4.1584   4.1814   4.1871   4.2107   4.2219   4.2337   4.2675
  4.2923   4.3054   4.3546   4.3730   4.3908   4.4094   4.4211   4.4436
  4.4502   4.4898   4.4989   4.5217   4.5324   4.5516   4.5729   4.5887
  4.5941   4.5950   4.6690   4.6918   4.7333   4.7898   4.8038   4.8303
  4.9546   5.0113   5.0436   5.1025   5.1209   5.2156   5.2278   5.2632
  5.3097   5.3172   5.3241   5.3616   5.3709   5.3970   5.4487   5.4791
  5.5329   5.5973   5.6328   5.6552   5.6827   5.6959   5.7664   5.7818
  5.8384   5.8540   5.8821   5.9129   5.9488   6.0382   6.1124   6.3755
  6.6164   6.7044   6.8838   7.0565   7.0977   7.2750   7.2770   7.3270
  7.3407   7.3500   7.4565   7.6393   7.7305   7.7784   7.8386  24.2173
 24.7904  24.8079  24.8202  25.0448  25.0630  25.5041  50.5805  50.6436
 --------------------------------------------------------------
 
          Ground-State Mulliken Net Atomic Charges

     Atom                 Charge (a.u.)
  ----------------------------------------
      1 C                     0.411893
      2 C                    -0.457670
      3 O                    -0.419497
      4 C                    -0.621855
      5 C                    -0.041166
      6 C                    -0.268923
      7 O                    -0.401746
      8 C                    -0.445859
      9 C                     0.049193
     10 H                     0.163396
     11 H                     0.244665
     12 H                     0.323663
     13 H                     0.271746
     14 H                     0.273246
     15 H                     0.349553
     16 H                     0.284080
     17 H                     0.285282
  ----------------------------------------
  Sum of atomic charges =     0.000000

 -----------------------------------------------------------------
                    Cartesian Multipole Moments
 -----------------------------------------------------------------
    Charge (ESU x 10^10)
                 0.0000
    Dipole Moment (Debye)
         X      -0.9694      Y       2.9431      Z       2.3618
       Tot       3.8961
    Quadrupole Moments (Debye-Ang)
        XX     -57.9684     XY       0.2616     YY     -52.0350
        XZ      -2.3932     YZ       3.5264     ZZ     -49.1061
    Octopole Moments (Debye-Ang^2)
       XXX     -32.7864    XXY      37.8553    XYY      -3.0265
       YYY       8.9937    XXZ      19.8751    XYZ     -16.4850
       YYZ      -7.7982    XZZ      -0.3324    YZZ       9.2224
       ZZZ     -31.7067
    Hexadecapole Moments (Debye-Ang^3)
      XXXX   -1414.5646   XXXY      61.2480   XXYY    -226.2454
      XYYY      63.4351   YYYY    -190.0912   XXXZ     -13.8077
      XXYZ     -14.0014   XYYZ       5.9157   YYYZ     -58.6615
      XXZZ    -233.6692   XYZZ      25.7777   YYZZ     -65.7043
      XZZZ      19.4293   YZZZ     -49.8563   ZZZZ    -276.9085
 -----------------------------------------------------------------
 Calculating analytic gradient of the SCF energy
 Gradient of CDS energy
            1           2           3           4           5           6
    1   0.0000387   0.0009669  -0.0002930   0.0002802  -0.0001992  -0.0062018
    2  -0.0000787  -0.0000190  -0.0001250   0.0001281   0.0002493   0.0005562
    3  -0.0000711   0.0004512   0.0000393   0.0001759   0.0002779  -0.0006294
            7           8           9          10          11          12
    1   0.0058537  -0.0002336   0.0001897  -0.0000973  -0.0001833   0.0002042
    2  -0.0006354  -0.0002038  -0.0002150  -0.0002280   0.0001401   0.0002249
    3   0.0004572  -0.0003115  -0.0001071  -0.0000600   0.0000984  -0.0004313
           13          14          15          16          17
    1   0.0001419  -0.0000687  -0.0003917  -0.0001553   0.0001485
    2   0.0000832   0.0000916   0.0001793  -0.0000776  -0.0000701
    3   0.0001105   0.0000995   0.0001436  -0.0001324  -0.0001107
 Gradient of SCF Energy
            1           2           3           4           5           6
    1   0.0034457  -0.0020294   0.0078658  -0.0051753   0.0002235  -0.0045769
    2  -0.0011733  -0.0010876  -0.0211071  -0.0037907  -0.0049172   0.0020971
    3   0.0000846  -0.0125123   0.0050828  -0.0041618  -0.0058637   0.0014918
            7           8           9          10          11          12
    1   0.0038677   0.0067975  -0.0010104   0.0009992   0.0027808  -0.0056959
    2  -0.0164459  -0.0009531   0.0014221  -0.0038519   0.0075680   0.0168489
    3  -0.0198593   0.0004496   0.0008674   0.0036444   0.0063229  -0.0046577
           13          14          15          16          17
    1   0.0058502  -0.0078316  -0.0052428  -0.0013764   0.0011084
    2   0.0058384   0.0085847   0.0147912  -0.0019934  -0.0018301
    3   0.0081821   0.0090284   0.0175672  -0.0029670  -0.0026997
 Max gradient component =       2.111E-02
 RMS gradient           =       7.656E-03
 Computing fast CPCM-SWIG gradient
 Updating gradient with PCM contributions...
 -- total gradient after adding PCM contribution --
---------------------------------------------------
  Atom         X              Y              Z     
---------------------------------------------------
   1       0.003018      -0.000009       0.000887
   2       0.000285       0.001987      -0.005738
   3       0.002009      -0.009357       0.003032
   4      -0.000030       0.000917       0.001280
   5       0.000533       0.001134       0.001768
   6      -0.006816       0.002026       0.001014
   7       0.001135      -0.005538      -0.006755
   8       0.000210      -0.001718      -0.002012
   9       0.000341      -0.001040      -0.001343
  10       0.001165      -0.002753       0.001271
  11       0.001435       0.002587       0.002804
  12      -0.002656       0.006731      -0.001624
  13       0.001537       0.001577       0.002303
  14      -0.001466       0.001877       0.002056
  15      -0.000903       0.004320       0.005332
  16      -0.001816      -0.001283      -0.002081
  17       0.002017      -0.001458      -0.002193
---------------------------------------------------
 Number of fixed atoms: 0
 Gradient time:  CPU 231.84 s  wall 33.91 s
 Geometry Optimization Parameters
   NAtoms,    NIC,     NZ,  NCons,   NDum,   NFix, NCnnct, MaxDiis
       17     112       0       0       0       0       0       0


** GEOMETRY OPTIMIZATION IN DELOCALIZED INTERNAL COORDINATES **
   Searching for a Minimum

   Optimization Cycle:   1

                       Coordinates (Angstroms)
     ATOM                X               Y               Z
      1  C         0.9069577499   -0.1511643788    0.4132771414
      2  C         2.4004757208   -0.3486784084    0.5343247265
      3  O         3.0537535884   -0.4555070899   -0.7286192638
      4  C         0.2202573030    0.6758321006    1.3014744373
      5  C        -1.1611628988    0.8359417171    1.2167993897
      6  C        -1.8690037277    0.1671493413    0.2206015816
      7  O        -3.2317279133    0.2875566661    0.0791872364
      8  C        -1.1984620766   -0.6571593816   -0.6844630351
      9  C         0.1783179684   -0.8118364367   -0.5810356298
     10  H         2.6222968053   -1.2875832291    1.0531675294
     11  H         2.8326965886    0.4641461578    1.1336212927
     12  H         2.8699822441    0.3701508168   -1.2059052686
     13  H         0.7700111392    1.2097252275    2.0734276546
     14  H        -1.6891146107    1.4840352214    1.9124100586
     15  H        -3.5606674957    0.8870861428    0.7697538837
     16  H        -1.7651954616   -1.1676768773   -1.4576216853
     17  H         0.6990271768   -1.4502635898   -1.2896010491
   Point Group: c1    Number of degrees of freedom:    45


   Energy is   -421.996290005


 Attempting to generate delocalized internal coordinates
 Initial Hessian constructed with Jon Baker's OPTIMIZE code

 45 Hessian modes will be used to form the next step
  Hessian Eigenvalues:
     0.007674    0.012218    0.016683    0.018910    0.022398    0.022892
     0.023156    0.023218    0.023254    0.023311    0.023340    0.023489
     0.059009    0.073155    0.118710    0.141819    0.159990    0.159994
     0.159999    0.160000    0.160000    0.160000    0.219999    0.220698
     0.229723    0.239987    0.249959    0.249997    0.312125    0.338509
     0.341937    0.350749    0.351044    0.352035    0.352686    0.415830
     0.423324    0.424546    0.461883    0.464405    0.467186    0.472059
     0.499673    0.529979    0.531267

 Minimum search - taking simple RFO step
 Searching for Lamda that Minimizes Along All modes
 Value Taken    Lamda =  -0.00106244
 Step Taken.  Stepsize is  0.102821

                             Maximum     Tolerance    Cnvgd?
         Gradient           0.010665      0.000300      NO
         Displacement       0.040518      0.001200      NO
         Energy change     *********      0.000001      NO


 New Cartesian Coordinates Obtained by Inverse Iteration

 Displacement from previous Coordinates is:  0.183589
 ----------------------------------------------------------------
             Standard Nuclear Orientation (Angstroms)
    I     Atom           X                Y                Z
 ----------------------------------------------------------------
    1      C       0.9017271031    -0.1590048804     0.4074483774
    2      C       2.3912045664    -0.3538638137     0.5340489236
    3      O       3.0615371537    -0.4141211458    -0.7249443346
    4      C       0.2228023766     0.6707709342     1.2895586645
    5      C      -1.1528773355     0.8354390272     1.2074850912
    6      C      -1.8611781541     0.1665980217     0.2214099438
    7      O      -3.2240744025     0.2951869507     0.0870592609
    8      C      -1.2005146314    -0.6627939584    -0.6759634755
    9      C       0.1708737680    -0.8226141580    -0.5755157940
   10      H       2.6110766774    -1.2984804367     1.0325518835
   11      H       2.8103486027     0.4453565244     1.1493068668
   12      H       2.8935919552     0.4117841929    -1.1934497850
   13      H       0.7744107070     1.2043353554     2.0536333277
   14      H      -1.6752401396     1.4861159401     1.8975010969
   15      H      -3.5581993852     0.8946892177     0.7655994920
   16      H      -1.7680972240    -1.1760788537    -1.4402634336
   17      H       0.6810504624    -1.4715649180    -1.2746671054
 ----------------------------------------------------------------
 Nuclear Repulsion Energy =         420.27563893 hartrees
 There are       33 alpha and       33 beta electrons
 Discretize the solute cavity surface with Lebedev spheres
	Using 110 Lebedev grid points for each H atom
	Using 194 Lebedev grid points for other atoms
	Atomic van der Waals radii will be scaled by 1.20
 Remove points where switching function is < 1.0e-08
 Keep 1260 surface tesserae and discard 1366 interior tesserae
 Molecular Surface Area = 150.994 Angst**2
 Applying Cartesian multipole field
    Component          Value
    ---------          -----
     (2,0,0)        1.00000E-11
     (0,2,0)        2.00000E-11
     (0,0,2)       -3.00000E-11
 Nucleus-field energy     =     0.0000000068 hartrees
 Requested basis set is 6-311++G(2df,2p)
 There are 120 shells and 386 basis functions
 A cutoff of  1.0D-12 yielded   6479 shell pairs
 There are     67327 function pairs (     83745 Cartesian)
 Smallest overlap matrix eigenvalue = 8.01E-07
 Linear dependence detected in AO basis
 Tighter screening thresholds may be required for diffuse basis sets
 Use S2THRESH > 14 and THRESH = 14 in case of SCF convergence issues
 Number of orthogonalized atomic orbitals = 385
 Maximum deviation from orthogonality = 6.083E-11
 Guess MOs from SCF MO coefficient file

 -----------------------------------------------------------------------
  General SCF calculation program by
  Eric Jon Sundstrom, Paul Horn, Yuezhi Mao, Dmitri Zuev, Alec White,
  David Stuck, Shaama M.S., Shane Yost, Joonho Lee, David Small,
  Daniel Levine, Susi Lehtola, Hugh Burton, Evgeny Epifanovsky,
  Bang C. Huynh
 -----------------------------------------------------------------------
 Exchange:     0.1500 Hartree-Fock + 1.0000 wB97M-V + LR-HF
 Correlation:  1.0000 wB97M-V
 Using SG-2 standard quadrature grid
 Nonlocal Correlation:  VV10 with C = 0.0100 and b = 6.00 and scale = 1.00000
 Grid used for NLC:  SG-1 standard quadrature
 
 Citation of the SMD model:
 Marenich, A.V.; Cramer, C.J.; Truhlar, D.G.
 J. Phys. Chem. B 2009, 113, 6378-6396.
 iSolventCode=           1
 Solvent: water                                                           
 
 vradii
            1           2           3           4           5           6
    1   1.8500000   1.8500000   1.5200000   1.8500000   1.8500000   1.8500000
            7           8           9          10          11          12
    1   1.5200000   1.8500000   1.8500000   1.2000000   1.2000000   1.2000000
           13          14          15          16          17
    1   1.2000000   1.2000000   1.2000000   1.2000000   1.2000000
 -------------------------------------------------------
 OpenMP BLAS3 based DFT computing Module                
 Release: version 1.0, May 2013, Q-Chem Inc. Pittsburgh 
 -------------------------------------------------------
 A restricted SCF calculation will be
 performed using Roothaan-Hall, DIIS, GDM
 SCF converges when RMS gradient is below 1.0e-07
 ---------------------------------------
  Cycle       Energy         DIIS error
 ---------------------------------------
    1    -421.9748588435      4.13e-04  Roothaan Step
 ---------------------------------------
  Cycle       Energy         DIIS error
 ---------------------------------------
    1    -421.9980301745      4.13e-04  
    2    -422.0015563271      3.09e-04  Done DIIS. Switching to GDM
 ---------------------------------------
  Cycle       Energy        RMS Gradient
 ---------------------------------------
    1    -422.0015563271      5.60e-03   Normal BFGS step
    2    -422.0017367135      5.84e-03   Normal BFGS step
    3    -422.0029113426      8.32e-04   Normal BFGS step
    4    -422.0029241258      3.31e-04   Normal BFGS step
    5    -422.0029291425      1.53e-04   Normal BFGS step
    6    -422.0029292883      4.67e-05   Normal BFGS step
    7    -422.0029293461      2.56e-05   Normal BFGS step
    8    -422.0029293490      1.02e-05   Normal BFGS step
    9    -422.0029293497      2.50e-06   Normal BFGS step
   10    -422.0029293498      1.25e-06   Normal BFGS step
   11    -422.0029293498      7.32e-07   Normal BFGS step
   12    -422.0029293498      1.23e-07   Normal BFGS step
   13    -422.0029293498      6.21e-08  Convergence criterion met
 ---------------------------------------
 SCF time:   CPU 1070.61s  wall 135.00s 
(3)  G-ENP(liq) elect-nuc-pol free energy of system     -422.002929350 a.u.
(4)  G-CDS(liq) cavity-dispersion-solvent structure 
     free energy                                                3.8330 kcal/mol
(6)  G-S(liq) free energy of system                     -421.996821051 a.u.
 SCF   energy in the final basis set =     -421.9968210512
 Total energy in the final basis set =     -421.9968210512
 
 --------------------------------------------------------------
 
                    Orbital Energies (a.u.)
 --------------------------------------------------------------
 
 Alpha MOs
 -- Occupied --
-19.3603 -19.3360 -10.4071 -10.3843 -10.3454 -10.3447 -10.3441 -10.3413
-10.3402  -1.1870  -1.1532  -0.9858  -0.8848  -0.8736  -0.7937  -0.7381
 -0.7080  -0.6542  -0.6288  -0.5836  -0.5713  -0.5498  -0.5434  -0.5252
 -0.5242  -0.4958  -0.4884  -0.4519  -0.4386  -0.4297  -0.3917  -0.3499
 -0.3136
 -- Virtual --
  0.0234   0.0354   0.0373   0.0467   0.0534   0.0564   0.0580   0.0736
  0.0783   0.0871   0.1011   0.1050   0.1095   0.1162   0.1382   0.1419
  0.1465   0.1505   0.1580   0.1610   0.1660   0.1724   0.1725   0.1796
  0.1831   0.1854   0.1935   0.1982   0.2078   0.2122   0.2209   0.2358
  0.2376   0.2526   0.2529   0.2553   0.2640   0.2741   0.2784   0.2827
  0.2987   0.3057   0.3169   0.3247   0.3339   0.3405   0.3452   0.3509
  0.3617   0.3638   0.3670   0.3771   0.3861   0.4007   0.4164   0.4199
  0.4359   0.4480   0.4649   0.4746   0.4859   0.5431   0.5546   0.5753
  0.5907   0.5988   0.6006   0.6059   0.6118   0.6197   0.6243   0.6279
  0.6466   0.6519   0.6711   0.6794   0.6891   0.6924   0.6990   0.7130
  0.7174   0.7280   0.7340   0.7387   0.7525   0.7633   0.7706   0.7732
  0.7826   0.7974   0.8005   0.8131   0.8373   0.8437   0.8537   0.8651
  0.8740   0.8870   0.9008   0.9138   0.9240   0.9313   0.9361   0.9505
  0.9919   1.0249   1.0338   1.0537   1.0633   1.0746   1.0788   1.0971
  1.1040   1.1224   1.1542   1.1613   1.1740   1.1755   1.2035   1.2096
  1.2146   1.2311   1.2418   1.2559   1.2721   1.2855   1.2965   1.3296
  1.3383   1.3599   1.3640   1.3817   1.3891   1.3983   1.4105   1.4176
  1.4473   1.4524   1.4695   1.4792   1.4928   1.5026   1.5175   1.5413
  1.5434   1.5587   1.5817   1.5921   1.6168   1.6282   1.6609   1.6763
  1.7160   1.7326   1.7436   1.7602   1.7991   1.8173   1.8598   1.8737
  1.9339   1.9519   1.9853   2.0161   2.0658   2.0783   2.0964   2.1356
  2.1506   2.1935   2.2466   2.3775   2.3830   2.4278   2.4717   2.5102
  2.5705   2.5992   2.6291   2.6582   2.6858   2.6968   2.7327   2.7978
  2.8087   2.8133   2.8266   2.8466   2.8474   2.8571   2.8601   2.8748
  2.8932   2.9011   2.9216   2.9286   2.9385   2.9664   2.9702   2.9714
  3.0047   3.0283   3.0373   3.0577   3.0623   3.0835   3.0906   3.1620
  3.1855   3.1967   3.2065   3.2221   3.2297   3.2357   3.2499   3.2676
  3.2791   3.2890   3.3144   3.3206   3.3353   3.3549   3.3813   3.3820
  3.3977   3.4296   3.4505   3.4670   3.4825   3.4839   3.4891   3.5066
  3.5313   3.5498   3.5663   3.5793   3.6135   3.6154   3.6357   3.6567
  3.6735   3.6809   3.7019   3.7537   3.7734   3.7838   3.7917   3.8104
  3.8213   3.8306   3.8500   3.8591   3.8726   3.8942   3.9085   3.9369
  3.9509   3.9746   3.9872   4.0553   4.0587   4.0939   4.1082   4.1271
  4.1389   4.1649   4.1859   4.1936   4.2200   4.2330   4.2433   4.2799
  4.3076   4.3189   4.3641   4.3862   4.4031   4.4133   4.4307   4.4572
  4.4645   4.4997   4.5130   4.5394   4.5520   4.5653   4.5897   4.6035
  4.6111   4.6144   4.6820   4.7078   4.7513   4.8053   4.8237   4.8487
  4.9664   5.0299   5.0608   5.1199   5.1392   5.2181   5.2389   5.2659
  5.3117   5.3157   5.3237   5.3717   5.3813   5.4074   5.4628   5.4830
  5.5522   5.5930   5.6518   5.6745   5.6960   5.7075   5.7804   5.7943
  5.8638   5.8701   5.9054   5.9160   5.9557   6.0596   6.1450   6.4024
  6.6155   6.7437   6.8943   7.0589   7.1003   7.2785   7.3093   7.3345
  7.3483   7.3645   7.4546   7.6539   7.7443   7.7729   7.8385  24.2191
 24.8072  24.8305  24.8379  25.0766  25.0960  25.5424  50.5854  50.6485
 --------------------------------------------------------------
 
          Ground-State Mulliken Net Atomic Charges

     Atom                 Charge (a.u.)
  ----------------------------------------
      1 C                     0.410842
      2 C                    -0.472952
      3 O                    -0.422002
      4 C                    -0.632392
      5 C                    -0.046769
      6 C                    -0.267045
      7 O                    -0.405329
      8 C                    -0.435810
      9 C                     0.070527
     10 H                     0.166597
     11 H                     0.249858
     12 H                     0.323837
     13 H                     0.270014
     14 H                     0.273256
     15 H                     0.347848
     16 H                     0.284116
     17 H                     0.285404
  ----------------------------------------
  Sum of atomic charges =     0.000000

 -----------------------------------------------------------------
                    Cartesian Multipole Moments
 -----------------------------------------------------------------
    Charge (ESU x 10^10)
                 0.0000
    Dipole Moment (Debye)
         X      -0.9798      Y       2.8954      Z       2.3812
       Tot       3.8747
    Quadrupole Moments (Debye-Ang)
        XX     -58.1160     XY       0.1951     YY     -51.6381
        XZ      -2.2677     YZ       3.4612     ZZ     -49.1996
    Octopole Moments (Debye-Ang^2)
       XXX     -33.1937    XXY      37.5877    XYY      -2.6548
       YYY       8.6460    XXZ      19.6003    XYZ     -16.5256
       YYZ      -8.0054    XZZ      -0.4269    YZZ       9.1141
       ZZZ     -31.5198
    Hexadecapole Moments (Debye-Ang^3)
      XXXX   -1412.0559   XXXY      58.6611   XXYY    -223.4359
      XYYY      61.0143   YYYY    -188.9407   XXXZ     -13.0463
      XXYZ     -14.0382   XYYZ       5.4325   YYYZ     -57.2277
      XXZZ    -232.9238   XYZZ      25.4161   YYZZ     -64.9109
      XZZZ      20.0425   YZZZ     -49.3832   ZZZZ    -273.5878
 -----------------------------------------------------------------
 Calculating analytic gradient of the SCF energy
 Gradient of CDS energy
            1           2           3           4           5           6
    1   0.0000403   0.0009299  -0.0002780   0.0002757  -0.0001962  -0.0061762
    2  -0.0000779  -0.0000783  -0.0001000   0.0001266   0.0002491   0.0005909
    3  -0.0000726   0.0004807   0.0000535   0.0001725   0.0002736  -0.0005958
            7           8           9          10          11          12
    1   0.0058400  -0.0002354   0.0001922  -0.0001031  -0.0001641   0.0002027
    2  -0.0006712  -0.0002013  -0.0002099  -0.0002156   0.0001484   0.0002358
    3   0.0004252  -0.0003060  -0.0001090  -0.0000619   0.0000638  -0.0004292
           13          14          15          16          17
    1   0.0001422  -0.0000656  -0.0003923  -0.0001530   0.0001411
    2   0.0000783   0.0000893   0.0001823  -0.0000762  -0.0000702
    3   0.0001054   0.0000960   0.0001437  -0.0001282  -0.0001116
 Gradient of SCF Energy
            1           2           3           4           5           6
    1   0.0003687  -0.0021867   0.0057280  -0.0054386   0.0001497   0.0018288
    2  -0.0007966  -0.0039519  -0.0117269  -0.0054202  -0.0064766   0.0002026
    3  -0.0002162  -0.0075719   0.0022182  -0.0059161  -0.0079950   0.0005799
            7           8           9          10          11          12
    1   0.0034002   0.0073976  -0.0019312  -0.0004880   0.0013486  -0.0029161
    2  -0.0113339   0.0008705   0.0028324  -0.0010872   0.0051217   0.0107678
    3  -0.0132622   0.0026660   0.0021054   0.0034195   0.0034574  -0.0036460
           13          14          15          16          17
    1   0.0042547  -0.0062515  -0.0048089   0.0003671  -0.0008223
    2   0.0042322   0.0066930   0.0109021  -0.0006029  -0.0002261
    3   0.0058201   0.0068951   0.0125273  -0.0007770  -0.0003045
 Max gradient component =       1.326E-02
 RMS gradient           =       5.504E-03
 Computing fast CPCM-SWIG gradient
 Updating gradient with PCM contributions...
 -- total gradient after adding PCM contribution --
---------------------------------------------------
  Atom         X              Y              Z     
---------------------------------------------------
   1      -0.000434       0.000569       0.000530
   2       0.000132      -0.001123      -0.000875
   3      -0.000016       0.000065       0.000459
   4      -0.000405      -0.000731      -0.000261
   5       0.000580      -0.000393      -0.000356
   6      -0.000278       0.000085       0.000052
   7       0.000578      -0.000378      -0.000282
   8       0.000911       0.000047       0.000216
   9      -0.000433       0.000244      -0.000270
  10      -0.000257       0.000113       0.001019
  11       0.000104       0.000196      -0.000115
  12       0.000024       0.000607      -0.000742
  13      -0.000095      -0.000051      -0.000046
  14       0.000026      -0.000046      -0.000028
  15      -0.000385       0.000394       0.000429
  16      -0.000079       0.000136       0.000109
  17       0.000027       0.000267       0.000162
---------------------------------------------------
 Number of fixed atoms: 0
 Gradient time:  CPU 229.06 s  wall 33.21 s
 Geometry Optimization Parameters
   NAtoms,    NIC,     NZ,  NCons,   NDum,   NFix, NCnnct, MaxDiis
       17     112       0       0       0       0       0       0

 Cartesian Hessian Update
 Hessian updated using BFGS update


** GEOMETRY OPTIMIZATION IN DELOCALIZED INTERNAL COORDINATES **
   Searching for a Minimum

   Optimization Cycle:   2

                       Coordinates (Angstroms)
     ATOM                X               Y               Z
      1  C         0.9017271031   -0.1590048804    0.4074483774
      2  C         2.3912045664   -0.3538638137    0.5340489236
      3  O         3.0615371537   -0.4141211458   -0.7249443346
      4  C         0.2228023766    0.6707709342    1.2895586645
      5  C        -1.1528773355    0.8354390272    1.2074850912
      6  C        -1.8611781541    0.1665980217    0.2214099438
      7  O        -3.2240744025    0.2951869507    0.0870592609
      8  C        -1.2005146314   -0.6627939584   -0.6759634755
      9  C         0.1708737680   -0.8226141580   -0.5755157940
     10  H         2.6110766774   -1.2984804367    1.0325518835
     11  H         2.8103486027    0.4453565244    1.1493068668
     12  H         2.8935919552    0.4117841929   -1.1934497850
     13  H         0.7744107070    1.2043353554    2.0536333277
     14  H        -1.6752401396    1.4861159401    1.8975010969
     15  H        -3.5581993852    0.8946892177    0.7655994920
     16  H        -1.7680972240   -1.1760788537   -1.4402634336
     17  H         0.6810504624   -1.4715649180   -1.2746671054
   Point Group: c1    Number of degrees of freedom:    45


   Energy is   -421.996821051

 Hessian updated using BFGS update

 45 Hessian modes will be used to form the next step
  Hessian Eigenvalues:
     0.007055    0.012210    0.016691    0.018910    0.022396    0.022869
     0.023154    0.023219    0.023257    0.023310    0.023336    0.023481
     0.060386    0.073158    0.118853    0.142463    0.159329    0.159990
     0.159997    0.159999    0.160000    0.167902    0.220019    0.220703
     0.229603    0.239566    0.248858    0.250167    0.312100    0.336488
     0.340658    0.350865    0.351052    0.352452    0.354492    0.416220
     0.423397    0.424071    0.462821    0.466001    0.467623    0.497909
     0.504535    0.513086    0.530683

 Minimum search - taking simple RFO step
 Searching for Lamda that Minimizes Along All modes
 Value Taken    Lamda =  -0.00007781
 Step Taken.  Stepsize is  0.087662

                             Maximum     Tolerance    Cnvgd?
         Gradient           0.001011      0.000300      NO
         Displacement       0.046602      0.001200      NO
         Energy change     -0.000531      0.000001      NO


 New Cartesian Coordinates Obtained by Inverse Iteration

 Displacement from previous Coordinates is:  0.152587
 ----------------------------------------------------------------
             Standard Nuclear Orientation (Angstroms)
    I     Atom           X                Y                Z
 ----------------------------------------------------------------
    1      C       0.9010522671    -0.1635802348     0.4059069026
    2      C       2.3903058209    -0.3585419196     0.5321738833
    3      O       3.0635490871    -0.3881448392    -0.7261495650
    4      C       0.2251315198     0.6743922972     1.2833389030
    5      C      -1.1508559656     0.8407661691     1.2023119648
    6      C      -1.8611340517     0.1662895436     0.2213579394
    7      O      -3.2241273970     0.2971076711     0.0877914012
    8      C      -1.2041512121    -0.6709374911    -0.6710611535
    9      C       0.1673856387    -0.8331381957    -0.5709804970
   10      H       2.6116894552    -1.3170072111     1.0008801102
   11      H       2.8075601928     0.4236255969     1.1691811442
   12      H       2.8981860966     0.4499516245    -1.1706163135
   13      H       0.7791566650     1.2119186977     2.0426385945
   14      H      -1.6713025480     1.4966360346     1.8884833995
   15      H      -3.5551297216     0.9010527446     0.7622992545
   16      H      -1.7729031203    -1.1889523970    -1.4310754510
   17      H       0.6740293733    -1.4896840911    -1.2656815169
 ----------------------------------------------------------------
 Nuclear Repulsion Energy =         420.25406891 hartrees
 There are       33 alpha and       33 beta electrons
 Discretize the solute cavity surface with Lebedev spheres
	Using 110 Lebedev grid points for each H atom
	Using 194 Lebedev grid points for other atoms
	Atomic van der Waals radii will be scaled by 1.20
 Remove points where switching function is < 1.0e-08
 Keep 1264 surface tesserae and discard 1362 interior tesserae
 Molecular Surface Area = 151.016 Angst**2
 Applying Cartesian multipole field
    Component          Value
    ---------          -----
     (2,0,0)        1.00000E-11
     (0,2,0)        2.00000E-11
     (0,0,2)       -3.00000E-11
 Nucleus-field energy     =     0.0000000069 hartrees
 Requested basis set is 6-311++G(2df,2p)
 There are 120 shells and 386 basis functions
 A cutoff of  1.0D-12 yielded   6478 shell pairs
 There are     67299 function pairs (     83705 Cartesian)
 Smallest overlap matrix eigenvalue = 8.02E-07
 Linear dependence detected in AO basis
 Tighter screening thresholds may be required for diffuse basis sets
 Use S2THRESH > 14 and THRESH = 14 in case of SCF convergence issues
 Number of orthogonalized atomic orbitals = 385
 Maximum deviation from orthogonality = 6.102E-11
 Guess MOs from SCF MO coefficient file

 -----------------------------------------------------------------------
  General SCF calculation program by
  Eric Jon Sundstrom, Paul Horn, Yuezhi Mao, Dmitri Zuev, Alec White,
  David Stuck, Shaama M.S., Shane Yost, Joonho Lee, David Small,
  Daniel Levine, Susi Lehtola, Hugh Burton, Evgeny Epifanovsky,
  Bang C. Huynh
 -----------------------------------------------------------------------
 Exchange:     0.1500 Hartree-Fock + 1.0000 wB97M-V + LR-HF
 Correlation:  1.0000 wB97M-V
 Using SG-2 standard quadrature grid
 Nonlocal Correlation:  VV10 with C = 0.0100 and b = 6.00 and scale = 1.00000
 Grid used for NLC:  SG-1 standard quadrature
 
 Citation of the SMD model:
 Marenich, A.V.; Cramer, C.J.; Truhlar, D.G.
 J. Phys. Chem. B 2009, 113, 6378-6396.
 iSolventCode=           1
 Solvent: water                                                           
 
 vradii
            1           2           3           4           5           6
    1   1.8500000   1.8500000   1.5200000   1.8500000   1.8500000   1.8500000
            7           8           9          10          11          12
    1   1.5200000   1.8500000   1.8500000   1.2000000   1.2000000   1.2000000
           13          14          15          16          17
    1   1.2000000   1.2000000   1.2000000   1.2000000   1.2000000
 -------------------------------------------------------
 OpenMP BLAS3 based DFT computing Module                
 Release: version 1.0, May 2013, Q-Chem Inc. Pittsburgh 
 -------------------------------------------------------
 A restricted SCF calculation will be
 performed using Roothaan-Hall, DIIS, GDM
 SCF converges when RMS gradient is below 1.0e-07
 ---------------------------------------
  Cycle       Energy         DIIS error
 ---------------------------------------
    1    -421.9750494080      3.98e-04  Roothaan Step
 ---------------------------------------
  Cycle       Energy         DIIS error
 ---------------------------------------
    1    -421.9980883050      4.15e-04  
    2    -422.0016157380      3.10e-04  Done DIIS. Switching to GDM
 ---------------------------------------
  Cycle       Energy        RMS Gradient
 ---------------------------------------
    1    -422.0016157380      5.29e-03   Normal BFGS step
    2    -422.0018154622      5.75e-03   Normal BFGS step
    3    -422.0029747002      8.14e-04   Normal BFGS step
    4    -422.0029871610      3.53e-04   Normal BFGS step
    5    -422.0029925445      1.64e-04   Normal BFGS step
    6    -422.0029927070      4.83e-05   Normal BFGS step
    7    -422.0029927661      2.73e-05   Normal BFGS step
    8    -422.0029927691      1.08e-05   Normal BFGS step
    9    -422.0029927699      2.69e-06   Normal BFGS step
   10    -422.0029927700      1.38e-06   Normal BFGS step
   11    -422.0029927700      7.29e-07   Normal BFGS step
   12    -422.0029927700      1.20e-07   Normal BFGS step
   13    -422.0029927700      5.84e-08  Convergence criterion met
 ---------------------------------------
 SCF time:   CPU 1056.26s  wall 134.00s 
(3)  G-ENP(liq) elect-nuc-pol free energy of system     -422.002992770 a.u.
(4)  G-CDS(liq) cavity-dispersion-solvent structure 
     free energy                                                3.8327 kcal/mol
(6)  G-S(liq) free energy of system                     -421.996884918 a.u.
 SCF   energy in the final basis set =     -421.9968849176
 Total energy in the final basis set =     -421.9968849176
 
 --------------------------------------------------------------
 
                    Orbital Energies (a.u.)
 --------------------------------------------------------------
 
 Alpha MOs
 -- Occupied --
-19.3603 -19.3358 -10.4073 -10.3840 -10.3456 -10.3449 -10.3441 -10.3414
-10.3403  -1.1872  -1.1535  -0.9858  -0.8848  -0.8736  -0.7937  -0.7384
 -0.7080  -0.6543  -0.6291  -0.5837  -0.5713  -0.5496  -0.5434  -0.5253
 -0.5243  -0.4960  -0.4885  -0.4517  -0.4390  -0.4297  -0.3918  -0.3499
 -0.3139
 -- Virtual --
  0.0234   0.0354   0.0373   0.0468   0.0534   0.0563   0.0581   0.0733
  0.0779   0.0871   0.1008   0.1056   0.1098   0.1159   0.1379   0.1419
  0.1468   0.1507   0.1579   0.1609   0.1658   0.1723   0.1732   0.1797
  0.1829   0.1849   0.1931   0.1978   0.2079   0.2123   0.2217   0.2361
  0.2376   0.2527   0.2530   0.2552   0.2640   0.2743   0.2770   0.2832
  0.2985   0.3055   0.3173   0.3252   0.3337   0.3399   0.3449   0.3510
  0.3618   0.3638   0.3669   0.3772   0.3850   0.4006   0.4175   0.4193
  0.4352   0.4477   0.4647   0.4744   0.4848   0.5437   0.5563   0.5749
  0.5909   0.5987   0.6008   0.6059   0.6117   0.6193   0.6240   0.6284
  0.6467   0.6528   0.6710   0.6796   0.6890   0.6921   0.6999   0.7130
  0.7171   0.7278   0.7352   0.7400   0.7535   0.7632   0.7714   0.7731
  0.7829   0.7964   0.8011   0.8132   0.8370   0.8437   0.8536   0.8636
  0.8748   0.8871   0.9007   0.9139   0.9255   0.9312   0.9357   0.9499
  0.9923   1.0249   1.0338   1.0534   1.0628   1.0746   1.0781   1.0963
  1.1051   1.1212   1.1544   1.1629   1.1734   1.1749   1.2032   1.2097
  1.2150   1.2301   1.2403   1.2565   1.2729   1.2830   1.2981   1.3301
  1.3372   1.3606   1.3652   1.3798   1.3888   1.3979   1.4113   1.4173
  1.4466   1.4521   1.4697   1.4798   1.4937   1.5049   1.5177   1.5391
  1.5424   1.5583   1.5829   1.5929   1.6173   1.6289   1.6610   1.6752
  1.7163   1.7327   1.7433   1.7629   1.7991   1.8174   1.8597   1.8741
  1.9343   1.9517   1.9856   2.0161   2.0674   2.0793   2.0974   2.1353
  2.1503   2.1951   2.2470   2.3758   2.3814   2.4267   2.4699   2.5100
  2.5696   2.6027   2.6283   2.6571   2.6849   2.6976   2.7336   2.7980
  2.8085   2.8128   2.8271   2.8455   2.8471   2.8575   2.8596   2.8743
  2.8947   2.9012   2.9226   2.9283   2.9381   2.9663   2.9708   2.9721
  3.0047   3.0279   3.0381   3.0586   3.0628   3.0840   3.0927   3.1625
  3.1850   3.1968   3.2072   3.2225   3.2304   3.2353   3.2503   3.2678
  3.2768   3.2904   3.3144   3.3212   3.3356   3.3531   3.3804   3.3810
  3.3984   3.4291   3.4517   3.4633   3.4825   3.4842   3.4893   3.5072
  3.5323   3.5510   3.5653   3.5805   3.6136   3.6158   3.6356   3.6545
  3.6723   3.6817   3.7006   3.7526   3.7733   3.7842   3.7932   3.8094
  3.8224   3.8303   3.8495   3.8598   3.8738   3.8960   3.9073   3.9366
  3.9502   3.9732   3.9885   4.0552   4.0591   4.0942   4.1095   4.1295
  4.1401   4.1641   4.1874   4.1938   4.2202   4.2346   4.2443   4.2823
  4.3087   4.3209   4.3645   4.3869   4.4043   4.4110   4.4288   4.4568
  4.4655   4.4978   4.5121   4.5404   4.5544   4.5645   4.5883   4.6009
  4.6127   4.6150   4.6811   4.7071   4.7526   4.8042   4.8243   4.8491
  4.9681   5.0286   5.0615   5.1207   5.1380   5.2179   5.2384   5.2668
  5.3118   5.3161   5.3238   5.3718   5.3818   5.4070   5.4631   5.4828
  5.5520   5.5941   5.6535   5.6763   5.6982   5.7116   5.7810   5.7942
  5.8650   5.8719   5.9047   5.9152   5.9545   6.0587   6.1451   6.4016
  6.6164   6.7427   6.8931   7.0592   7.1011   7.2782   7.3159   7.3352
  7.3499   7.3702   7.4555   7.6518   7.7442   7.7727   7.8382  24.2198
 24.8089  24.8315  24.8371  25.0760  25.0949  25.5414  50.5867  50.6488
 --------------------------------------------------------------
 
          Ground-State Mulliken Net Atomic Charges

     Atom                 Charge (a.u.)
  ----------------------------------------
      1 C                     0.409843
      2 C                    -0.481520
      3 O                    -0.419988
      4 C                    -0.644523
      5 C                    -0.044810
      6 C                    -0.271243
      7 O                    -0.404764
      8 C                    -0.435399
      9 C                     0.088945
     10 H                     0.167907
     11 H                     0.252524
     12 H                     0.322900
     13 H                     0.268720
     14 H                     0.273976
     15 H                     0.347367
     16 H                     0.284333
     17 H                     0.285732
  ----------------------------------------
  Sum of atomic charges =     0.000000

 -----------------------------------------------------------------
                    Cartesian Multipole Moments
 -----------------------------------------------------------------
    Charge (ESU x 10^10)
                 0.0000
    Dipole Moment (Debye)
         X      -0.9861      Y       2.8844      Z       2.4153
       Tot       3.8892
    Quadrupole Moments (Debye-Ang)
        XX     -58.1710     XY       0.1177     YY     -51.3645
        XZ      -2.0818     YZ       3.5117     ZZ     -49.4260
    Octopole Moments (Debye-Ang^2)
       XXX     -32.9146    XXY      37.3755    XYY      -2.2683
       YYY       8.4454    XXZ      19.8388    XYZ     -16.4909
       YYZ      -8.1621    XZZ      -0.7771    YZZ       9.1366
       ZZZ     -31.2489
    Hexadecapole Moments (Debye-Ang^3)
      XXXX   -1413.6271   XXXY      56.4332   XXYY    -221.8172
      XYYY      59.3901   YYYY    -189.9118   XXXZ     -11.2030
      XXYZ     -13.7418   XYYZ       4.8573   YYYZ     -56.5835
      XXZZ    -234.1089   XYZZ      25.2997   YYZZ     -64.6016
      XZZZ      20.8605   YZZZ     -49.2304   ZZZZ    -272.4714
 -----------------------------------------------------------------
 Calculating analytic gradient of the SCF energy
 Gradient of CDS energy
            1           2           3           4           5           6
    1   0.0000446   0.0009303  -0.0002762   0.0002753  -0.0001965  -0.0061812
    2  -0.0000771  -0.0000783  -0.0001113   0.0001267   0.0002516   0.0006014
    3  -0.0000803   0.0005006   0.0000540   0.0001726   0.0002728  -0.0005932
            7           8           9          10          11          12
    1   0.0058457  -0.0002377   0.0001959  -0.0000988  -0.0001687   0.0001958
    2  -0.0006824  -0.0002027  -0.0002081  -0.0002152   0.0001474   0.0002463
    3   0.0004231  -0.0003044  -0.0001105  -0.0000746   0.0000648  -0.0004271
           13          14          15          16          17
    1   0.0001444  -0.0000653  -0.0003922  -0.0001532   0.0001379
    2   0.0000761   0.0000898   0.0001842  -0.0000768  -0.0000715
    3   0.0001052   0.0000952   0.0001431  -0.0001275  -0.0001138
 Gradient of SCF Energy
            1           2           3           4           5           6
    1   0.0005998  -0.0020215   0.0054256  -0.0051622  -0.0003327   0.0022347
    2  -0.0016554  -0.0025972  -0.0115419  -0.0050387  -0.0063060  -0.0000236
    3  -0.0008912  -0.0070581   0.0016751  -0.0056298  -0.0077127   0.0004020
            7           8           9          10          11          12
    1   0.0028014   0.0065401  -0.0015862  -0.0003048   0.0012817  -0.0028308
    2  -0.0107176   0.0010246   0.0029097  -0.0009019   0.0048198   0.0097764
    3  -0.0124890   0.0026388   0.0022423   0.0024515   0.0034851  -0.0023301
           13          14          15          16          17
    1   0.0042767  -0.0061775  -0.0043009   0.0004880  -0.0009315
    2   0.0042572   0.0066717   0.0102906  -0.0006317  -0.0003360
    3   0.0057610   0.0068055   0.0117052  -0.0007848  -0.0002707
 Max gradient component =       1.249E-02
 RMS gradient           =       5.200E-03
 Computing fast CPCM-SWIG gradient
 Updating gradient with PCM contributions...
 -- total gradient after adding PCM contribution --
---------------------------------------------------
  Atom         X              Y              Z     
---------------------------------------------------
   1      -0.000380       0.000003      -0.000118
   2       0.000309       0.000056      -0.000452
   3      -0.000256       0.000248       0.000443
   4      -0.000025      -0.000409       0.000136
   5       0.000108      -0.000183      -0.000097
   6       0.000129      -0.000123      -0.000088
   7       0.000036       0.000315       0.000422
   8       0.000103       0.000157       0.000179
   9      -0.000061       0.000256      -0.000227
  10      -0.000036       0.000348       0.000091
  11       0.000032      -0.000056      -0.000220
  12       0.000035      -0.000433       0.000224
  13      -0.000118      -0.000085      -0.000110
  14       0.000094      -0.000145      -0.000104
  15       0.000077      -0.000303      -0.000338
  16       0.000060       0.000131       0.000109
  17      -0.000108       0.000222       0.000149
---------------------------------------------------
 Number of fixed atoms: 0
 Gradient time:  CPU 231.40 s  wall 33.74 s
 Geometry Optimization Parameters
   NAtoms,    NIC,     NZ,  NCons,   NDum,   NFix, NCnnct, MaxDiis
       17     112       0       0       0       0       0       0

 Cartesian Hessian Update
 Hessian updated using BFGS update


** GEOMETRY OPTIMIZATION IN DELOCALIZED INTERNAL COORDINATES **
   Searching for a Minimum

   Optimization Cycle:   3

                       Coordinates (Angstroms)
     ATOM                X               Y               Z
      1  C         0.9010522671   -0.1635802348    0.4059069026
      2  C         2.3903058209   -0.3585419196    0.5321738833
      3  O         3.0635490871   -0.3881448392   -0.7261495650
      4  C         0.2251315198    0.6743922972    1.2833389030
      5  C        -1.1508559656    0.8407661691    1.2023119648
      6  C        -1.8611340517    0.1662895436    0.2213579394
      7  O        -3.2241273970    0.2971076711    0.0877914012
      8  C        -1.2041512121   -0.6709374911   -0.6710611535
      9  C         0.1673856387   -0.8331381957   -0.5709804970
     10  H         2.6116894552   -1.3170072111    1.0008801102
     11  H         2.8075601928    0.4236255969    1.1691811442
     12  H         2.8981860966    0.4499516245   -1.1706163135
     13  H         0.7791566650    1.2119186977    2.0426385945
     14  H        -1.6713025480    1.4966360346    1.8884833995
     15  H        -3.5551297216    0.9010527446    0.7622992545
     16  H        -1.7729031203   -1.1889523970   -1.4310754510
     17  H         0.6740293733   -1.4896840911   -1.2656815169
   Point Group: c1    Number of degrees of freedom:    45


   Energy is   -421.996884918

 Hessian updated using BFGS update

 45 Hessian modes will be used to form the next step
  Hessian Eigenvalues:
     0.001405    0.012187    0.016684    0.018907    0.022391    0.022857
     0.023169    0.023212    0.023258    0.023311    0.023361    0.023524
     0.064961    0.076948    0.122292    0.144887    0.159414    0.159990
     0.159997    0.159999    0.160290    0.179372    0.220018    0.222138
     0.229673    0.239846    0.250090    0.260442    0.312162    0.338778
     0.347292    0.350860    0.351507    0.352399    0.354940    0.420864
     0.423408    0.434437    0.463043    0.466371    0.468143    0.488539
     0.499475    0.530515    0.660095

 Minimum search - taking simple RFO step
 Searching for Lamda that Minimizes Along All modes
 Value Taken    Lamda =  -0.00023472
 Calculated Step too Large.  Step scaled by  0.802209
 Step Taken.  Stepsize is  0.300000

                             Maximum     Tolerance    Cnvgd?
         Gradient           0.000745      0.000300      NO
         Displacement       0.157621      0.001200      NO
         Energy change     -0.000064      0.000001      NO


 New Cartesian Coordinates Obtained by Inverse Iteration

 Displacement from previous Coordinates is:  0.536639
 ----------------------------------------------------------------
             Standard Nuclear Orientation (Angstroms)
    I     Atom           X                Y                Z
 ----------------------------------------------------------------
    1      C       0.8991791097    -0.1811239820     0.4025818691
    2      C       2.3874702742    -0.3795961162     0.5233967774
    3      O       3.0679852703    -0.2916468100    -0.7301056577
    4      C       0.2335202264     0.6853133380     1.2620243011
    5      C      -1.1427150973     0.8597629019     1.1827528847
    6      C      -1.8606946937     0.1655966491     0.2206796880
    7      O      -3.2238179751     0.3038273725     0.0892803587
    8      C      -1.2152803068    -0.6999432084    -0.6530026907
    9      C       0.1561234743    -0.8705505900    -0.5534787608
   10      H       2.6129832791    -1.3781531785     0.8942142765
   11      H       2.7969109419     0.3417330101     1.2316454325
   12      H       2.9095659336     0.5858505987    -1.0894376959
   13      H       0.7957578080     1.2364517123     2.0052209132
   14      H      -1.6563083840     1.5352081070     1.8547246588
   15      H      -3.5456521679     0.9250220571     0.7503734512
   16      H      -1.7891960620    -1.2341576319    -1.3976686350
   17      H       0.6526104693    -1.5518402300    -1.2324021709
 ----------------------------------------------------------------
 Nuclear Repulsion Energy =         420.10723214 hartrees
 There are       33 alpha and       33 beta electrons
 Discretize the solute cavity surface with Lebedev spheres
	Using 110 Lebedev grid points for each H atom
	Using 194 Lebedev grid points for other atoms
	Atomic van der Waals radii will be scaled by 1.20
 Remove points where switching function is < 1.0e-08
 Keep 1267 surface tesserae and discard 1359 interior tesserae
 Molecular Surface Area = 151.241 Angst**2
 Applying Cartesian multipole field
    Component          Value
    ---------          -----
     (2,0,0)        1.00000E-11
     (0,2,0)        2.00000E-11
     (0,0,2)       -3.00000E-11
 Nucleus-field energy     =     0.0000000072 hartrees
 Requested basis set is 6-311++G(2df,2p)
 There are 120 shells and 386 basis functions
 A cutoff of  1.0D-12 yielded   6477 shell pairs
 There are     67294 function pairs (     83710 Cartesian)
 Smallest overlap matrix eigenvalue = 8.03E-07
 Linear dependence detected in AO basis
 Tighter screening thresholds may be required for diffuse basis sets
 Use S2THRESH > 14 and THRESH = 14 in case of SCF convergence issues
 Number of orthogonalized atomic orbitals = 385
 Maximum deviation from orthogonality = 4.855E-11
 Guess MOs from SCF MO coefficient file

 -----------------------------------------------------------------------
  General SCF calculation program by
  Eric Jon Sundstrom, Paul Horn, Yuezhi Mao, Dmitri Zuev, Alec White,
  David Stuck, Shaama M.S., Shane Yost, Joonho Lee, David Small,
  Daniel Levine, Susi Lehtola, Hugh Burton, Evgeny Epifanovsky,
  Bang C. Huynh
 -----------------------------------------------------------------------
 Exchange:     0.1500 Hartree-Fock + 1.0000 wB97M-V + LR-HF
 Correlation:  1.0000 wB97M-V
 Using SG-2 standard quadrature grid
 Nonlocal Correlation:  VV10 with C = 0.0100 and b = 6.00 and scale = 1.00000
 Grid used for NLC:  SG-1 standard quadrature
 
 Citation of the SMD model:
 Marenich, A.V.; Cramer, C.J.; Truhlar, D.G.
 J. Phys. Chem. B 2009, 113, 6378-6396.
 iSolventCode=           1
 Solvent: water                                                           
 
 vradii
            1           2           3           4           5           6
    1   1.8500000   1.8500000   1.5200000   1.8500000   1.8500000   1.8500000
            7           8           9          10          11          12
    1   1.5200000   1.8500000   1.8500000   1.2000000   1.2000000   1.2000000
           13          14          15          16          17
    1   1.2000000   1.2000000   1.2000000   1.2000000   1.2000000
 -------------------------------------------------------
 OpenMP BLAS3 based DFT computing Module                
 Release: version 1.0, May 2013, Q-Chem Inc. Pittsburgh 
 -------------------------------------------------------
 A restricted SCF calculation will be
 performed using Roothaan-Hall, DIIS, GDM
 SCF converges when RMS gradient is below 1.0e-07
 ---------------------------------------
  Cycle       Energy         DIIS error
 ---------------------------------------
    1    -421.9685524235      6.31e-04  Roothaan Step
 ---------------------------------------
  Cycle       Energy         DIIS error
 ---------------------------------------
    1    -421.9976665009      4.36e-04  
    2    -422.0016382873      3.26e-04  Done DIIS. Switching to GDM
 ---------------------------------------
  Cycle       Energy        RMS Gradient
 ---------------------------------------
    1    -422.0016382873      5.36e-03   Normal BFGS step
    2    -422.0018599110      5.59e-03   Normal BFGS step
    3    -422.0031603902      7.93e-04   Normal BFGS step
    4    -422.0031748832      3.39e-04   Normal BFGS step
    5    -422.0031806942      1.43e-04   Normal BFGS step
    6    -422.0031808446      4.84e-05   Normal BFGS step
    7    -422.0031809073      2.27e-05   Normal BFGS step
    8    -422.0031809098      8.37e-06   Normal BFGS step
    9    -422.0031809103      2.66e-06   Normal BFGS step
   10    -422.0031809104      1.33e-06   Normal BFGS step
   11    -422.0031809104      7.18e-07   Normal BFGS step
   12    -422.0031809104      8.63e-08  Convergence criterion met
 ---------------------------------------
 SCF time:   CPU 1017.12s  wall 129.00s 
(3)  G-ENP(liq) elect-nuc-pol free energy of system     -422.003180910 a.u.
(4)  G-CDS(liq) cavity-dispersion-solvent structure 
     free energy                                                3.8348 kcal/mol
(6)  G-S(liq) free energy of system                     -421.997069796 a.u.
 SCF   energy in the final basis set =     -421.9970697963
 Total energy in the final basis set =     -421.9970697963
 
 --------------------------------------------------------------
 
                    Orbital Energies (a.u.)
 --------------------------------------------------------------
 
 Alpha MOs
 -- Occupied --
-19.3603 -19.3355 -10.4079 -10.3836 -10.3462 -10.3455 -10.3442 -10.3416
-10.3407  -1.1875  -1.1532  -0.9857  -0.8849  -0.8738  -0.7935  -0.7389
 -0.7079  -0.6543  -0.6292  -0.5836  -0.5713  -0.5492  -0.5432  -0.5253
 -0.5246  -0.4964  -0.4886  -0.4509  -0.4399  -0.4297  -0.3919  -0.3499
 -0.3148
 -- Virtual --
  0.0233   0.0354   0.0373   0.0471   0.0533   0.0560   0.0582   0.0722
  0.0771   0.0870   0.0998   0.1069   0.1114   0.1147   0.1371   0.1417
  0.1476   0.1515   0.1575   0.1610   0.1645   0.1717   0.1760   0.1803
  0.1827   0.1834   0.1916   0.1968   0.2081   0.2123   0.2245   0.2370
  0.2376   0.2530   0.2537   0.2549   0.2640   0.2717   0.2750   0.2853
  0.2977   0.3048   0.3167   0.3262   0.3354   0.3393   0.3439   0.3509
  0.3608   0.3630   0.3666   0.3776   0.3809   0.4002   0.4167   0.4200
  0.4331   0.4471   0.4639   0.4734   0.4821   0.5462   0.5616   0.5740
  0.5910   0.5983   0.6013   0.6056   0.6112   0.6182   0.6232   0.6306
  0.6464   0.6546   0.6670   0.6805   0.6880   0.6916   0.7018   0.7118
  0.7172   0.7248   0.7381   0.7439   0.7558   0.7624   0.7708   0.7731
  0.7851   0.7933   0.8054   0.8132   0.8362   0.8439   0.8530   0.8580
  0.8776   0.8880   0.9004   0.9137   0.9258   0.9303   0.9390   0.9489
  0.9959   1.0235   1.0330   1.0498   1.0603   1.0742   1.0796   1.0902
  1.1095   1.1207   1.1556   1.1682   1.1711   1.1737   1.2017   1.2091
  1.2149   1.2271   1.2352   1.2539   1.2740   1.2770   1.3043   1.3304
  1.3333   1.3596   1.3694   1.3740   1.3917   1.3979   1.4137   1.4160
  1.4432   1.4508   1.4703   1.4838   1.4947   1.5145   1.5158   1.5289
  1.5392   1.5588   1.5873   1.5940   1.6168   1.6298   1.6552   1.6755
  1.7147   1.7328   1.7425   1.7760   1.7996   1.8185   1.8600   1.8757
  1.9333   1.9500   1.9856   2.0178   2.0695   2.0828   2.1010   2.1348
  2.1512   2.1995   2.2485   2.3676   2.3761   2.4236   2.4656   2.5089
  2.5689   2.6113   2.6309   2.6546   2.6818   2.7017   2.7387   2.7975
  2.8075   2.8114   2.8255   2.8431   2.8471   2.8574   2.8592   2.8729
  2.8986   2.9011   2.9240   2.9296   2.9366   2.9658   2.9718   2.9748
  3.0044   3.0258   3.0424   3.0603   3.0650   3.0820   3.1043   3.1645
  3.1835   3.1956   3.2110   3.2218   3.2300   3.2349   3.2517   3.2673
  3.2708   3.2946   3.3146   3.3204   3.3382   3.3449   3.3743   3.3794
  3.4008   3.4266   3.4510   3.4592   3.4789   3.4866   3.4892   3.5099
  3.5354   3.5530   3.5649   3.5866   3.6128   3.6160   3.6314   3.6455
  3.6693   3.6855   3.6989   3.7507   3.7725   3.7846   3.7969   3.8072
  3.8252   3.8294   3.8469   3.8604   3.8777   3.8983   3.9068   3.9359
  3.9452   3.9681   3.9939   4.0518   4.0593   4.0957   4.1122   4.1305
  4.1513   4.1615   4.1865   4.1941   4.2197   4.2387   4.2472   4.2864
  4.3110   4.3253   4.3632   4.3857   4.3976   4.4117   4.4268   4.4541
  4.4663   4.4899   4.5102   4.5427   4.5570   4.5654   4.5843   4.5909
  4.6127   4.6207   4.6757   4.7077   4.7550   4.8001   4.8272   4.8486
  4.9723   5.0238   5.0640   5.1223   5.1345   5.2169   5.2343   5.2688
  5.3115   5.3147   5.3234   5.3705   5.3829   5.4050   5.4615   5.4799
  5.5505   5.5929   5.6570   5.6781   5.7008   5.7167   5.7807   5.7930
  5.8670   5.8755   5.9020   5.9128   5.9451   6.0533   6.1438   6.3984
  6.6114   6.7390   6.8893   7.0593   7.1024   7.2775   7.3223   7.3343
  7.3543   7.3771   7.4571   7.6477   7.7434   7.7711   7.8375  24.2211
 24.8090  24.8326  24.8363  25.0731  25.0920  25.5380  50.5893  50.6488
 --------------------------------------------------------------
 
          Ground-State Mulliken Net Atomic Charges

     Atom                 Charge (a.u.)
  ----------------------------------------
      1 C                     0.390928
      2 C                    -0.512001
      3 O                    -0.416683
      4 C                    -0.668646
      5 C                    -0.043448
      6 C                    -0.281238
      7 O                    -0.403515
      8 C                    -0.424824
      9 C                     0.144793
     10 H                     0.176646
     11 H                     0.255439
     12 H                     0.322545
     13 H                     0.266232
     14 H                     0.275874
     15 H                     0.346600
     16 H                     0.285077
     17 H                     0.286221
  ----------------------------------------
  Sum of atomic charges =     0.000000

 -----------------------------------------------------------------
                    Cartesian Multipole Moments
 -----------------------------------------------------------------
    Charge (ESU x 10^10)
                 0.0000
    Dipole Moment (Debye)
         X      -1.0168      Y       2.8387      Z       2.5428
       Tot       3.9443
    Quadrupole Moments (Debye-Ang)
        XX     -58.3672     XY      -0.2304     YY     -50.3973
        XZ      -1.4249     YZ       3.7016     ZZ     -50.2038
    Octopole Moments (Debye-Ang^2)
       XXX     -32.3903    XXY      36.5194    XYY      -0.9272
       YYY       7.9640    XXZ      20.7582    XYZ     -16.2790
       YYZ      -8.7153    XZZ      -1.9126    YZZ       9.0955
       ZZZ     -30.3030
    Hexadecapole Moments (Debye-Ang^3)
      XXXX   -1418.5160   XXXY      47.6543   XXYY    -215.9549
      XYYY      54.0096   YYYY    -193.9475   XXXZ      -4.7737
      XXYZ     -12.3273   XYYZ       2.7371   YYYZ     -54.1675
      XXZZ    -238.0893   XYZZ      24.4662   YYZZ     -63.6782
      XZZZ      23.7102   YZZZ     -48.5063   ZZZZ    -268.2623
 -----------------------------------------------------------------
 Calculating analytic gradient of the SCF energy
 Gradient of CDS energy
            1           2           3           4           5           6
    1   0.0000547   0.0009323  -0.0002640   0.0002748  -0.0001962  -0.0061937
    2  -0.0000586  -0.0001020  -0.0001341   0.0001248   0.0002610   0.0006367
    3  -0.0001031   0.0005626   0.0000533   0.0001732   0.0002683  -0.0005857
            7           8           9          10          11          12
    1   0.0058591  -0.0002433   0.0002246  -0.0001065  -0.0001736   0.0001664
    2  -0.0007191  -0.0002082  -0.0002118  -0.0002193   0.0001508   0.0002833
    3   0.0004181  -0.0002987  -0.0001087  -0.0001169   0.0000615  -0.0004165
           13          14          15          16          17
    1   0.0001506  -0.0000644  -0.0003914  -0.0001542   0.0001249
    2   0.0000692   0.0000922   0.0001905  -0.0000792  -0.0000761
    3   0.0001052   0.0000929   0.0001403  -0.0001251  -0.0001205
 Gradient of SCF Energy
            1           2           3           4           5           6
    1   0.0013397  -0.0017149   0.0049065  -0.0046511  -0.0012337   0.0029879
    2  -0.0036081  -0.0006165  -0.0110968  -0.0040396  -0.0059834  -0.0004630
    3  -0.0024493  -0.0056361  -0.0002518  -0.0051142  -0.0070410   0.0000404
            7           8           9          10          11          12
    1   0.0016106   0.0047244  -0.0008774  -0.0001767   0.0010234  -0.0025222
    2  -0.0100495   0.0012937   0.0030834  -0.0009323   0.0043507   0.0085460
    3  -0.0114362   0.0026083   0.0028749   0.0014025   0.0036769  -0.0003677
           13          14          15          16          17
    1   0.0045063  -0.0061308  -0.0035375   0.0006687  -0.0009231
    2   0.0045124   0.0068898   0.0096754  -0.0008155  -0.0007467
    3   0.0057150   0.0067366   0.0105698  -0.0009329  -0.0003952
 Max gradient component =       1.144E-02
 RMS gradient           =       4.827E-03
 Computing fast CPCM-SWIG gradient
 Updating gradient with PCM contributions...
 -- total gradient after adding PCM contribution --
---------------------------------------------------
  Atom         X              Y              Z     
---------------------------------------------------
   1      -0.000121      -0.001015      -0.001524
   2       0.000561       0.001509       0.000909
   3      -0.000569       0.000654       0.000122
   4       0.000590       0.000318       0.000989
   5      -0.000761       0.000317       0.000507
   6       0.000894      -0.000519      -0.000359
   7      -0.001001       0.001293       0.001246
   8      -0.001515       0.000306       0.000111
   9       0.000972       0.000306       0.000005
  10       0.000212       0.000504      -0.000915
  11      -0.000218      -0.000274      -0.000429
  12       0.000181      -0.001947       0.000993
  13      -0.000051      -0.000037      -0.000167
  14       0.000114      -0.000212      -0.000108
  15       0.000712      -0.001252      -0.001284
  16       0.000292       0.000019      -0.000028
  17      -0.000291       0.000029      -0.000070
---------------------------------------------------
 Number of fixed atoms: 0
 Gradient time:  CPU 231.15 s  wall 33.71 s
 Geometry Optimization Parameters
   NAtoms,    NIC,     NZ,  NCons,   NDum,   NFix, NCnnct, MaxDiis
       17     112       0       0       0       0       0       0

 Cartesian Hessian Update
 Hessian updated using BFGS update
**WARNING** Hereditary positive definiteness endangered
 due to small product of step size times gradient change


** GEOMETRY OPTIMIZATION IN DELOCALIZED INTERNAL COORDINATES **
   Searching for a Minimum

   Optimization Cycle:   4

                       Coordinates (Angstroms)
     ATOM                X               Y               Z
      1  C         0.8991791097   -0.1811239820    0.4025818691
      2  C         2.3874702742   -0.3795961162    0.5233967774
      3  O         3.0679852703   -0.2916468100   -0.7301056577
      4  C         0.2335202264    0.6853133380    1.2620243011
      5  C        -1.1427150973    0.8597629019    1.1827528847
      6  C        -1.8606946937    0.1655966491    0.2206796880
      7  O        -3.2238179751    0.3038273725    0.0892803587
      8  C        -1.2152803068   -0.6999432084   -0.6530026907
      9  C         0.1561234743   -0.8705505900   -0.5534787608
     10  H         2.6129832791   -1.3781531785    0.8942142765
     11  H         2.7969109419    0.3417330101    1.2316454325
     12  H         2.9095659336    0.5858505987   -1.0894376959
     13  H         0.7957578080    1.2364517123    2.0052209132
     14  H        -1.6563083840    1.5352081070    1.8547246588
     15  H        -3.5456521679    0.9250220571    0.7503734512
     16  H        -1.7891960620   -1.2341576319   -1.3976686350
     17  H         0.6526104693   -1.5518402300   -1.2324021709
   Point Group: c1    Number of degrees of freedom:    45


   Energy is   -421.997069796

 Hessian updated using BFGS update

 45 Hessian modes will be used to form the next step
  Hessian Eigenvalues:
     0.000119    0.012188    0.016845    0.018917    0.022395    0.022959
     0.023188    0.023212    0.023259    0.023318    0.023423    0.023840
     0.065726    0.083143    0.122483    0.148000    0.159973    0.159991
     0.159998    0.160233    0.164438    0.182580    0.220012    0.222031
     0.229893    0.241174    0.250109    0.274670    0.312151    0.339803
     0.348836    0.350857    0.352200    0.352573    0.354208    0.422862
     0.424088    0.433338    0.463403    0.466014    0.467962    0.496228
     0.507611    0.530639    1.121483

 Minimum search - taking simple RFO step
 Searching for Lamda that Minimizes Along All modes
 Value Taken    Lamda =  -0.00054790
[...]
 
 --------------------------------------------------------------
 
                    Orbital Energies (a.u.)
 --------------------------------------------------------------
 
 Alpha MOs
 -- Occupied --
-19.3613 -19.3352 -10.4093 -10.3832 -10.3470 -10.3465 -10.3433 -10.3419
-10.3408  -1.1884  -1.1505  -0.9863  -0.8850  -0.8749  -0.7926  -0.7407
 -0.7072  -0.6547  -0.6279  -0.5837  -0.5757  -0.5457  -0.5412  -0.5260
 -0.5246  -0.4966  -0.4903  -0.4478  -0.4421  -0.4311  -0.3900  -0.3505
 -0.3171
 -- Virtual --
  0.0235   0.0358   0.0371   0.0479   0.0544   0.0567   0.0588   0.0685
  0.0825   0.0880   0.0932   0.1055   0.1101   0.1213   0.1359   0.1421
  0.1495   0.1511   0.1551   0.1585   0.1622   0.1711   0.1766   0.1803
  0.1839   0.1879   0.1921   0.1997   0.2056   0.2110   0.2177   0.2342
  0.2364   0.2489   0.2536   0.2551   0.2617   0.2670   0.2787   0.2900
  0.3042   0.3112   0.3202   0.3244   0.3318   0.3393   0.3469   0.3532
  0.3567   0.3618   0.3700   0.3761   0.3797   0.3936   0.4038   0.4258
  0.4436   0.4449   0.4617   0.4673   0.4841   0.5491   0.5683   0.5727
  0.5891   0.5991   0.6024   0.6067   0.6099   0.6173   0.6234   0.6366
  0.6436   0.6469   0.6504   0.6644   0.6896   0.6935   0.7016   0.7112
  0.7133   0.7223   0.7250   0.7383   0.7437   0.7586   0.7639   0.7688
  0.7805   0.7899   0.8100   0.8279   0.8309   0.8421   0.8550   0.8613
  0.8844   0.8918   0.9018   0.9130   0.9233   0.9272   0.9337   0.9512
  0.9937   1.0174   1.0395   1.0531   1.0584   1.0678   1.0855   1.0925
  1.1107   1.1520   1.1619   1.1673   1.1751   1.1807   1.1941   1.2054
  1.2149   1.2279   1.2347   1.2551   1.2678   1.2770   1.3013   1.3053
  1.3298   1.3336   1.3721   1.3810   1.3884   1.4060   1.4173   1.4233
  1.4290   1.4426   1.4707   1.4764   1.4916   1.4987   1.5008   1.5420
  1.5510   1.5713   1.5770   1.5981   1.6074   1.6256   1.6644   1.6876
  1.7131   1.7191   1.7399   1.7979   1.8152   1.8461   1.8699   1.8738
  1.9194   1.9500   1.9820   2.0188   2.0515   2.0718   2.0930   2.1272
  2.1663   2.1882   2.2593   2.3409   2.3572   2.4226   2.4603   2.5054
  2.5663   2.6208   2.6399   2.6468   2.6710   2.7127   2.7280   2.7992
  2.8069   2.8070   2.8130   2.8420   2.8538   2.8582   2.8727   2.8778
  2.8856   2.9090   2.9331   2.9350   2.9407   2.9652   2.9720   2.9793
  3.0040   3.0266   3.0440   3.0596   3.0798   3.0839   3.1255   3.1483
  3.1731   3.1853   3.1934   3.2239   3.2278   3.2448   3.2551   3.2603
  3.2797   3.2980   3.3013   3.3223   3.3305   3.3379   3.3490   3.3667
  3.4009   3.4191   3.4425   3.4810   3.4842   3.4956   3.4998   3.5131
  3.5307   3.5569   3.5658   3.5768   3.6031   3.6179   3.6293   3.6477
  3.6652   3.6928   3.7267   3.7486   3.7714   3.7853   3.7934   3.8014
  3.8237   3.8267   3.8379   3.8573   3.8715   3.8911   3.9155   3.9307
  3.9525   3.9771   4.0037   4.0262   4.0566   4.1036   4.1100   4.1325
  4.1592   4.1741   4.1826   4.1933   4.2152   4.2246   4.2535   4.2760
  4.3134   4.3221   4.3671   4.3780   4.4005   4.4290   4.4336   4.4436
  4.4551   4.4647   4.5097   4.5198   4.5420   4.5747   4.5881   4.5929
  4.6068   4.6147   4.6586   4.7232   4.7476   4.7966   4.8174   4.8625
  4.9526   5.0343   5.0630   5.1136   5.1327   5.2060   5.2198   5.2800
  5.3105   5.3150   5.3239   5.3638   5.3747   5.4026   5.4534   5.4747
  5.5553   5.6077   5.6657   5.6749   5.6988   5.7156   5.7731   5.7939
  5.8544   5.8828   5.9103   5.9170   5.9212   6.0281   6.1432   6.4003
  6.5943   6.7370   6.8928   7.0584   7.0978   7.2780   7.3110   7.3275
  7.3524   7.3674   7.4547   7.6353   7.7433   7.7860   7.8376  24.2194
 24.8092  24.8270  24.8376  25.0721  25.0971  25.5391  50.5910  50.6482
 --------------------------------------------------------------
 
          Ground-State Mulliken Net Atomic Charges

     Atom                 Charge (a.u.)
  ----------------------------------------
      1 C                     0.146641
      2 C                    -0.544236
      3 O                    -0.417519
      4 C                    -0.383624
      5 C                    -0.066149
      6 C                    -0.211508
      7 O                    -0.400571
      8 C                    -0.337209
      9 C                     0.014460
     10 H                     0.203727
     11 H                     0.197770
     12 H                     0.329471
     13 H                     0.282743
     14 H                     0.269431
     15 H                     0.348410
     16 H                     0.284762
     17 H                     0.283401
  ----------------------------------------
  Sum of atomic charges =     0.000000

 -----------------------------------------------------------------
                    Cartesian Multipole Moments
 -----------------------------------------------------------------
    Charge (ESU x 10^10)
                -0.0000
    Dipole Moment (Debye)
         X      -1.2178      Y       2.4497      Z       2.9705
       Tot       4.0383
    Quadrupole Moments (Debye-Ang)
        XX     -59.3159     XY      -2.8541     YY     -46.6924
        XZ       1.0981     YZ       5.3125     ZZ     -53.0519
    Octopole Moments (Debye-Ang^2)
       XXX     -32.9165    XXY      28.9264    XYY       2.7697
       YYY       8.5214    XXZ      23.1491    XYZ     -11.7289
       YYZ     -10.3800    XZZ      -4.7055    YZZ       6.6381
       ZZZ     -28.0592
    Hexadecapole Moments (Debye-Ang^3)
      XXXX   -1429.4741   XXXY      -7.1990   XXYY    -195.0920
      XYYY      35.0429   YYYY    -219.0803   XXXZ      15.8887
      XXYZ       3.5357   XYYZ      -4.9702   YYYZ     -42.0942
      XXZZ    -248.1750   XYZZ      13.6883   YYZZ     -63.2710
      XZZZ      27.7047   YZZZ     -43.1547   ZZZZ    -237.4764
 -----------------------------------------------------------------
 Calculating analytic gradient of the SCF energy
 Gradient of CDS energy
            1           2           3           4           5           6
    1   0.0000918   0.0008626  -0.0002261   0.0002226  -0.0001709  -0.0061348
    2   0.0001475  -0.0004785  -0.0001095   0.0000365   0.0002986   0.0007923
    3  -0.0002146   0.0006060   0.0000199   0.0002385   0.0002366  -0.0005514
            7           8           9          10          11          12
    1   0.0057889  -0.0002572   0.0002544  -0.0001158  -0.0001311   0.0001750
    2  -0.0008771  -0.0002345  -0.0002168  -0.0001345   0.0002082   0.0003979
    3   0.0003974  -0.0002691  -0.0001034  -0.0002532   0.0000716  -0.0003129
           13          14          15          16          17
    1   0.0001370  -0.0000595  -0.0003783  -0.0001591   0.0001007
    2   0.0000686   0.0001043   0.0002193  -0.0000875  -0.0001347
    3   0.0001149   0.0000834   0.0001240  -0.0001118  -0.0000757
 Gradient of SCF Energy
            1           2           3           4           5           6
    1   0.0004532  -0.0019121   0.0051603  -0.0020606  -0.0004216   0.0019639
    2  -0.0029552   0.0006604  -0.0106310  -0.0036914  -0.0075119   0.0004273
    3  -0.0024733  -0.0053010  -0.0059593  -0.0050024  -0.0074634   0.0006303
            7           8           9          10          11          12
    1   0.0022439   0.0054502  -0.0047130  -0.0005984   0.0012713  -0.0031543
    2  -0.0129809   0.0007981   0.0020777  -0.0026511   0.0027000   0.0102765
    3  -0.0115731   0.0025443   0.0030488   0.0018328   0.0045647   0.0037562
           13          14          15          16          17
    1   0.0052519  -0.0060047  -0.0038463   0.0001974   0.0007190
    2   0.0055123   0.0084041   0.0126448  -0.0011093  -0.0019704
    3   0.0058129   0.0064266   0.0108934  -0.0008597  -0.0008778
 Max gradient component =       1.298E-02
 RMS gradient           =       5.373E-03
 Computing fast CPCM-SWIG gradient
 Updating gradient with PCM contributions...
 -- total gradient after adding PCM contribution --
---------------------------------------------------
  Atom         X              Y              Z     
---------------------------------------------------
   1       0.000033       0.000047       0.000043
   2      -0.000004      -0.000020      -0.000064
   3      -0.000042      -0.000029      -0.000022
   4      -0.000014      -0.000003      -0.000002
   5       0.000012       0.000005       0.000005
   6      -0.000043       0.000008       0.000009
   7       0.000035      -0.000002       0.000010
   8       0.000045      -0.000007       0.000007
   9      -0.000028      -0.000004       0.000012
  10       0.000022      -0.000012       0.000008
  11      -0.000030       0.000002      -0.000013
  12       0.000025      -0.000001      -0.000004
  13       0.000007       0.000005      -0.000024
  14       0.000008       0.000014      -0.000007
  15      -0.000002       0.000014       0.000017
  16      -0.000016      -0.000003       0.000021
  17      -0.000007      -0.000015       0.000003
---------------------------------------------------
 Number of fixed atoms: 0
 Gradient time:  CPU 242.89 s  wall 34.91 s
 Geometry Optimization Parameters
   NAtoms,    NIC,     NZ,  NCons,   NDum,   NFix, NCnnct, MaxDiis
       17     112       0       0       0       0       0       0

 Cartesian Hessian Update
 Hessian updated using BFGS update


** GEOMETRY OPTIMIZATION IN DELOCALIZED INTERNAL COORDINATES **
   Searching for a Minimum

   Optimization Cycle:  12

                       Coordinates (Angstroms)
     ATOM                X               Y               Z
      1  C         0.8939981104   -0.2674962870    0.3947414808
      2  C         2.3818798773   -0.4647346354    0.4508342732
      3  O         3.0544996543    0.1598903827   -0.6538173056
      4  C         0.2765326608    0.7139684854    1.1613718841
      5  C        -1.0914268980    0.9349554910    1.0774744880
      6  C        -1.8530128816    0.1632845181    0.2118548189
      7  O        -3.2110228360    0.3357799696    0.0880052588
      8  C        -1.2572220385   -0.8249437048   -0.5628735755
      9  C         0.1079005297   -1.0327899853   -0.4651035932
     10  H         2.6345514444   -1.5213463470    0.3833554525
     11  H         2.7767483026   -0.0767559070    1.3915931581
     12  H         2.8579247598    1.1025802230   -0.6191629491
     13  H         0.8710374403    1.3152456072    1.8381899893
     14  H        -1.5689089416    1.6983932538    1.6788808486
     15  H        -3.4993521786    1.0412442546    0.6793166842
     16  H        -1.8679747265   -1.4207824781   -1.2273762557
     17  H         0.5722898214   -1.8047388409   -1.0664856574
   Point Group: c1    Number of degrees of freedom:    45


   Energy is   -421.997639164

 Hessian updated using BFGS update

 45 Hessian modes will be used to form the next step
  Hessian Eigenvalues:
     0.001454    0.004285    0.016892    0.018869    0.022447    0.023015
     0.023200    0.023330    0.023349    0.023440    0.023681    0.024484
     0.067322    0.072939    0.121794    0.151312    0.155779    0.159958
     0.160083    0.160447    0.161557    0.181609    0.220719    0.221131
     0.227991    0.239870    0.250251    0.290006    0.320165    0.340075
     0.346151    0.350934    0.352139    0.354019    0.356754    0.421066
     0.426485    0.437891    0.457547    0.469227    0.473356    0.499146
     0.517360    0.530927    0.603907

 Minimum search - taking simple RFO step
 Searching for Lamda that Minimizes Along All modes
 Value Taken    Lamda =  -0.00000025
 Step Taken.  Stepsize is  0.007085

                             Maximum     Tolerance    Cnvgd?
         Gradient           0.000040      0.000300     YES
         Displacement       0.005101      0.001200      NO
         Energy change     -0.000000      0.000001     YES

 Final energy is   -421.997639164040     


 ******************************
 **  OPTIMIZATION CONVERGED  **
 ******************************

                       Coordinates (Angstroms)
     ATOM                X               Y               Z
      1  C         0.8939981104   -0.2674962870    0.3947414808
      2  C         2.3818798773   -0.4647346354    0.4508342732
      3  O         3.0544996543    0.1598903827   -0.6538173056
      4  C         0.2765326608    0.7139684854    1.1613718841
      5  C        -1.0914268980    0.9349554910    1.0774744880
      6  C        -1.8530128816    0.1632845181    0.2118548189
      7  O        -3.2110228360    0.3357799696    0.0880052588
      8  C        -1.2572220385   -0.8249437048   -0.5628735755
      9  C         0.1079005297   -1.0327899853   -0.4651035932
     10  H         2.6345514444   -1.5213463470    0.3833554525
     11  H         2.7767483026   -0.0767559070    1.3915931581
     12  H         2.8579247598    1.1025802230   -0.6191629491
     13  H         0.8710374403    1.3152456072    1.8381899893
     14  H        -1.5689089416    1.6983932538    1.6788808486
     15  H        -3.4993521786    1.0412442546    0.6793166842
     16  H        -1.8679747265   -1.4207824781   -1.2273762557
     17  H         0.5722898214   -1.8047388409   -1.0664856574

Z-matrix Print:
$molecule
0 1
C 
C  1 1.390057
H  2 1.083076 1 119.524208
C  2 1.388232 1 121.116472 3 -179.817652 0
H  4 1.082828 2 120.876290 1 179.797871 0
C  4 1.387367 2 119.346702 1 -0.088680 0
O  6 1.374512 4 121.922341 2 179.915849 0
H  7 0.964605 6 109.382140 4 -0.202260 0
C  6 1.389880 4 120.527200 2 0.179791 0
H  9 1.081483 6 119.481402 4 179.613482 0
C  9 1.384312 6 119.347715 4 -0.093991 0
H  11 1.083154 9 119.379194 6 179.822392 0
C  1 1.501946 2 120.808222 3 -2.599022 0
H  13 1.088496 1 110.800506 2 142.949344 0
H  13 1.091547 1 110.113092 2 23.123147 0
O  13 1.436255 1 112.215665 2 -99.518814 0
H  16 0.963591 13 107.593837 1 59.829173 0
$end

 
 --------------------------------------------------------------
 
                    Orbital Energies (a.u.)
 --------------------------------------------------------------
 
 Alpha MOs
 -- Occupied --
-19.3613 -19.3352 -10.4093 -10.3832 -10.3470 -10.3465 -10.3433 -10.3419
-10.3408  -1.1884  -1.1505  -0.9863  -0.8850  -0.8749  -0.7926  -0.7407
 -0.7072  -0.6547  -0.6279  -0.5837  -0.5757  -0.5457  -0.5412  -0.5260
 -0.5246  -0.4966  -0.4903  -0.4478  -0.4421  -0.4311  -0.3900  -0.3505
 -0.3171
 -- Virtual --
  0.0235   0.0358   0.0371   0.0479   0.0544   0.0567   0.0588   0.0685
  0.0825   0.0880   0.0932   0.1055   0.1101   0.1213   0.1359   0.1421
  0.1495   0.1511   0.1551   0.1585   0.1622   0.1711   0.1766   0.1803
  0.1839   0.1879   0.1921   0.1997   0.2056   0.2110   0.2177   0.2342
  0.2364   0.2489   0.2536   0.2551   0.2617   0.2670   0.2787   0.2900
  0.3042   0.3112   0.3202   0.3244   0.3318   0.3393   0.3469   0.3532
  0.3567   0.3618   0.3700   0.3761   0.3797   0.3936   0.4038   0.4258
  0.4436   0.4449   0.4617   0.4673   0.4841   0.5491   0.5683   0.5727
  0.5891   0.5991   0.6024   0.6067   0.6099   0.6173   0.6234   0.6366
  0.6436   0.6469   0.6504   0.6644   0.6896   0.6935   0.7016   0.7112
  0.7133   0.7223   0.7250   0.7383   0.7437   0.7586   0.7639   0.7688
  0.7805   0.7899   0.8100   0.8279   0.8309   0.8421   0.8550   0.8613
  0.8844   0.8918   0.9018   0.9130   0.9233   0.9272   0.9337   0.9512
  0.9937   1.0174   1.0395   1.0531   1.0584   1.0678   1.0855   1.0925
  1.1107   1.1520   1.1619   1.1673   1.1751   1.1807   1.1941   1.2054
  1.2149   1.2279   1.2347   1.2551   1.2678   1.2770   1.3013   1.3053
  1.3298   1.3336   1.3721   1.3810   1.3884   1.4060   1.4173   1.4233
  1.4290   1.4426   1.4707   1.4764   1.4916   1.4987   1.5008   1.5420
  1.5510   1.5713   1.5770   1.5981   1.6074   1.6256   1.6644   1.6876
  1.7131   1.7191   1.7399   1.7979   1.8152   1.8461   1.8699   1.8738
  1.9194   1.9500   1.9820   2.0188   2.0515   2.0718   2.0930   2.1272
  2.1663   2.1882   2.2593   2.3409   2.3572   2.4226   2.4603   2.5054
  2.5663   2.6208   2.6399   2.6468   2.6710   2.7127   2.7280   2.7992
  2.8069   2.8070   2.8130   2.8420   2.8538   2.8582   2.8727   2.8778
  2.8856   2.9090   2.9331   2.9350   2.9407   2.9652   2.9720   2.9793
  3.0040   3.0266   3.0440   3.0596   3.0798   3.0839   3.1255   3.1483
  3.1731   3.1853   3.1934   3.2239   3.2278   3.2448   3.2551   3.2603
  3.2797   3.2980   3.3013   3.3223   3.3305   3.3379   3.3490   3.3667
  3.4009   3.4191   3.4425   3.4810   3.4842   3.4956   3.4998   3.5131
  3.5307   3.5569   3.5658   3.5768   3.6031   3.6179   3.6293   3.6477
  3.6652   3.6928   3.7267   3.7486   3.7714   3.7853   3.7934   3.8014
  3.8237   3.8267   3.8379   3.8573   3.8715   3.8911   3.9155   3.9307
  3.9525   3.9771   4.0037   4.0262   4.0566   4.1036   4.1100   4.1325
  4.1592   4.1741   4.1826   4.1933   4.2152   4.2246   4.2535   4.2760
  4.3134   4.3221   4.3671   4.3780   4.4005   4.4290   4.4336   4.4436
  4.4551   4.4647   4.5097   4.5198   4.5420   4.5747   4.5881   4.5929
  4.6068   4.6147   4.6586   4.7232   4.7476   4.7966   4.8174   4.8625
  4.9526   5.0343   5.0630   5.1136   5.1327   5.2060   5.2198   5.2800
  5.3105   5.3150   5.3239   5.3638   5.3747   5.4026   5.4534   5.4747
  5.5553   5.6077   5.6657   5.6749   5.6988   5.7156   5.7731   5.7939
  5.8544   5.8828   5.9103   5.9170   5.9212   6.0281   6.1432   6.4003
  6.5943   6.7370   6.8928   7.0584   7.0978   7.2780   7.3110   7.3275
  7.3524   7.3674   7.4547   7.6353   7.7433   7.7860   7.8376  24.2194
 24.8092  24.8270  24.8376  25.0721  25.0971  25.5391  50.5910  50.6482
 --------------------------------------------------------------
 
          Ground-State Mulliken Net Atomic Charges

     Atom                 Charge (a.u.)
  ----------------------------------------
      1 C                     0.146641
      2 C                    -0.544236
      3 O                    -0.417519
      4 C                    -0.383624
      5 C                    -0.066149
      6 C                    -0.211508
      7 O                    -0.400571
      8 C                    -0.337209
      9 C                     0.014460
     10 H                     0.203727
     11 H                     0.197770
     12 H                     0.329471
     13 H                     0.282743
     14 H                     0.269431
     15 H                     0.348410
     16 H                     0.284762
     17 H                     0.283401
  ----------------------------------------
  Sum of atomic charges =     0.000000

 -----------------------------------------------------------------
                    Cartesian Multipole Moments
 -----------------------------------------------------------------
    Charge (ESU x 10^10)
                -0.0000
    Dipole Moment (Debye)
         X      -1.2178      Y       2.4497      Z       2.9705
       Tot       4.0383
    Quadrupole Moments (Debye-Ang)
        XX     -59.3159     XY      -2.8541     YY     -46.6924
        XZ       1.0981     YZ       5.3125     ZZ     -53.0519
    Octopole Moments (Debye-Ang^2)
       XXX     -32.9165    XXY      28.9264    XYY       2.7697
       YYY       8.5214    XXZ      23.1491    XYZ     -11.7289
       YYZ     -10.3800    XZZ      -4.7055    YZZ       6.6381
       ZZZ     -28.0592
    Hexadecapole Moments (Debye-Ang^3)
      XXXX   -1429.4741   XXXY      -7.1990   XXYY    -195.0920
      XYYY      35.0429   YYYY    -219.0803   XXXZ      15.8887
      XXYZ       3.5357   XYYZ      -4.9702   YYYZ     -42.0942
      XXZZ    -248.1750   XYZZ      13.6883   YYZZ     -63.2710
      XZZZ      27.7047   YZZZ     -43.1547   ZZZZ    -237.4764
 -----------------------------------------------------------------
 Total job time:  2039.15s(wall), 15716.88s(cpu) 
 Thu Apr 27 14:00:09 2023

        *************************************************************
        *                                                           *
        *  Thank you very much for using Q-Chem.  Have a nice day.  *
        *                                                           *
        *************************************************************


