
Running Job 1 of 1 Q_in.in
qchem Q_in.in_426997.0 /scratch/ari.fischer/qChem1409920.hpc-mn1/qchem426997/ 0
/usr/local/qchem-5.4.1/exe/qcprog.exe_s Q_in.in_426997.0 /scratch/ari.fischer/qChem1409920.hpc-mn1/qchem426997/
                  Welcome to Q-Chem
     A Quantum Leap Into The Future Of Chemistry


 Q-Chem 5.4, Q-Chem, Inc., Pleasanton, CA (2021)

 License issued to: Nanyang Technological University (site)

 E. Epifanovsky,  A. T. B. Gilbert,  Xintian Feng,  Joonho Lee,  Yuezhi Mao,  
 N. Mardirossian,  P. Pokhilko,  A. White,  M. Wormit,  M. P. Coons,  
 A. L. Dempwolff,  Zhengting Gan,  D. Hait,  P. R. Horn,  L. D. Jacobson,  
 I. Kaliman,  J. Kussmann,  A. W. Lange,  Ka Un Lao,  D. S. Levine,  Jie Liu,  
 S. C. McKenzie,  A. F. Morrison,  K. Nanda,  F. Plasser,  D. R. Rehn,  
 M. L. Vidal,  Zhi-Qiang You,  Ying Zhu,  B. Alam,  B. Albrecht,  
 A. Aldossary,  E. Alguire,  J. H. Andersen,  D. Barton,  K. Begam,  A. Behn,  
 Y. A. Bernard,  E. J. Berquist,  H. Burton,  A. Carreras,  K. Carter-Fenk,  
 R. Chakraborty,  A. D. Chien,  K. D. Closser,  V. Cofer-Shabica,  
 S. Dasgupta,  Jia Deng,  M. de Wergifosse,  M. Diedenhofen,  Hainam Do,  
 S. Ehlert,  Po-Tung Fang,  S. Fatehi,  Qingguo Feng,  T. Friedhoff,  
 J. Gayvert,  Qinghui Ge,  G. Gidofalvi,  M. Goldey,  J. Gomes,  
 C. Gonzalez-Espinoza,  S. Gulania,  A. Gunina,  M. W. D. Hanson-Heine,  
 P. H. P. Harbach,  A. W. Hauser,  M. F. Herbst,  M. Hernandez Vera,  
 M. Hodecker,  Z. C. Holden,  S. Houck,  Xunkun Huang,  Kerwin Hui,  
 B. C. Huynh,  M. Ivanov,  Hyunjun Ji,  Hanjie Jiang,  B. Kaduk,  S. Kaehler,  
 K. Khistyaev,  Jaehoon Kim,  P. Klunzinger,  Z. Koczor-Benda,  
 Joong Hoon Koh,  D. Kosenkov,  L. Koulias,  T. Kowalczyk,  C. M. Krauter,  
 K. Kue,  A. Kunitsa,  T. Kus,  A. Landau,  K. V. Lawler,  D. Lefrancois,  
 S. Lehtola,  Rain Li,  Yi-Pei Li,  Jiashu Liang,  M. Liebenthal,  
 Hung-Hsuan Lin,  You-Sheng Lin,  Fenglai Liu,  Kuan-Yu Liu,  
 M. Loipersberger,  A. Luenser,  A. Manjanath,  P. Manohar,  E. Mansoor,  
 S. F. Manzer,  Shan-Ping Mao,  A. V. Marenich,  T. Markovich,  S. Mason,  
 S. A. Maurer,  P. F. McLaughlin,  M. F. S. J. Menger,  J.-M. Mewes,  
 S. A. Mewes,  P. Morgante,  J. W. Mullinax,  K. J. Oosterbaan,  G. Paran,  
 Alexander C. Paul,  Suranjan K. Paul,  F. Pavosevic,  Zheng Pei,  S. Prager,  
 E. I. Proynov,  E. Ramos,  B. Rana,  A. E. Rask,  A. Rettig,  R. M. Richard,  
 F. Rob,  E. Rossomme,  T. Scheele,  M. Scheurer,  M. Schneider,  
 N. Sergueev,  S. M. Sharada,  W. Skomorowski,  D. W. Small,  C. J. Stein,  
 Yu-Chuan Su,  E. J. Sundstrom,  Zhen Tao,  J. Thirman,  T. Tsuchimochi,  
 N. M. Tubman,  S. P. Veccham,  O. Vydrov,  J. Wenzel,  J. Witte,  A. Yamada,  
 Kun Yao,  S. Yeganeh,  S. R. Yost,  A. Zech,  Igor Ying Zhang,  Xing Zhang,  
 Yu Zhang,  D. Zuev,  A. Aspuru-Guzik,  A. T. Bell,  N. A. Besley,  
 K. B. Bravaya,  B. R. Brooks,  D. Casanova,  Jeng-Da Chai,  S. Coriani,  
 C. J. Cramer,  A. E. DePrince, III,  R. A. DiStasio Jr.,  A. Dreuw,  
 B. D. Dunietz,  T. R. Furlani,  W. A. Goddard III,  S. Grimme,  
 S. Hammes-Schiffer,  T. Head-Gordon,  W. J. Hehre,  Chao-Ping Hsu,  
 T.-C. Jagau,  Yousung Jung,  A. Klamt,  Jing Kong,  D. S. Lambrecht,  
 WanZhen Liang,  N. J. Mayhall,  C. W. McCurdy,  J. B. Neaton,  
 C. Ochsenfeld,  J. A. Parkhill,  R. Peverati,  V. A. Rassolov,  Yihan Shao,  
 L. V. Slipchenko,  T. Stauch,  R. P. Steele,  J. E. Subotnik,  
 A. J. W. Thom,  A. Tkatchenko,  D. G. Truhlar,  T. Van Voorhis,  
 T. A. Wesolowski,  K. B. Whaley,  H. L. Woodcock III,  P. M. Zimmerman,  
 S. Faraji,  P. M. W. Gill,  M. Head-Gordon,  J. M. Herbert,  A. I. Krylov

 Additional authors for Version 5.4.1: 
 S. Kotaru,  Shaozhi Li,  Xiangyuan Li,  F. Matz,  A. Molle,  Haisheng Ren,  
 Yingli Su,  Hung-Yi Tsai,  C. Utku,  Fang Wang

 Contributors to earlier versions of Q-Chem not listed above: 
 R. D. Adamson,  B. Austin,  R. Baer,  J. Baker,  G. J. O. Beran,  
 K. Brandhorst,  S. T. Brown,  E. F. C. Byrd,  A. K. Chakraborty,  
 G. K. L. Chan,  Chun-Min Chang,  Yunqing Chen,  C.-L. Cheng,  
 Siu Hung Chien,  D. M. Chipman,  D. L. Crittenden,  H. Dachsel,  
 R. J. Doerksen,  A. D. Dutoi,  R. G. Edgar,  J. Fosso-Tande,  
 L. Fusti-Molnar,  D. Ghosh,  A. Ghysels,  A. Golubeva-Zadorozhnaya,  
 J. Gonthier,  M. S. Gordon,  S. R. Gwaltney,  G. Hawkins,  J. E. Herr,  
 A. Heyden,  S. Hirata,  E. G. Hohenstein,  G. Kedziora,  F. J. Keil,  
 C. Kelley,  Jihan Kim,  R. A. King,  R. Z. Khaliullin,  P. P. Korambath,  
 W. Kurlancheek,  A. Laurent,  A. M. Lee,  M. S. Lee,  S. V. Levchenko,  
 Ching Yeh Lin,  D. Liotard,  E. Livshits,  R. C. Lochan,  I. Lotan,  
 L. A. Martinez-Martinez,  P. E. Maslen,  N. Nair,  D. P. O'Neill,  
 D. Neuhauser,  E. Neuscamman,  C. M. Oana,  R. Olivares-Amaya,  R. Olson,  
 T. M. Perrine,  B. Peters,  P. A. Pieniazek,  A. Prociuk,  Y. M. Rhee,  
 J. Ritchie,  M. A. Rohrdanz,  E. Rosta,  N. J. Russ,  H. F. Schaefer III,  
 M. W. Schmidt,  N. E. Schultz,  S. Sharma,  N. Shenvi,  C. D. Sherrill,  
 A. C. Simmonett,  A. Sodt,  T. Stein,  D. Stuck,  K. S. Thanthiriwatte,  
 V. Vanovschi,  L. Vogt,  Tao Wang,  A. Warshel,  M. A. Watson,  
 C. F. Williams,  Q. Wu,  X. Xu,  Jun Yang,  W. Zhang,  Yan Zhao

 Please cite Q-Chem as follows:
 Y. Shao et al., Mol. Phys. 113, 184-215 (2015)
 DOI: 10.1080/00268976.2014.952696

 Q-Chem 5.4.1 for Intel X86 EM64T Linux

 Parts of Q-Chem use Armadillo 9.800.1 (Horizon Scraper).
 http://arma.sourceforge.net/

 Q-Chem begins on Fri Jan 20 16:48:14 2023  

 Host: 
0

     Scratch files written to /scratch/ari.fischer/qChem1409920.hpc-mn1/qchem426997//
 Aug1521 |scratch|qcdevops|jenkins|workspace|build_RNUM 8249   
 Processing $rem in /usr/local/qchem-5.4.1/config/preferences:
 Processing $rem in /home/ari.fischer/.qchemrc:
 Symmetry turned off for PCM/SM12/SMD calculation


!!********************************************.
!!******************Warning*******************.
!!Desired Analytical derivatives not available.
!!Finite difference job might take a long time.
!!********************************************.
!!********************************************.


 2-order derivative to be evaluated numerically with 1-order analytical derivatives

 Checking the input file for inconsistencies... 	...done.

--------------------------------------------------------------
User input:
--------------------------------------------------------------
$molecule
0 1
C         0.6483783872   -0.3974544840    0.0000000000
O         1.7131351852    0.1664069197    0.0000000000
H         0.5430712774   -1.4914309589    0.0000000000
C        -0.6483783872    0.3974544840    0.0000000000
H        -0.5430712774    1.4914309589    0.0000000000
O        -1.7131351852   -0.1664069197    0.0000000000
$end

$rem
BASIS = 6-311++G(2df,2p)
GUI = 2
JOB_TYPE = Frequency
METHOD = wB97M-V
SOLVENT_METHOD = SMD
SCF_ALGORITHM = DIIS_GDM
MAX_SCF_CYCLES = 400
SCF_CONVERGENCE = 7
THRESH = 12
UNRESTRICTED = 1
SYMMETRY_IGNORE = 1
$end
--------------------------------------------------------------
 ----------------------------------------------------------------
             Standard Nuclear Orientation (Angstroms)
    I     Atom           X                Y                Z
 ----------------------------------------------------------------
    1      C       0.6483783872    -0.3974544840     0.0000000000
    2      O       1.7131351852     0.1664069197     0.0000000000
    3      H       0.5430712774    -1.4914309589     0.0000000000
    4      C      -0.6483783872     0.3974544840     0.0000000000
    5      H      -0.5430712774     1.4914309589     0.0000000000
    6      O      -1.7131351852    -0.1664069197     0.0000000000
 ----------------------------------------------------------------
 Nuclear Repulsion Energy =         102.13356121 hartrees
 There are       15 alpha and       15 beta electrons
 Requested basis set is 6-311++G(2df,2p)
 There are 44 shells and 156 basis functions

 Total QAlloc Memory Limit 288000 MB
 Mega-Array Size       188 MB
 MEM_STATIC part       192 MB
 
 Citation of the SMD model:
 Marenich, A.V.; Cramer, C.J.; Truhlar, D.G.
 J. Phys. Chem. B 2009, 113, 6378-6396.
 iSolventCode=           1
 Solvent: water                                                           
 
 vradii
            1           2           3           4           5           6
    1   1.8500000   1.5200000   1.2000000   1.8500000   1.2000000   1.5200000
 Changing PCM_VDW_RADII to SMD_RADIUS
 Discretize the solute cavity surface with Lebedev spheres
	Using 110 Lebedev grid points for each H atom
	Using 194 Lebedev grid points for other atoms
	Atomic van der Waals radii will be scaled by 1.20
 Remove points where switching function is < 1.0e-08
 Keep 586 surface tesserae and discard 410 interior tesserae
 Molecular Surface Area = 77.418 Angst**2

                       Distance Matrix (Angstroms)
             C (  1)   O (  2)   H (  3)   C (  4)   H (  5)
   O (  2)  1.204843
   H (  3)  1.099033  2.029156
   C (  4)  1.521006  2.372789  2.233258
   H (  5)  2.233258  2.616516  3.174456  1.099033
   O (  6)  2.372789  3.442397  2.616516  1.204843  2.029156
 
 A cutoff of  1.0D-12 yielded    973 shell pairs
 There are     12270 function pairs (     15635 Cartesian)
 Smallest overlap matrix eigenvalue = 1.81E-04
 Guess from superposition of atomic densities
 Warning:  Energy on first SCF cycle will be non-variational
 SAD guess density has 30.000000 electrons

 -----------------------------------------------------------------------
  General SCF calculation program by
  Eric Jon Sundstrom, Paul Horn, Yuezhi Mao, Dmitri Zuev, Alec White,
  David Stuck, Shaama M.S., Shane Yost, Joonho Lee, David Small,
  Daniel Levine, Susi Lehtola, Hugh Burton, Evgeny Epifanovsky,
  Bang C. Huynh
 -----------------------------------------------------------------------
 Exchange:     0.1500 Hartree-Fock + 1.0000 wB97M-V + LR-HF
 Correlation:  1.0000 wB97M-V
 Using SG-2 standard quadrature grid
 Nonlocal Correlation:  VV10 with C = 0.0100 and b = 6.00 and scale = 1.00000
 Grid used for NLC:  SG-1 standard quadrature
 using 8 threads for integral computing
 -------------------------------------------------------
 OpenMP Integral computing Module                
 Release: version 1.0, May 2013, Q-Chem Inc. Pittsburgh 
 -------------------------------------------------------
 
 Citation of the SMD model:
 Marenich, A.V.; Cramer, C.J.; Truhlar, D.G.
 J. Phys. Chem. B 2009, 113, 6378-6396.
 iSolventCode=           1
 Solvent: water                                                           
 
 vradii
            1           2           3           4           5           6
    1   1.8500000   1.5200000   1.2000000   1.8500000   1.2000000   1.5200000
 -------------------------------------------------------
 OpenMP BLAS3 based DFT computing Module                
 Release: version 1.0, May 2013, Q-Chem Inc. Pittsburgh 
 -------------------------------------------------------
 A unrestricted SCF calculation will be
 performed using DIIS, GDM
 SCF converges when RMS gradient is below 1.0e-07
 ---------------------------------------
  Cycle       Energy         DIIS error
 ---------------------------------------
    1    -228.4645379516      2.03e-02  
    2    -227.7353275748      3.27e-03  Done DIIS. Switching to GDM
 ---------------------------------------
  Cycle       Energy        RMS Gradient
 ---------------------------------------
    1    -227.7353275748      2.15e-01   Descent step
    2    -227.8352847143      2.59e-02   Normal BFGS step
    3    -227.8423203645      4.43e-03   Normal BFGS step
    4    -227.8426311267      1.42e-03   Normal BFGS step
    5    -227.8426472022      2.74e-04   Normal BFGS step
    6    -227.8426486553      6.93e-05   Normal BFGS step
    7    -227.8426487336      2.00e-05   Normal BFGS step
    8    -227.8426487370      6.40e-06   Normal BFGS step
    9    -227.8426487372      8.87e-07   Normal BFGS step
   10    -227.8426487372      1.77e-07   Normal BFGS step
   11    -227.8426487372      2.56e-08  Convergence criterion met
 ---------------------------------------
 SCF time:   CPU 107.65s  wall 14.00s 
<S^2> =         -0.000000000
(3)  G-ENP(liq) elect-nuc-pol free energy of system     -227.842648737 a.u.
(4)  G-CDS(liq) cavity-dispersion-solvent structure 
     free energy                                                4.7468 kcal/mol
(6)  G-S(liq) free energy of system                     -227.835084275 a.u.
 SCF   energy in the final basis set =     -227.8350842752
 Total energy in the final basis set =     -227.8350842752
 
 --------------------------------------------------------------
 
                    Orbital Energies (a.u.)
 --------------------------------------------------------------
 
 Alpha MOs
 -- Occupied --
-19.3702 -19.3702 -10.4544 -10.4542  -1.2216  -1.2080  -0.8237  -0.7104
 -0.6123  -0.6119  -0.5703  -0.5580  -0.5018  -0.4415  -0.3712
 -- Virtual --
 -0.0198   0.0365   0.0461   0.0707   0.0896   0.0920   0.1005   0.1187
  0.1391   0.1431   0.1555   0.1829   0.2364   0.2401   0.2414   0.2600
  0.2925   0.3043   0.3170   0.3268   0.3448   0.3665   0.4069   0.4724
  0.4808   0.5640   0.5916   0.6109   0.6143   0.6444   0.6694   0.6787
  0.6790   0.7545   0.7905   0.8126   0.8301   0.8942   1.0190   1.0503
  1.0722   1.0731   1.0906   1.1124   1.1418   1.1472   1.1729   1.1880
  1.1885   1.2302   1.2681   1.3297   1.3828   1.4540   1.5610   1.5711
  1.5975   1.7017   1.7780   1.7813   1.8338   1.8634   1.9856   2.0673
  2.1516   2.2513   2.4662   2.4833   2.5152   2.6282   2.6432   2.6778
  2.7882   2.8275   2.8934   2.9490   2.9792   2.9944   3.0543   3.0889
  3.1423   3.1953   3.2906   3.3029   3.3626   3.3927   3.4035   3.4232
  3.4825   3.5434   3.5835   3.6841   3.7054   3.7205   3.8432   3.8930
  3.9160   4.1101   4.1746   4.2014   4.2278   4.2397   4.5084   4.6823
  4.7074   5.0813   5.1159   5.1443   5.1547   5.1681   5.1821   5.1822
  5.2944   5.3749   5.4496   5.5394   5.5616   5.5853   5.5991   5.8385
  5.9067   6.3333   6.3472   6.5790   6.8456   6.9089   6.9262   6.9279
  7.0482   7.0885   7.1323   7.2643   7.3209   7.4964   7.5286   7.6847
  7.7483  24.8478  24.9737  50.6788  50.6896
 
 Beta MOs
 -- Occupied --
-19.3702 -19.3702 -10.4544 -10.4542  -1.2216  -1.2080  -0.8237  -0.7104
 -0.6123  -0.6119  -0.5703  -0.5580  -0.5018  -0.4415  -0.3712
 -- Virtual --
 -0.0198   0.0365   0.0461   0.0707   0.0896   0.0920   0.1005   0.1187
  0.1391   0.1431   0.1555   0.1829   0.2364   0.2401   0.2414   0.2600
  0.2925   0.3043   0.3170   0.3268   0.3448   0.3665   0.4069   0.4724
  0.4808   0.5640   0.5916   0.6109   0.6143   0.6444   0.6694   0.6787
  0.6790   0.7545   0.7905   0.8126   0.8301   0.8942   1.0190   1.0503
  1.0722   1.0731   1.0906   1.1124   1.1418   1.1472   1.1729   1.1880
  1.1885   1.2302   1.2681   1.3297   1.3828   1.4540   1.5610   1.5711
  1.5975   1.7017   1.7780   1.7813   1.8338   1.8634   1.9856   2.0673
  2.1516   2.2513   2.4662   2.4833   2.5152   2.6282   2.6432   2.6778
  2.7882   2.8275   2.8934   2.9490   2.9792   2.9944   3.0543   3.0889
  3.1423   3.1953   3.2906   3.3029   3.3626   3.3927   3.4035   3.4232
  3.4825   3.5434   3.5835   3.6841   3.7054   3.7205   3.8432   3.8930
  3.9160   4.1101   4.1746   4.2014   4.2278   4.2397   4.5084   4.6823
  4.7074   5.0813   5.1159   5.1443   5.1547   5.1681   5.1821   5.1822
  5.2944   5.3749   5.4496   5.5394   5.5616   5.5853   5.5991   5.8385
  5.9067   6.3333   6.3472   6.5790   6.8456   6.9089   6.9262   6.9279
  7.0482   7.0885   7.1323   7.2643   7.3209   7.4964   7.5286   7.6847
  7.7483  24.8478  24.9737  50.6788  50.6896
 --------------------------------------------------------------
 
          Ground-State Mulliken Net Atomic Charges

     Atom                 Charge (a.u.)    Spin (a.u.)
  --------------------------------------------------------
      1 C                     0.135355       0.000000
      2 O                    -0.327573       0.000000
      3 H                     0.192219       0.000000
      4 C                     0.135355       0.000000
      5 H                     0.192219       0.000000
      6 O                    -0.327573       0.000000
  --------------------------------------------------------
  Sum of atomic charges =    -0.000000
  Sum of spin   charges =     0.000000

 -----------------------------------------------------------------
                    Cartesian Multipole Moments
 -----------------------------------------------------------------
    Charge (ESU x 10^10)
                 0.0000
    Dipole Moment (Debye)
         X      -0.0000      Y      -0.0000      Z      -0.0000
       Tot       0.0000
    Quadrupole Moments (Debye-Ang)
        XX     -34.3125     XY      -3.1484     YY     -20.0474
        XZ       0.0000     YZ       0.0000     ZZ     -21.4876
    Octopole Moments (Debye-Ang^2)
       XXX      -0.0000    XXY      -0.0000    XYY       0.0000
       YYY      -0.0000    XXZ      -0.0000    XYZ       0.0000
       YYZ      -0.0000    XZZ      -0.0000    YZZ      -0.0000
       ZZZ      -0.0000
    Hexadecapole Moments (Debye-Ang^3)
      XXXX    -298.7437   XXXY      -1.4688   XXYY     -51.6517
      XYYY      -3.6437   YYYY     -44.3914   XXXZ       0.0000
      XXYZ       0.0000   XYYZ      -0.0000   YYYZ       0.0000
      XXZZ     -44.1214   XYZZ       0.2920   YYZZ     -12.1213
      XZZZ       0.0000   YZZZ       0.0000   ZZZZ     -19.2179
 -----------------------------------------------------------------
 Calculating analytic gradient of the SCF energy
 Gradient of CDS energy
            1           2           3           4           5           6
    1   0.0027803  -0.0012314  -0.0001493  -0.0027803   0.0001493   0.0012314
    2  -0.0001056  -0.0005719  -0.0000721   0.0001056   0.0000721   0.0005719
    3  -0.0000000   0.0000000  -0.0000000   0.0000000  -0.0000000  -0.0000000
 Gradient of SCF Energy
            1           2           3           4           5           6
    1  -0.0017164   0.0087578  -0.0009609   0.0017164   0.0009609  -0.0087578
    2   0.0072975   0.0037649  -0.0109315  -0.0072975   0.0109315  -0.0037649
    3   0.0000000  -0.0000000   0.0000000  -0.0000000  -0.0000000  -0.0000000
 Max gradient component =       1.093E-02
 RMS gradient           =       5.452E-03
 Computing fast CPCM-SWIG gradient
 Updating gradient with PCM contributions...
 -- total gradient after adding PCM contribution --
---------------------------------------------------
  Atom         X              Y              Z     
---------------------------------------------------
   1       0.000333      -0.000224      -0.000000
   2       0.000017       0.000062       0.000000
   3      -0.000005       0.000103      -0.000000
   4      -0.000333       0.000224       0.000000
   5       0.000005      -0.000103       0.000000
   6      -0.000017      -0.000062      -0.000000
---------------------------------------------------
 Number of fixed atoms: 0
 Gradient time:  CPU 22.66 s  wall 3.26 s
 ######################################################
 ######################################################
 # Starting finite difference calculation for IDERIV  #
 Finite diff step size:  1.88973e-03 a.u.
 ----------------------------------------------------------------
             Standard Nuclear Orientation (Angstroms)
    I     Atom           X                Y                Z
 ----------------------------------------------------------------
    1      C       0.6493783872    -0.3974544840     0.0000000000
    2      O       1.7131351852     0.1664069197     0.0000000000
    3      H       0.5430712774    -1.4914309589     0.0000000000
    4      C      -0.6483783872     0.3974544840     0.0000000000
    5      H      -0.5430712774     1.4914309589     0.0000000000
    6      O      -1.7131351852    -0.1664069197     0.0000000000
 ----------------------------------------------------------------
 Nuclear Repulsion Energy =         102.13693600 hartrees
 There are       15 alpha and       15 beta electrons
 Discretize the solute cavity surface with Lebedev spheres
	Using 110 Lebedev grid points for each H atom
	Using 194 Lebedev grid points for other atoms
	Atomic van der Waals radii will be scaled by 1.20
 Remove points where switching function is < 1.0e-08
 Keep 587 surface tesserae and discard 409 interior tesserae
 Molecular Surface Area = 77.421 Angst**2

                       Distance Matrix (Angstroms)
             C (  1)   O (  2)   H (  3)   C (  4)   H (  5)
   O (  2)  1.203959
   H (  3)  1.099130  2.029156
   C (  4)  1.521858  2.372789  2.233258
   H (  5)  2.233791  2.616516  3.174456  1.099033
   O (  6)  2.373785  3.442397  2.616516  1.204843  2.029156
 
 Requested basis set is 6-311++G(2df,2p)
 There are 44 shells and 156 basis functions
 A cutoff of  1.0D-12 yielded    973 shell pairs
 There are     12270 function pairs (     15635 Cartesian)
 Smallest overlap matrix eigenvalue = 1.82E-04
 Guess MOs from SCF MO coefficient file

 -----------------------------------------------------------------------
  General SCF calculation program by
  Eric Jon Sundstrom, Paul Horn, Yuezhi Mao, Dmitri Zuev, Alec White,
  David Stuck, Shaama M.S., Shane Yost, Joonho Lee, David Small,
  Daniel Levine, Susi Lehtola, Hugh Burton, Evgeny Epifanovsky,
  Bang C. Huynh
 -----------------------------------------------------------------------
 Exchange:     0.1500 Hartree-Fock + 1.0000 wB97M-V + LR-HF
 Correlation:  1.0000 wB97M-V
 Using SG-2 standard quadrature grid
 Nonlocal Correlation:  VV10 with C = 0.0100 and b = 6.00 and scale = 1.00000
 Grid used for NLC:  SG-1 standard quadrature
 
 Citation of the SMD model:
 Marenich, A.V.; Cramer, C.J.; Truhlar, D.G.
 J. Phys. Chem. B 2009, 113, 6378-6396.
 iSolventCode=           1
 Solvent: water                                                           
 
 vradii
            1           2           3           4           5           6
    1   1.8500000   1.5200000   1.2000000   1.8500000   1.2000000   1.5200000
 -------------------------------------------------------
 OpenMP BLAS3 based DFT computing Module                
 Release: version 1.0, May 2013, Q-Chem Inc. Pittsburgh 
 -------------------------------------------------------
 A unrestricted SCF calculation will be
 performed using Roothaan-Hall, DIIS, GDM
 SCF converges when RMS gradient is below 1.0e-07
 ---------------------------------------
  Cycle       Energy         DIIS error
 ---------------------------------------
    1    -227.8256185218      3.63e-04  Roothaan Step
 ---------------------------------------
  Cycle       Energy         DIIS error
 ---------------------------------------
    1    -227.8380446622      5.67e-04  
    2    -227.8378910521      7.66e-04  Done DIIS. Switching to GDM
 ---------------------------------------
  Cycle       Energy        RMS Gradient
 ---------------------------------------
    1    -227.8378910521      4.00e-02   Normal BFGS step
    2    -227.8345346009      5.95e-02  Line search: overstep
    3    -227.8425681684      3.04e-03   Normal BFGS step
    4    -227.8426395179      1.31e-03   Normal BFGS step
    5    -227.8426511951      1.81e-04   Normal BFGS step
    6    -227.8426518573      4.00e-05   Normal BFGS step
    7    -227.8426518788      2.14e-05   Normal BFGS step
    8    -227.8426518801      2.32e-05   Normal BFGS step
    9    -227.8426518817      8.44e-07   Normal BFGS step
   10    -227.8426518817      2.36e-07   Normal BFGS step
   11    -227.8426518817      7.23e-08  Convergence criterion met
 ---------------------------------------
 SCF time:   CPU 121.38s  wall 15.00s 
<S^2> =          0.000000000
(3)  G-ENP(liq) elect-nuc-pol free energy of system     -227.842651882 a.u.
(4)  G-CDS(liq) cavity-dispersion-solvent structure 
     free energy                                                4.7501 kcal/mol
(6)  G-S(liq) free energy of system                     -227.835082174 a.u.
 SCF   energy in the final basis set =     -227.8350821743
 Total energy in the final basis set =     -227.8350821743
 
 --------------------------------------------------------------
 
                    Orbital Energies (a.u.)
 --------------------------------------------------------------
 
 Alpha MOs
 -- Occupied --
-19.3702 -19.3702 -10.4543 -10.4541  -1.2218  -1.2083  -0.8235  -0.7104
 -0.6124  -0.6118  -0.5704  -0.5580  -0.5020  -0.4416  -0.3710
 -- Virtual --
 -0.0196   0.0365   0.0461   0.0707   0.0896   0.0920   0.1005   0.1187
  0.1391   0.1431   0.1555   0.1829   0.2364   0.2401   0.2414   0.2600
  0.2925   0.3043   0.3170   0.3268   0.3448   0.3665   0.4066   0.4726
  0.4809   0.5640   0.5917   0.6109   0.6145   0.6444   0.6694   0.6786
  0.6790   0.7545   0.7906   0.8128   0.8304   0.8941   1.0190   1.0503
  1.0722   1.0731   1.0904   1.1125   1.1417   1.1471   1.1728   1.1880
  1.1885   1.2301   1.2681   1.3296   1.3827   1.4541   1.5611   1.5710
  1.5975   1.7018   1.7783   1.7814   1.8339   1.8633   1.9857   2.0672
  2.1520   2.2514   2.4664   2.4836   2.5154   2.6280   2.6435   2.6777
  2.7882   2.8277   2.8937   2.9492   2.9793   2.9938   3.0542   3.0887
  3.1423   3.1950   3.2904   3.3029   3.3628   3.3925   3.4030   3.4232
  3.4821   3.5435   3.5840   3.6843   3.7060   3.7206   3.8429   3.8928
  3.9158   4.1085   4.1743   4.2014   4.2275   4.2402   4.5090   4.6815
  4.7063   5.0812   5.1158   5.1443   5.1548   5.1680   5.1821   5.1824
  5.2945   5.3752   5.4492   5.5401   5.5620   5.5857   5.5985   5.8394
  5.9079   6.3345   6.3489   6.5803   6.8466   6.9089   6.9262   6.9280
  7.0487   7.0897   7.1329   7.2642   7.3211   7.4963   7.5288   7.6849
  7.7485  24.8487  24.9729  50.6795  50.6903
 
 Beta MOs
 -- Occupied --
-19.3702 -19.3702 -10.4543 -10.4541  -1.2218  -1.2083  -0.8235  -0.7104
 -0.6124  -0.6118  -0.5704  -0.5580  -0.5020  -0.4416  -0.3710
 -- Virtual --
 -0.0196   0.0365   0.0461   0.0707   0.0896   0.0920   0.1005   0.1187
  0.1391   0.1431   0.1555   0.1829   0.2364   0.2401   0.2414   0.2600
  0.2925   0.3043   0.3170   0.3268   0.3448   0.3665   0.4066   0.4726
  0.4809   0.5640   0.5917   0.6109   0.6145   0.6444   0.6694   0.6786
  0.6790   0.7545   0.7906   0.8128   0.8304   0.8941   1.0190   1.0503
  1.0722   1.0731   1.0904   1.1125   1.1417   1.1471   1.1728   1.1880
  1.1885   1.2301   1.2681   1.3296   1.3827   1.4541   1.5611   1.5710
  1.5975   1.7018   1.7783   1.7814   1.8339   1.8633   1.9857   2.0672
  2.1520   2.2514   2.4664   2.4836   2.5154   2.6280   2.6435   2.6777
  2.7882   2.8277   2.8937   2.9492   2.9793   2.9938   3.0542   3.0887
  3.1423   3.1950   3.2904   3.3029   3.3628   3.3925   3.4030   3.4232
  3.4821   3.5435   3.5840   3.6843   3.7060   3.7206   3.8429   3.8928
  3.9158   4.1085   4.1743   4.2014   4.2275   4.2402   4.5090   4.6815
  4.7063   5.0812   5.1158   5.1443   5.1548   5.1680   5.1821   5.1824
  5.2945   5.3752   5.4492   5.5401   5.5620   5.5857   5.5985   5.8394
  5.9079   6.3345   6.3489   6.5803   6.8466   6.9089   6.9262   6.9280
  7.0487   7.0897   7.1329   7.2642   7.3211   7.4963   7.5288   7.6849
  7.7485  24.8487  24.9729  50.6795  50.6903
 --------------------------------------------------------------
 
          Ground-State Mulliken Net Atomic Charges

     Atom                 Charge (a.u.)    Spin (a.u.)
  --------------------------------------------------------
      1 C                     0.135205       0.000000
      2 O                    -0.326998       0.000000
      3 H                     0.191934       0.000000
      4 C                     0.135476       0.000000
      5 H                     0.192092       0.000000
      6 O                    -0.327711       0.000000
  --------------------------------------------------------
  Sum of atomic charges =     0.000000
  Sum of spin   charges =     0.000000

 -----------------------------------------------------------------
                    Cartesian Multipole Moments
 -----------------------------------------------------------------
    Charge (ESU x 10^10)
                 0.0000
    Dipole Moment (Debye)
         X       0.0062      Y       0.0012      Z      -0.0000
       Tot       0.0063
    Quadrupole Moments (Debye-Ang)
        XX     -34.3059     XY      -3.1474     YY     -20.0509
        XZ       0.0000     YZ      -0.0000     ZZ     -21.4861
    Octopole Moments (Debye-Ang^2)
       XXX       0.0099    XXY      -0.0001    XYY      -0.0011
       YYY       0.0058    XXZ      -0.0000    XYZ       0.0000
       YYZ      -0.0000    XZZ       0.0012    YZZ       0.0006
       ZZZ      -0.0000
    Hexadecapole Moments (Debye-Ang^3)
      XXXX    -298.7502   XXXY      -1.4661   XXYY     -51.6557
      XYYY      -3.6282   YYYY     -44.4188   XXXZ       0.0000
      XXYZ       0.0000   XYYZ       0.0000   YYYZ       0.0000
      XXZZ     -44.1217   XYZZ       0.2943   YYZZ     -12.1225
      XZZZ       0.0000   YZZZ      -0.0000   ZZZZ     -19.2143
 -----------------------------------------------------------------
 Calculating analytic gradient of the SCF energy
 Gradient of CDS energy
            1           2           3           4           5           6
    1   0.0027713  -0.0012199  -0.0001496  -0.0027824   0.0001492   0.0012315
    2  -0.0001116  -0.0005665  -0.0000720   0.0001065   0.0000720   0.0005717
    3  -0.0000000  -0.0000000   0.0000000   0.0000000   0.0000000  -0.0000000
 Gradient of SCF Energy
            1           2           3           4           5           6
    1  -0.0001540   0.0075871  -0.0010801   0.0015084   0.0009736  -0.0088350
    2   0.0076888   0.0032451  -0.0109072  -0.0071697   0.0109010  -0.0037581
    3   0.0000000   0.0000000  -0.0000000  -0.0000000   0.0000000   0.0000000
 Max gradient component =       1.091E-02
 RMS gradient           =       5.339E-03
 Computing fast CPCM-SWIG gradient
 Updating gradient with PCM contributions...
 -- total gradient after adding PCM contribution --
---------------------------------------------------
  Atom         X              Y              Z     
---------------------------------------------------
   1       0.001891       0.000182       0.000000
   2      -0.001154      -0.000466       0.000000
   3      -0.000111       0.000112      -0.000000
   4      -0.000538       0.000355       0.000000
   5       0.000013      -0.000122      -0.000000
   6      -0.000101      -0.000061      -0.000000
---------------------------------------------------
 Number of fixed atoms: 0
 Gradient time:  CPU 23.17 s  wall 3.42 s
 ----------------------------------------------------------------
             Standard Nuclear Orientation (Angstroms)
    I     Atom           X                Y                Z
 ----------------------------------------------------------------
    1      C       0.6473783872    -0.3974544840     0.0000000000
    2      O       1.7131351852     0.1664069197     0.0000000000
    3      H       0.5430712774    -1.4914309589     0.0000000000
    4      C      -0.6483783872     0.3974544840     0.0000000000
    5      H      -0.5430712774     1.4914309589     0.0000000000
    6      O      -1.7131351852    -0.1664069197     0.0000000000
 ----------------------------------------------------------------
 Nuclear Repulsion Energy =         102.13021370 hartrees
 There are       15 alpha and       15 beta electrons
 Discretize the solute cavity surface with Lebedev spheres
	Using 110 Lebedev grid points for each H atom
	Using 194 Lebedev grid points for other atoms
	Atomic van der Waals radii will be scaled by 1.20
 Remove points where switching function is < 1.0e-08
 Keep 586 surface tesserae and discard 410 interior tesserae
 Molecular Surface Area = 77.415 Angst**2

                       Distance Matrix (Angstroms)
             C (  1)   O (  2)   H (  3)   C (  4)   H (  5)
   O (  2)  1.205727
   H (  3)  1.098938  2.029156
   C (  4)  1.520153  2.372789  2.233258
   H (  5)  2.232724  2.616516  3.174456  1.099033
   O (  6)  2.371794  3.442397  2.616516  1.204843  2.029156
 
 Requested basis set is 6-311++G(2df,2p)
 There are 44 shells and 156 basis functions
 A cutoff of  1.0D-12 yielded    973 shell pairs
 There are     12270 function pairs (     15635 Cartesian)
 Smallest overlap matrix eigenvalue = 1.81E-04
 Guess MOs from SCF MO coefficient file

 -----------------------------------------------------------------------
  General SCF calculation program by
  Eric Jon Sundstrom, Paul Horn, Yuezhi Mao, Dmitri Zuev, Alec White,
  David Stuck, Shaama M.S., Shane Yost, Joonho Lee, David Small,
  Daniel Levine, Susi Lehtola, Hugh Burton, Evgeny Epifanovsky,
  Bang C. Huynh
 -----------------------------------------------------------------------
 Exchange:     0.1500 Hartree-Fock + 1.0000 wB97M-V + LR-HF
 Correlation:  1.0000 wB97M-V
 Using SG-2 standard quadrature grid
 Nonlocal Correlation:  VV10 with C = 0.0100 and b = 6.00 and scale = 1.00000
 Grid used for NLC:  SG-1 standard quadrature
 
 Citation of the SMD model:
 Marenich, A.V.; Cramer, C.J.; Truhlar, D.G.
 J. Phys. Chem. B 2009, 113, 6378-6396.
 iSolventCode=           1
 Solvent: water                                                           
 
 vradii
            1           2           3           4           5           6
    1   1.8500000   1.5200000   1.2000000   1.8500000   1.2000000   1.5200000
 -------------------------------------------------------
 OpenMP BLAS3 based DFT computing Module                
 Release: version 1.0, May 2013, Q-Chem Inc. Pittsburgh 
 -------------------------------------------------------
 A unrestricted SCF calculation will be
 performed using Roothaan-Hall, DIIS, GDM
 SCF converges when RMS gradient is below 1.0e-07
 ---------------------------------------
  Cycle       Energy         DIIS error
 ---------------------------------------
    1    -227.8255885318      3.63e-04  Roothaan Step
 ---------------------------------------
  Cycle       Energy         DIIS error
 ---------------------------------------
    1    -227.8379550227      5.73e-04  
    2    -227.8377422662      7.77e-04  Done DIIS. Switching to GDM
 ---------------------------------------
  Cycle       Energy        RMS Gradient
 ---------------------------------------
    1    -227.8377422662      4.08e-02   Normal BFGS step
    2    -227.8342647270      6.05e-02  Line search: overstep
    3    -227.8425584053      2.99e-03   Normal BFGS step
    4    -227.8426302253      1.30e-03   Normal BFGS step
    5    -227.8426419396      1.83e-04   Normal BFGS step
    6    -227.8426426110      4.05e-05   Normal BFGS step
    7    -227.8426426328      2.06e-05   Normal BFGS step
    8    -227.8426426341      2.30e-05   Normal BFGS step
    9    -227.8426426356      1.02e-06   Normal BFGS step
   10    -227.8426426356      2.55e-07   Normal BFGS step
   11    -227.8426426356      8.26e-08  Convergence criterion met
 ---------------------------------------
 SCF time:   CPU 121.56s  wall 15.00s 
<S^2> =          0.000000000
(3)  G-ENP(liq) elect-nuc-pol free energy of system     -227.842642636 a.u.
(4)  G-CDS(liq) cavity-dispersion-solvent structure 
     free energy                                                4.7435 kcal/mol
(6)  G-S(liq) free energy of system                     -227.835083436 a.u.
 SCF   energy in the final basis set =     -227.8350834362
 Total energy in the final basis set =     -227.8350834362
 
 --------------------------------------------------------------
 
                    Orbital Energies (a.u.)
 --------------------------------------------------------------
 
 Alpha MOs
 -- Occupied --
-19.3703 -19.3703 -10.4544 -10.4543  -1.2215  -1.2078  -0.8240  -0.7105
 -0.6123  -0.6119  -0.5702  -0.5579  -0.5016  -0.4414  -0.3714
 -- Virtual --
 -0.0200   0.0365   0.0461   0.0707   0.0896   0.0919   0.1006   0.1187
  0.1391   0.1431   0.1555   0.1829   0.2364   0.2401   0.2414   0.2600
  0.2925   0.3042   0.3171   0.3268   0.3448   0.3665   0.4072   0.4722
  0.4807   0.5640   0.5915   0.6109   0.6142   0.6445   0.6693   0.6788
  0.6790   0.7544   0.7904   0.8124   0.8298   0.8943   1.0190   1.0502
  1.0722   1.0731   1.0908   1.1124   1.1419   1.1473   1.1731   1.1881
  1.1884   1.2303   1.2682   1.3298   1.3829   1.4540   1.5609   1.5712
  1.5975   1.7016   1.7776   1.7813   1.8337   1.8635   1.9854   2.0674
  2.1512   2.2512   2.4661   2.4829   2.5150   2.6285   2.6429   2.6778
  2.7882   2.8273   2.8931   2.9488   2.9792   2.9950   3.0543   3.0891
  3.1424   3.1956   3.2908   3.3029   3.3624   3.3928   3.4040   3.4233
  3.4830   3.5433   3.5831   3.6839   3.7048   3.7204   3.8435   3.8932
  3.9162   4.1118   4.1749   4.2013   4.2280   4.2392   4.5077   4.6831
  4.7084   5.0814   5.1160   5.1443   5.1547   5.1681   5.1820   5.1822
  5.2942   5.3746   5.4500   5.5386   5.5611   5.5848   5.5996   5.8376
  5.9054   6.3317   6.3458   6.5777   6.8447   6.9088   6.9261   6.9278
  7.0478   7.0872   7.1318   7.2643   7.3208   7.4964   7.5285   7.6844
  7.7481  24.8469  24.9744  50.6781  50.6890
 
 Beta MOs
 -- Occupied --
-19.3703 -19.3703 -10.4544 -10.4543  -1.2215  -1.2078  -0.8240  -0.7105
 -0.6123  -0.6119  -0.5702  -0.5579  -0.5016  -0.4414  -0.3714
 -- Virtual --
 -0.0200   0.0365   0.0461   0.0707   0.0896   0.0919   0.1006   0.1187
  0.1391   0.1431   0.1555   0.1829   0.2364   0.2401   0.2414   0.2600
  0.2925   0.3042   0.3171   0.3268   0.3448   0.3665   0.4072   0.4722
  0.4807   0.5640   0.5915   0.6109   0.6142   0.6445   0.6693   0.6788
  0.6790   0.7544   0.7904   0.8124   0.8298   0.8943   1.0190   1.0502
  1.0722   1.0731   1.0908   1.1124   1.1419   1.1473   1.1731   1.1881
  1.1884   1.2303   1.2682   1.3298   1.3829   1.4540   1.5609   1.5712
  1.5975   1.7016   1.7776   1.7813   1.8337   1.8635   1.9854   2.0674
  2.1512   2.2512   2.4661   2.4829   2.5150   2.6285   2.6429   2.6778
  2.7882   2.8273   2.8931   2.9488   2.9792   2.9950   3.0543   3.0891
  3.1424   3.1956   3.2908   3.3029   3.3624   3.3928   3.4040   3.4233
  3.4830   3.5433   3.5831   3.6839   3.7048   3.7204   3.8435   3.8932
  3.9162   4.1118   4.1749   4.2013   4.2280   4.2392   4.5077   4.6831
  4.7084   5.0814   5.1160   5.1443   5.1547   5.1681   5.1820   5.1822
  5.2942   5.3746   5.4500   5.5386   5.5611   5.5848   5.5996   5.8376
  5.9054   6.3317   6.3458   6.5777   6.8447   6.9088   6.9261   6.9278
  7.0478   7.0872   7.1318   7.2643   7.3208   7.4964   7.5285   7.6844
  7.7481  24.8469  24.9744  50.6781  50.6890
 --------------------------------------------------------------
 
          Ground-State Mulliken Net Atomic Charges

     Atom                 Charge (a.u.)    Spin (a.u.)
  --------------------------------------------------------
      1 C                     0.135505       0.000000
      2 O                    -0.328148       0.000000
      3 H                     0.192503       0.000000
      4 C                     0.135232       0.000000
      5 H                     0.192344       0.000000
      6 O                    -0.327436       0.000000
  --------------------------------------------------------
  Sum of atomic charges =     0.000000
  Sum of spin   charges =     0.000000

 -----------------------------------------------------------------
                    Cartesian Multipole Moments
 -----------------------------------------------------------------
    Charge (ESU x 10^10)
                 0.0000
    Dipole Moment (Debye)
         X      -0.0062      Y      -0.0012      Z      -0.0000
       Tot       0.0063
    Quadrupole Moments (Debye-Ang)
        XX     -34.3191     XY      -3.1493     YY     -20.0439
        XZ      -0.0000     YZ      -0.0000     ZZ     -21.4890
    Octopole Moments (Debye-Ang^2)
       XXX      -0.0098    XXY       0.0001    XYY       0.0011
       YYY      -0.0058    XXZ      -0.0000    XYZ       0.0000
       YYZ      -0.0000    XZZ      -0.0012    YZZ      -0.0006
       ZZZ      -0.0000
    Hexadecapole Moments (Debye-Ang^3)
      XXXX    -298.7370   XXXY      -1.4714   XXYY     -51.6477
      XYYY      -3.6593   YYYY     -44.3640   XXXZ      -0.0000
      XXYZ      -0.0000   XYYZ      -0.0000   YYYZ      -0.0000
      XXZZ     -44.1211   XYZZ       0.2898   YYZZ     -12.1201
      XZZZ      -0.0000   YZZZ      -0.0000   ZZZZ     -19.2214
 -----------------------------------------------------------------
 Calculating analytic gradient of the SCF energy
 Gradient of CDS energy
            1           2           3           4           5           6
    1   0.0027894  -0.0012430  -0.0001489  -0.0027781   0.0001493   0.0012313
    2  -0.0000995  -0.0005773  -0.0000722   0.0001047   0.0000722   0.0005721
    3   0.0000000   0.0000000   0.0000000  -0.0000000  -0.0000000   0.0000000
 Gradient of SCF Energy
            1           2           3           4           5           6
    1  -0.0032743   0.0099222  -0.0008418   0.0019257   0.0009483  -0.0086802
    2   0.0069117   0.0042805  -0.0109560  -0.0074264   0.0109619  -0.0037717
    3  -0.0000000   0.0000000  -0.0000000  -0.0000000   0.0000000   0.0000000
 Max gradient component =       1.096E-02
 RMS gradient           =       5.605E-03
 Computing fast CPCM-SWIG gradient
 Updating gradient with PCM contributions...
 -- total gradient after adding PCM contribution --
---------------------------------------------------
  Atom         X              Y              Z     
---------------------------------------------------
   1      -0.001220      -0.000626       0.000000
   2       0.001181       0.000585       0.000000
   3       0.000102       0.000093      -0.000000
   4      -0.000127       0.000093      -0.000000
   5      -0.000004      -0.000083      -0.000000
   6       0.000068      -0.000062       0.000000
---------------------------------------------------
 Number of fixed atoms: 0
 Gradient time:  CPU 23.18 s  wall 3.71 s
 ----------------------------------------------------------------
             Standard Nuclear Orientation (Angstroms)
    I     Atom           X                Y                Z
 ----------------------------------------------------------------
    1      C       0.6483783872    -0.3964544840     0.0000000000
    2      O       1.7131351852     0.1664069197     0.0000000000
    3      H       0.5430712774    -1.4914309589     0.0000000000
    4      C      -0.6483783872     0.3974544840     0.0000000000
    5      H      -0.5430712774     1.4914309589     0.0000000000
    6      O      -1.7131351852    -0.1664069197     0.0000000000
 ----------------------------------------------------------------
 Nuclear Repulsion Energy =         102.14441346 hartrees
 There are       15 alpha and       15 beta electrons
 Discretize the solute cavity surface with Lebedev spheres
	Using 110 Lebedev grid points for each H atom
	Using 194 Lebedev grid points for other atoms
	Atomic van der Waals radii will be scaled by 1.20
 Remove points where switching function is < 1.0e-08
 Keep 586 surface tesserae and discard 410 interior tesserae
 Molecular Surface Area = 77.414 Angst**2

                       Distance Matrix (Angstroms)
             C (  1)   O (  2)   H (  3)   C (  4)   H (  5)
   O (  2)  1.204375
   H (  3)  1.100029  2.029156
   C (  4)  1.520483  2.372789  2.233258
   H (  5)  2.232412  2.616516  3.174456  1.099033
   O (  6)  2.372692  3.442397  2.616516  1.204843  2.029156
 
 Requested basis set is 6-311++G(2df,2p)
 There are 44 shells and 156 basis functions
 A cutoff of  1.0D-12 yielded    973 shell pairs
 There are     12270 function pairs (     15635 Cartesian)
 Smallest overlap matrix eigenvalue = 1.81E-04
 Guess MOs from SCF MO coefficient file

 -----------------------------------------------------------------------
  General SCF calculation program by
  Eric Jon Sundstrom, Paul Horn, Yuezhi Mao, Dmitri Zuev, Alec White,
  David Stuck, Shaama M.S., Shane Yost, Joonho Lee, David Small,
  Daniel Levine, Susi Lehtola, Hugh Burton, Evgeny Epifanovsky,
  Bang C. Huynh
 -----------------------------------------------------------------------
 Exchange:     0.1500 Hartree-Fock + 1.0000 wB97M-V + LR-HF
 Correlation:  1.0000 wB97M-V
 Using SG-2 standard quadrature grid
 Nonlocal Correlation:  VV10 with C = 0.0100 and b = 6.00 and scale = 1.00000
 Grid used for NLC:  SG-1 standard quadrature
 
 Citation of the SMD model:
 Marenich, A.V.; Cramer, C.J.; Truhlar, D.G.
 J. Phys. Chem. B 2009, 113, 6378-6396.
 iSolventCode=           1
 Solvent: water                                                           
 
 vradii
            1           2           3           4           5           6
    1   1.8500000   1.5200000   1.2000000   1.8500000   1.2000000   1.5200000
 -------------------------------------------------------
 OpenMP BLAS3 based DFT computing Module                
 Release: version 1.0, May 2013, Q-Chem Inc. Pittsburgh 
 -------------------------------------------------------
 A unrestricted SCF calculation will be
 performed using Roothaan-Hall, DIIS, GDM
 SCF converges when RMS gradient is below 1.0e-07
 ---------------------------------------
  Cycle       Energy         DIIS error
 ---------------------------------------
    1    -227.8255992300      3.64e-04  Roothaan Step
 ---------------------------------------
  Cycle       Energy         DIIS error
 ---------------------------------------
    1    -227.8380463041      5.66e-04  
    2    -227.8378918870      7.65e-04  Done DIIS. Switching to GDM
 ---------------------------------------
  Cycle       Energy        RMS Gradient
 ---------------------------------------
    1    -227.8378918870      4.00e-02   Normal BFGS step
    2    -227.8345355082      5.95e-02  Line search: overstep
    3    -227.8425642766      3.03e-03   Normal BFGS step
    4    -227.8426353595      1.31e-03   Normal BFGS step
    5    -227.8426469937      1.80e-04   Normal BFGS step
    6    -227.8426476526      3.99e-05   Normal BFGS step
    7    -227.8426476744      1.41e-05   Normal BFGS step
    8    -227.8426476759      1.31e-05   Normal BFGS step
    9    -227.8426476762      5.32e-06   Normal BFGS step
   10    -227.8426476763      2.79e-07   Normal BFGS step
   11    -227.8426476763      7.45e-08  Convergence criterion met
 ---------------------------------------
 SCF time:   CPU 119.25s  wall 15.00s 
<S^2> =          0.000000000
(3)  G-ENP(liq) elect-nuc-pol free energy of system     -227.842647676 a.u.
(4)  G-CDS(liq) cavity-dispersion-solvent structure 
     free energy                                                4.7466 kcal/mol
(6)  G-S(liq) free energy of system                     -227.835083414 a.u.
 SCF   energy in the final basis set =     -227.8350834142
 Total energy in the final basis set =     -227.8350834142
 
 --------------------------------------------------------------
 
                    Orbital Energies (a.u.)
 --------------------------------------------------------------
 
 Alpha MOs
 -- Occupied --
-19.3703 -19.3702 -10.4544 -10.4542  -1.2218  -1.2082  -0.8239  -0.7103
 -0.6124  -0.6119  -0.5703  -0.5581  -0.5019  -0.4415  -0.3712
 -- Virtual --
 -0.0198   0.0365   0.0461   0.0707   0.0896   0.0921   0.1005   0.1187
  0.1392   0.1430   0.1555   0.1829   0.2364   0.2401   0.2414   0.2601
  0.2925   0.3042   0.3171   0.3268   0.3448   0.3664   0.4071   0.4724
  0.4809   0.5640   0.5915   0.6108   0.6143   0.6445   0.6695   0.6788
  0.6788   0.7544   0.7907   0.8127   0.8304   0.8943   1.0187   1.0502
  1.0721   1.0731   1.0906   1.1124   1.1417   1.1472   1.1731   1.1881
  1.1887   1.2301   1.2679   1.3296   1.3832   1.4538   1.5607   1.5709
  1.5975   1.7018   1.7784   1.7815   1.8339   1.8631   1.9857   2.0679
  2.1519   2.2517   2.4670   2.4833   2.5153   2.6285   2.6436   2.6777
  2.7882   2.8275   2.8935   2.9490   2.9789   2.9945   3.0542   3.0887
  3.1421   3.1949   3.2912   3.3030   3.3624   3.3928   3.4032   3.4234
  3.4827   3.5427   3.5837   3.6848   3.7061   3.7206   3.8439   3.8927
  3.9152   4.1109   4.1737   4.2010   4.2278   4.2396   4.5086   4.6825
  4.7070   5.0806   5.1158   5.1443   5.1547   5.1680   5.1821   5.1823
  5.2946   5.3747   5.4494   5.5402   5.5615   5.5856   5.5993   5.8381
  5.9071   6.3339   6.3485   6.5790   6.8470   6.9089   6.9262   6.9279
  7.0488   7.0889   7.1331   7.2642   7.3210   7.4965   7.5289   7.6847
  7.7485  24.8480  24.9742  50.6793  50.6900
 
 Beta MOs
 -- Occupied --
-19.3703 -19.3702 -10.4544 -10.4542  -1.2218  -1.2082  -0.8239  -0.7103
 -0.6124  -0.6119  -0.5703  -0.5581  -0.5019  -0.4415  -0.3712
 -- Virtual --
 -0.0198   0.0365   0.0461   0.0707   0.0896   0.0921   0.1005   0.1187
  0.1392   0.1430   0.1555   0.1829   0.2364   0.2401   0.2414   0.2601
  0.2925   0.3042   0.3171   0.3268   0.3448   0.3664   0.4071   0.4724
  0.4809   0.5640   0.5915   0.6108   0.6143   0.6445   0.6695   0.6788
  0.6788   0.7544   0.7907   0.8127   0.8304   0.8943   1.0187   1.0502
  1.0721   1.0731   1.0906   1.1124   1.1417   1.1472   1.1731   1.1881
  1.1887   1.2301   1.2679   1.3296   1.3832   1.4538   1.5607   1.5709
  1.5975   1.7018   1.7784   1.7815   1.8339   1.8631   1.9857   2.0679
  2.1519   2.2517   2.4670   2.4833   2.5153   2.6285   2.6436   2.6777
  2.7882   2.8275   2.8935   2.9490   2.9789   2.9945   3.0542   3.0887
  3.1421   3.1949   3.2912   3.3030   3.3624   3.3928   3.4032   3.4234
  3.4827   3.5427   3.5837   3.6848   3.7061   3.7206   3.8439   3.8927
  3.9152   4.1109   4.1737   4.2010   4.2278   4.2396   4.5086   4.6825
  4.7070   5.0806   5.1158   5.1443   5.1547   5.1680   5.1821   5.1823
  5.2946   5.3747   5.4494   5.5402   5.5615   5.5856   5.5993   5.8381
  5.9071   6.3339   6.3485   6.5790   6.8470   6.9089   6.9262   6.9279
  7.0488   7.0889   7.1331   7.2642   7.3210   7.4965   7.5289   7.6847
  7.7485  24.8480  24.9742  50.6793  50.6900
 --------------------------------------------------------------
 
          Ground-State Mulliken Net Atomic Charges

     Atom                 Charge (a.u.)    Spin (a.u.)
  --------------------------------------------------------
      1 C                     0.135412       0.000000
      2 O                    -0.327341       0.000000
      3 H                     0.191808       0.000000
      4 C                     0.135612       0.000000
      5 H                     0.192085       0.000000
      6 O                    -0.327578       0.000000
  --------------------------------------------------------
  Sum of atomic charges =    -0.000000
  Sum of spin   charges =     0.000000

 -----------------------------------------------------------------
                    Cartesian Multipole Moments
 -----------------------------------------------------------------
    Charge (ESU x 10^10)
                 0.0000
    Dipole Moment (Debye)
         X       0.0015      Y       0.0044      Z      -0.0000
       Tot       0.0046
    Quadrupole Moments (Debye-Ang)
        XX     -34.3053     XY      -3.1457     YY     -20.0556
        XZ       0.0000     YZ      -0.0000     ZZ     -21.4867
    Octopole Moments (Debye-Ang^2)
       XXX       0.0092    XXY      -0.0041    XYY      -0.0008
       YYY      -0.0026    XXZ      -0.0000    XYZ       0.0000
       YYZ      -0.0000    XZZ       0.0015    YZZ      -0.0017
       ZZZ      -0.0000
    Hexadecapole Moments (Debye-Ang^3)
      XXXX    -298.6846   XXXY      -1.4807   XXYY     -51.6516
      XYYY      -3.6459   YYYY     -44.4077   XXXZ       0.0000
      XXYZ      -0.0000   XYYZ       0.0000   YYYZ      -0.0000
      XXZZ     -44.1152   XYZZ       0.2902   YYZZ     -12.1225
      XZZZ      -0.0000   YZZZ      -0.0000   ZZZZ     -19.2158
 -----------------------------------------------------------------
 Calculating analytic gradient of the SCF energy
 Gradient of CDS energy
            1           2           3           4           5           6
    1   0.0027742  -0.0012261  -0.0001493  -0.0027793   0.0001491   0.0012315
    2  -0.0001060  -0.0005680  -0.0000741   0.0001041   0.0000721   0.0005719
    3   0.0000000  -0.0000000   0.0000000  -0.0000000   0.0000000  -0.0000000
 Gradient of SCF Energy
            1           2           3           4           5           6
    1  -0.0013262   0.0082402  -0.0009553   0.0018433   0.0010171  -0.0088191
    2   0.0086525   0.0032707  -0.0114678  -0.0076484   0.0109105  -0.0037175
    3  -0.0000000   0.0000000  -0.0000000  -0.0000000   0.0000000   0.0000000
 Max gradient component =       1.147E-02
 RMS gradient           =       5.584E-03
 Computing fast CPCM-SWIG gradient
 Updating gradient with PCM contributions...
 -- total gradient after adding PCM contribution --
---------------------------------------------------
  Atom         X              Y              Z     
---------------------------------------------------
   1       0.000737       0.001135       0.000000
   2      -0.000508      -0.000423      -0.000000
   3      -0.000004      -0.000460       0.000000
   4      -0.000202      -0.000116       0.000000
   5       0.000056      -0.000126       0.000000
   6      -0.000079      -0.000011      -0.000000
---------------------------------------------------
 Number of fixed atoms: 0
 Gradient time:  CPU 22.86 s  wall 3.31 s
 ----------------------------------------------------------------
             Standard Nuclear Orientation (Angstroms)
    I     Atom           X                Y                Z
 ----------------------------------------------------------------
    1      C       0.6483783872    -0.3984544840     0.0000000000
    2      O       1.7131351852     0.1664069197     0.0000000000
    3      H       0.5430712774    -1.4914309589     0.0000000000
    4      C      -0.6483783872     0.3974544840     0.0000000000
    5      H      -0.5430712774     1.4914309589     0.0000000000
    6      O      -1.7131351852    -0.1664069197     0.0000000000
 ----------------------------------------------------------------
 Nuclear Repulsion Energy =         102.12270621 hartrees
 There are       15 alpha and       15 beta electrons
 Discretize the solute cavity surface with Lebedev spheres
	Using 110 Lebedev grid points for each H atom
	Using 194 Lebedev grid points for other atoms
	Atomic van der Waals radii will be scaled by 1.20
 Remove points where switching function is < 1.0e-08
 Keep 587 surface tesserae and discard 409 interior tesserae
 Molecular Surface Area = 77.421 Angst**2

                       Distance Matrix (Angstroms)
             C (  1)   O (  2)   H (  3)   C (  4)   H (  5)
   O (  2)  1.205311
   H (  3)  1.098038  2.029156
   C (  4)  1.521529  2.372789  2.233258
   H (  5)  2.234104  2.616516  3.174456  1.099033
   O (  6)  2.372887  3.442397  2.616516  1.204843  2.029156
 
 Requested basis set is 6-311++G(2df,2p)
 There are 44 shells and 156 basis functions
 A cutoff of  1.0D-12 yielded    973 shell pairs
 There are     12270 function pairs (     15635 Cartesian)
 Smallest overlap matrix eigenvalue = 1.82E-04
 Guess MOs from SCF MO coefficient file

 -----------------------------------------------------------------------
  General SCF calculation program by
  Eric Jon Sundstrom, Paul Horn, Yuezhi Mao, Dmitri Zuev, Alec White,
  David Stuck, Shaama M.S., Shane Yost, Joonho Lee, David Small,
  Daniel Levine, Susi Lehtola, Hugh Burton, Evgeny Epifanovsky,
  Bang C. Huynh
 -----------------------------------------------------------------------
 Exchange:     0.1500 Hartree-Fock + 1.0000 wB97M-V + LR-HF
 Correlation:  1.0000 wB97M-V
 Using SG-2 standard quadrature grid
 Nonlocal Correlation:  VV10 with C = 0.0100 and b = 6.00 and scale = 1.00000
 Grid used for NLC:  SG-1 standard quadrature
 
 Citation of the SMD model:
 Marenich, A.V.; Cramer, C.J.; Truhlar, D.G.
 J. Phys. Chem. B 2009, 113, 6378-6396.
 iSolventCode=           1
 Solvent: water                                                           
 
 vradii
            1           2           3           4           5           6
    1   1.8500000   1.5200000   1.2000000   1.8500000   1.2000000   1.5200000
 -------------------------------------------------------
 OpenMP BLAS3 based DFT computing Module                
 Release: version 1.0, May 2013, Q-Chem Inc. Pittsburgh 
 -------------------------------------------------------
 A unrestricted SCF calculation will be
 performed using Roothaan-Hall, DIIS, GDM
 SCF converges when RMS gradient is below 1.0e-07
 ---------------------------------------
  Cycle       Energy         DIIS error
 ---------------------------------------
    1    -227.8256126529      3.62e-04  Roothaan Step
 ---------------------------------------
  Cycle       Energy         DIIS error
 ---------------------------------------
    1    -227.8379919291      5.70e-04  
    2    -227.8378114880      7.72e-04  Done DIIS. Switching to GDM
 ---------------------------------------
  Cycle       Energy        RMS Gradient
 ---------------------------------------
    1    -227.8378114880      4.04e-02   Normal BFGS step
    2    -227.8343901698      6.00e-02  Line search: overstep
    3    -227.8425625540      3.03e-03   Normal BFGS step
    4    -227.8426347258      1.31e-03   Normal BFGS step
    5    -227.8426465269      1.83e-04   Normal BFGS step
    6    -227.8426472008      4.05e-05   Normal BFGS step
    7    -227.8426472229      1.43e-05   Normal BFGS step
    8    -227.8426472244      1.35e-05   Normal BFGS step
    9    -227.8426472248      5.25e-06   Normal BFGS step
   10    -227.8426472249      2.88e-07   Normal BFGS step
   11    -227.8426472249      7.47e-08  Convergence criterion met
 ---------------------------------------
 SCF time:   CPU 119.44s  wall 15.00s 
<S^2> =         -0.000000000
(3)  G-ENP(liq) elect-nuc-pol free energy of system     -227.842647225 a.u.
(4)  G-CDS(liq) cavity-dispersion-solvent structure 
     free energy                                                4.7469 kcal/mol
(6)  G-S(liq) free energy of system                     -227.835082564 a.u.
 SCF   energy in the final basis set =     -227.8350825638
 Total energy in the final basis set =     -227.8350825638
 
 --------------------------------------------------------------
 
                    Orbital Energies (a.u.)
 --------------------------------------------------------------
 
 Alpha MOs
 -- Occupied --
-19.3702 -19.3702 -10.4544 -10.4542  -1.2215  -1.2079  -0.8236  -0.7106
 -0.6123  -0.6118  -0.5703  -0.5579  -0.5017  -0.4416  -0.3712
 -- Virtual --
 -0.0198   0.0365   0.0461   0.0707   0.0896   0.0919   0.1006   0.1187
  0.1391   0.1431   0.1555   0.1829   0.2364   0.2401   0.2414   0.2600
  0.2925   0.3043   0.3170   0.3268   0.3448   0.3666   0.4067   0.4724
  0.4806   0.5641   0.5917   0.6109   0.6144   0.6444   0.6692   0.6786
  0.6791   0.7546   0.7903   0.8126   0.8298   0.8942   1.0193   1.0503
  1.0722   1.0731   1.0906   1.1124   1.1419   1.1472   1.1728   1.1880
  1.1883   1.2303   1.2683   1.3297   1.3824   1.4542   1.5612   1.5713
  1.5975   1.7015   1.7775   1.7812   1.8337   1.8637   1.9854   2.0667
  2.1513   2.2509   2.4655   2.4832   2.5151   2.6280   2.6428   2.6778
  2.7882   2.8275   2.8933   2.9490   2.9795   2.9942   3.0544   3.0891
  3.1426   3.1957   3.2900   3.3028   3.3628   3.3925   3.4037   3.4231
  3.4824   3.5440   3.5834   3.6834   3.7047   3.7204   3.8425   3.8933
  3.9168   4.1094   4.1755   4.2017   4.2277   4.2398   4.5081   4.6822
  4.7077   5.0819   5.1160   5.1443   5.1547   5.1681   5.1820   5.1822
  5.2941   5.3750   5.4498   5.5385   5.5616   5.5849   5.5988   5.8389
  5.9063   6.3325   6.3461   6.5791   6.8442   6.9089   6.9261   6.9278
  7.0477   7.0880   7.1316   7.2643   7.3208   7.4962   7.5283   7.6847
  7.7481  24.8476  24.9731  50.6783  50.6893
 
 Beta MOs
 -- Occupied --
-19.3702 -19.3702 -10.4544 -10.4542  -1.2215  -1.2079  -0.8236  -0.7106
 -0.6123  -0.6118  -0.5703  -0.5579  -0.5017  -0.4416  -0.3712
 -- Virtual --
 -0.0198   0.0365   0.0461   0.0707   0.0896   0.0919   0.1006   0.1187
  0.1391   0.1431   0.1555   0.1829   0.2364   0.2401   0.2414   0.2600
  0.2925   0.3043   0.3170   0.3268   0.3448   0.3666   0.4067   0.4724
  0.4806   0.5641   0.5917   0.6109   0.6144   0.6444   0.6692   0.6786
  0.6791   0.7546   0.7903   0.8126   0.8298   0.8942   1.0193   1.0503
  1.0722   1.0731   1.0906   1.1124   1.1419   1.1472   1.1728   1.1880
  1.1883   1.2303   1.2683   1.3297   1.3824   1.4542   1.5612   1.5713
  1.5975   1.7015   1.7775   1.7812   1.8337   1.8637   1.9854   2.0667
  2.1513   2.2509   2.4655   2.4832   2.5151   2.6280   2.6428   2.6778
  2.7882   2.8275   2.8933   2.9490   2.9795   2.9942   3.0544   3.0891
  3.1426   3.1957   3.2900   3.3028   3.3628   3.3925   3.4037   3.4231
  3.4824   3.5440   3.5834   3.6834   3.7047   3.7204   3.8425   3.8933
  3.9168   4.1094   4.1755   4.2017   4.2277   4.2398   4.5081   4.6822
  4.7077   5.0819   5.1160   5.1443   5.1547   5.1681   5.1820   5.1822
  5.2941   5.3750   5.4498   5.5385   5.5616   5.5849   5.5988   5.8389
  5.9063   6.3325   6.3461   6.5791   6.8442   6.9089   6.9261   6.9278
  7.0477   7.0880   7.1316   7.2643   7.3208   7.4962   7.5283   7.6847
  7.7481  24.8476  24.9731  50.6783  50.6893
 --------------------------------------------------------------
 
          Ground-State Mulliken Net Atomic Charges

     Atom                 Charge (a.u.)    Spin (a.u.)
  --------------------------------------------------------
      1 C                     0.135298       0.000000
      2 O                    -0.327806       0.000000
      3 H                     0.192627       0.000000
      4 C                     0.135098       0.000000
      5 H                     0.192352       0.000000
      6 O                    -0.327569       0.000000
  --------------------------------------------------------
  Sum of atomic charges =    -0.000000
  Sum of spin   charges =     0.000000

 -----------------------------------------------------------------
                    Cartesian Multipole Moments
 -----------------------------------------------------------------
    Charge (ESU x 10^10)
                -0.0000
    Dipole Moment (Debye)
         X      -0.0015      Y      -0.0044      Z      -0.0000
       Tot       0.0046
    Quadrupole Moments (Debye-Ang)
        XX     -34.3196     XY      -3.1510     YY     -20.0392
        XZ      -0.0000     YZ       0.0000     ZZ     -21.4885
    Octopole Moments (Debye-Ang^2)
       XXX      -0.0092    XXY       0.0041    XYY       0.0008
       YYY       0.0027    XXZ      -0.0000    XYZ      -0.0000
       YYZ      -0.0000    XZZ      -0.0015    YZZ       0.0017
       ZZZ       0.0000
    Hexadecapole Moments (Debye-Ang^3)
      XXXX    -298.8026   XXXY      -1.4569   XXYY     -51.6518
      XYYY      -3.6415   YYYY     -44.3752   XXXZ      -0.0000
      XXYZ       0.0000   XYYZ       0.0000   YYYZ       0.0000
      XXZZ     -44.1275   XYZZ       0.2939   YYZZ     -12.1201
      XZZZ      -0.0000   YZZZ       0.0000   ZZZZ     -19.2200
 -----------------------------------------------------------------
 Calculating analytic gradient of the SCF energy
 Gradient of CDS energy
            1           2           3           4           5           6
    1   0.0027864  -0.0012366  -0.0001492  -0.0027812   0.0001494   0.0012313
    2  -0.0001052  -0.0005758  -0.0000701   0.0001071   0.0000720   0.0005719
    3   0.0000000  -0.0000000  -0.0000000  -0.0000000  -0.0000000   0.0000000
 Gradient of SCF Energy
            1           2           3           4           5           6
    1  -0.0021062   0.0092739  -0.0009660   0.0015903   0.0009048  -0.0086967
    2   0.0059389   0.0042591  -0.0103912  -0.0069468   0.0109524  -0.0038125
    3  -0.0000000  -0.0000000  -0.0000000   0.0000000   0.0000000  -0.0000000
 Max gradient component =       1.095E-02
 RMS gradient           =       5.346E-03
 Computing fast CPCM-SWIG gradient
 Updating gradient with PCM contributions...
 -- total gradient after adding PCM contribution --
---------------------------------------------------
  Atom         X              Y              Z     
---------------------------------------------------
   1      -0.000071      -0.001587       0.000000
   2       0.000540       0.000546      -0.000000
   3      -0.000004       0.000669      -0.000000
   4      -0.000463       0.000564       0.000000
   5      -0.000047      -0.000080       0.000000
   6       0.000045      -0.000113      -0.000000
---------------------------------------------------
 Number of fixed atoms: 0
 Gradient time:  CPU 22.88 s  wall 3.39 s
 ----------------------------------------------------------------
             Standard Nuclear Orientation (Angstroms)
    I     Atom           X                Y                Z
 ----------------------------------------------------------------
    1      C       0.6483783872    -0.3974544840     0.0010000000
    2      O       1.7131351852     0.1664069197     0.0000000000
    3      H       0.5430712774    -1.4914309589     0.0000000000
    4      C      -0.6483783872     0.3974544840     0.0000000000
    5      H      -0.5430712774     1.4914309589     0.0000000000
    6      O      -1.7131351852    -0.1664069197     0.0000000000
 ----------------------------------------------------------------
 Nuclear Repulsion Energy =         102.13354896 hartrees
 There are       15 alpha and       15 beta electrons
 Discretize the solute cavity surface with Lebedev spheres
	Using 110 Lebedev grid points for each H atom
	Using 194 Lebedev grid points for other atoms
	Atomic van der Waals radii will be scaled by 1.20
 Remove points where switching function is < 1.0e-08
 Keep 586 surface tesserae and discard 410 interior tesserae
 Molecular Surface Area = 77.418 Angst**2

                       Distance Matrix (Angstroms)
             C (  1)   O (  2)   H (  3)   C (  4)   H (  5)
   O (  2)  1.204843
   H (  3)  1.099034  2.029156
   C (  4)  1.521006  2.372789  2.233258
   H (  5)  2.233258  2.616516  3.174456  1.099033
   O (  6)  2.372790  3.442397  2.616516  1.204843  2.029156
 
 Requested basis set is 6-311++G(2df,2p)
 There are 44 shells and 156 basis functions
 A cutoff of  1.0D-12 yielded    973 shell pairs
 There are     12270 function pairs (     15635 Cartesian)
 Smallest overlap matrix eigenvalue = 1.81E-04
 Guess MOs from SCF MO coefficient file

 -----------------------------------------------------------------------
  General SCF calculation program by
  Eric Jon Sundstrom, Paul Horn, Yuezhi Mao, Dmitri Zuev, Alec White,
  David Stuck, Shaama M.S., Shane Yost, Joonho Lee, David Small,
  Daniel Levine, Susi Lehtola, Hugh Burton, Evgeny Epifanovsky,
  Bang C. Huynh
 -----------------------------------------------------------------------
 Exchange:     0.1500 Hartree-Fock + 1.0000 wB97M-V + LR-HF
 Correlation:  1.0000 wB97M-V
 Using SG-2 standard quadrature grid
 Nonlocal Correlation:  VV10 with C = 0.0100 and b = 6.00 and scale = 1.00000
 Grid used for NLC:  SG-1 standard quadrature
 
 Citation of the SMD model:
 Marenich, A.V.; Cramer, C.J.; Truhlar, D.G.
 J. Phys. Chem. B 2009, 113, 6378-6396.
 iSolventCode=           1
 Solvent: water                                                           
 
 vradii
            1           2           3           4           5           6
    1   1.8500000   1.5200000   1.2000000   1.8500000   1.2000000   1.5200000
 -------------------------------------------------------
 OpenMP BLAS3 based DFT computing Module                
 Release: version 1.0, May 2013, Q-Chem Inc. Pittsburgh 
 -------------------------------------------------------
 A unrestricted SCF calculation will be
 performed using Roothaan-Hall, DIIS, GDM
 SCF converges when RMS gradient is below 1.0e-07
 ---------------------------------------
  Cycle       Energy         DIIS error
 ---------------------------------------
    1    -227.8255858026      3.64e-04  Roothaan Step
 ---------------------------------------
  Cycle       Energy         DIIS error
 ---------------------------------------
    1    -227.8380188658      5.69e-04  
    2    -227.8378463900      7.69e-04  Done DIIS. Switching to GDM
 ---------------------------------------
  Cycle       Energy        RMS Gradient
 ---------------------------------------
    1    -227.8378463900      4.03e-02   Normal BFGS step
    2    -227.8344516190      5.98e-02  Line search: overstep
    3    -227.8425648410      3.02e-03   Normal BFGS step
    4    -227.8426361165      1.31e-03   Normal BFGS step
    5    -227.8426477690      1.81e-04   Normal BFGS step
    6    -227.8426484310      4.01e-05   Normal BFGS step
    7    -227.8426484532      1.42e-05   Normal BFGS step
    8    -227.8426484551      3.91e-06   Normal BFGS step
    9    -227.8426484551      2.93e-06   Normal BFGS step
   10    -227.8426484551      1.33e-06   Normal BFGS step
   11    -227.8426484552      6.82e-07   Normal BFGS step
   12    -227.8426484552      6.85e-08  Convergence criterion met
 ---------------------------------------
 SCF time:   CPU 127.50s  wall 16.00s 
<S^2> =          0.000000000
(3)  G-ENP(liq) elect-nuc-pol free energy of system     -227.842648455 a.u.
(4)  G-CDS(liq) cavity-dispersion-solvent structure 
     free energy                                                4.7468 kcal/mol
(6)  G-S(liq) free energy of system                     -227.835083993 a.u.
 SCF   energy in the final basis set =     -227.8350839931
 Total energy in the final basis set =     -227.8350839931
 
 --------------------------------------------------------------
 
                    Orbital Energies (a.u.)
 --------------------------------------------------------------
 
 Alpha MOs
 -- Occupied --
-19.3702 -19.3702 -10.4544 -10.4542  -1.2216  -1.2080  -0.8237  -0.7104
 -0.6123  -0.6119  -0.5703  -0.5580  -0.5018  -0.4415  -0.3712
 -- Virtual --
 -0.0198   0.0365   0.0461   0.0707   0.0896   0.0920   0.1005   0.1187
  0.1391   0.1431   0.1555   0.1829   0.2364   0.2401   0.2414   0.2600
  0.2925   0.3043   0.3170   0.3268   0.3448   0.3665   0.4069   0.4724
  0.4808   0.5640   0.5916   0.6109   0.6143   0.6444   0.6694   0.6787
  0.6790   0.7545   0.7905   0.8126   0.8301   0.8942   1.0190   1.0503
  1.0722   1.0731   1.0906   1.1124   1.1418   1.1472   1.1729   1.1880
  1.1885   1.2302   1.2681   1.3297   1.3828   1.4540   1.5610   1.5711
  1.5975   1.7017   1.7780   1.7813   1.8338   1.8634   1.9855   2.0673
  2.1516   2.2513   2.4662   2.4833   2.5152   2.6282   2.6432   2.6778
  2.7882   2.8275   2.8934   2.9490   2.9792   2.9944   3.0543   3.0889
  3.1423   3.1953   3.2906   3.3029   3.3626   3.3927   3.4035   3.4232
  3.4825   3.5434   3.5835   3.6841   3.7054   3.7205   3.8432   3.8930
  3.9160   4.1101   4.1746   4.2014   4.2278   4.2397   4.5084   4.6823
  4.7074   5.0813   5.1159   5.1443   5.1547   5.1681   5.1821   5.1822
  5.2944   5.3749   5.4496   5.5394   5.5616   5.5853   5.5991   5.8385
  5.9067   6.3333   6.3472   6.5790   6.8456   6.9089   6.9262   6.9279
  7.0482   7.0885   7.1323   7.2643   7.3209   7.4964   7.5286   7.6847
  7.7483  24.8478  24.9737  50.6788  50.6896
 
 Beta MOs
 -- Occupied --
-19.3702 -19.3702 -10.4544 -10.4542  -1.2216  -1.2080  -0.8237  -0.7104
 -0.6123  -0.6119  -0.5703  -0.5580  -0.5018  -0.4415  -0.3712
 -- Virtual --
 -0.0198   0.0365   0.0461   0.0707   0.0896   0.0920   0.1005   0.1187
  0.1391   0.1431   0.1555   0.1829   0.2364   0.2401   0.2414   0.2600
  0.2925   0.3043   0.3170   0.3268   0.3448   0.3665   0.4069   0.4724
  0.4808   0.5640   0.5916   0.6109   0.6143   0.6444   0.6694   0.6787
  0.6790   0.7545   0.7905   0.8126   0.8301   0.8942   1.0190   1.0503
  1.0722   1.0731   1.0906   1.1124   1.1418   1.1472   1.1729   1.1880
  1.1885   1.2302   1.2681   1.3297   1.3828   1.4540   1.5610   1.5711
  1.5975   1.7017   1.7780   1.7813   1.8338   1.8634   1.9855   2.0673
  2.1516   2.2513   2.4662   2.4833   2.5152   2.6282   2.6432   2.6778
  2.7882   2.8275   2.8934   2.9490   2.9792   2.9944   3.0543   3.0889
  3.1423   3.1953   3.2906   3.3029   3.3626   3.3927   3.4035   3.4232
  3.4825   3.5434   3.5835   3.6841   3.7054   3.7205   3.8432   3.8930
  3.9160   4.1101   4.1746   4.2014   4.2278   4.2397   4.5084   4.6823
  4.7074   5.0813   5.1159   5.1443   5.1547   5.1681   5.1821   5.1822
  5.2944   5.3749   5.4496   5.5394   5.5616   5.5853   5.5991   5.8385
  5.9067   6.3333   6.3472   6.5790   6.8456   6.9089   6.9262   6.9279
  7.0482   7.0885   7.1323   7.2643   7.3209   7.4964   7.5286   7.6847
  7.7483  24.8478  24.9737  50.6788  50.6896
 --------------------------------------------------------------
 
          Ground-State Mulliken Net Atomic Charges

     Atom                 Charge (a.u.)    Spin (a.u.)
  --------------------------------------------------------
      1 C                     0.135354       0.000000
      2 O                    -0.327573       0.000000
      3 H                     0.192218       0.000000
      4 C                     0.135355       0.000000
      5 H                     0.192218       0.000000
      6 O                    -0.327573       0.000000
  --------------------------------------------------------
  Sum of atomic charges =     0.000000
  Sum of spin   charges =     0.000000

 -----------------------------------------------------------------
                    Cartesian Multipole Moments
 -----------------------------------------------------------------
    Charge (ESU x 10^10)
                 0.0000
    Dipole Moment (Debye)
         X      -0.0000      Y       0.0000      Z       0.0016
       Tot       0.0016
    Quadrupole Moments (Debye-Ang)
        XX     -34.3125     XY      -3.1484     YY     -20.0474
        XZ       0.0007     YZ       0.0004     ZZ     -21.4876
    Octopole Moments (Debye-Ang^2)
       XXX      -0.0000    XXY       0.0000    XYY      -0.0000
       YYY       0.0000    XXZ      -0.0027    XYZ      -0.0009
       YYZ      -0.0056    XZZ       0.0000    YZZ      -0.0000
       ZZZ      -0.0132
    Hexadecapole Moments (Debye-Ang^3)
      XXXX    -298.7437   XXXY      -1.4688   XXYY     -51.6517
      XYYY      -3.6437   YYYY     -44.3914   XXXZ      -0.0128
      XXYZ       0.0025   XYYZ      -0.0038   YYYZ       0.0094
      XXZZ     -44.1214   XYZZ       0.2920   YYZZ     -12.1213
      XZZZ      -0.0101   YZZZ       0.0059   ZZZZ     -19.2179
 -----------------------------------------------------------------
 Calculating analytic gradient of the SCF energy
 Gradient of CDS energy
            1           2           3           4           5           6
    1   0.0027803  -0.0012314  -0.0001493  -0.0027803   0.0001493   0.0012314
    2  -0.0001056  -0.0005719  -0.0000721   0.0001056   0.0000721   0.0005719
    3   0.0000002   0.0000011  -0.0000001  -0.0000011  -0.0000000  -0.0000000
 Gradient of SCF Energy
            1           2           3           4           5           6
    1  -0.0017168   0.0087582  -0.0009610   0.0017165   0.0009609  -0.0087579
    2   0.0072975   0.0037651  -0.0109316  -0.0072975   0.0109315  -0.0037649
    3   0.0003312  -0.0000992  -0.0001228  -0.0001981   0.0000443   0.0000446
 Max gradient component =       1.093E-02
 RMS gradient           =       5.453E-03
 Computing fast CPCM-SWIG gradient
 Updating gradient with PCM contributions...
 -- total gradient after adding PCM contribution --
---------------------------------------------------
  Atom         X              Y              Z     
---------------------------------------------------
   1       0.000333      -0.000224       0.000299
   2       0.000017       0.000062      -0.000093
   3      -0.000005       0.000102      -0.000105
   4      -0.000333       0.000224      -0.000185
   5       0.000005      -0.000103       0.000040
   6      -0.000017      -0.000062       0.000044
---------------------------------------------------
 Number of fixed atoms: 0
 Gradient time:  CPU 22.93 s  wall 3.38 s
 ----------------------------------------------------------------
             Standard Nuclear Orientation (Angstroms)
    I     Atom           X                Y                Z
 ----------------------------------------------------------------
    1      C       0.6483783872    -0.3974544840    -0.0010000000
    2      O       1.7131351852     0.1664069197     0.0000000000
    3      H       0.5430712774    -1.4914309589     0.0000000000
    4      C      -0.6483783872     0.3974544840     0.0000000000
    5      H      -0.5430712774     1.4914309589     0.0000000000
    6      O      -1.7131351852    -0.1664069197     0.0000000000
 ----------------------------------------------------------------
 Nuclear Repulsion Energy =         102.13354896 hartrees
 There are       15 alpha and       15 beta electrons
 Discretize the solute cavity surface with Lebedev spheres
	Using 110 Lebedev grid points for each H atom
	Using 194 Lebedev grid points for other atoms
	Atomic van der Waals radii will be scaled by 1.20
 Remove points where switching function is < 1.0e-08
 Keep 586 surface tesserae and discard 410 interior tesserae
 Molecular Surface Area = 77.418 Angst**2

                       Distance Matrix (Angstroms)
             C (  1)   O (  2)   H (  3)   C (  4)   H (  5)
   O (  2)  1.204843
   H (  3)  1.099034  2.029156
   C (  4)  1.521006  2.372789  2.233258
   H (  5)  2.233258  2.616516  3.174456  1.099033
   O (  6)  2.372790  3.442397  2.616516  1.204843  2.029156
 
 Requested basis set is 6-311++G(2df,2p)
 There are 44 shells and 156 basis functions
 A cutoff of  1.0D-12 yielded    973 shell pairs
 There are     12270 function pairs (     15635 Cartesian)
 Smallest overlap matrix eigenvalue = 1.81E-04
 Guess MOs from SCF MO coefficient file

 -----------------------------------------------------------------------
  General SCF calculation program by
  Eric Jon Sundstrom, Paul Horn, Yuezhi Mao, Dmitri Zuev, Alec White,
  David Stuck, Shaama M.S., Shane Yost, Joonho Lee, David Small,
  Daniel Levine, Susi Lehtola, Hugh Burton, Evgeny Epifanovsky,
  Bang C. Huynh
 -----------------------------------------------------------------------
 Exchange:     0.1500 Hartree-Fock + 1.0000 wB97M-V + LR-HF
 Correlation:  1.0000 wB97M-V
 Using SG-2 standard quadrature grid
 Nonlocal Correlation:  VV10 with C = 0.0100 and b = 6.00 and scale = 1.00000
 Grid used for NLC:  SG-1 standard quadrature
 
 Citation of the SMD model:
 Marenich, A.V.; Cramer, C.J.; Truhlar, D.G.
 J. Phys. Chem. B 2009, 113, 6378-6396.
 iSolventCode=           1
 Solvent: water                                                           
 
 vradii
            1           2           3           4           5           6
    1   1.8500000   1.5200000   1.2000000   1.8500000   1.2000000   1.5200000
 -------------------------------------------------------
 OpenMP BLAS3 based DFT computing Module                
 Release: version 1.0, May 2013, Q-Chem Inc. Pittsburgh 
 -------------------------------------------------------
 A unrestricted SCF calculation will be
 performed using Roothaan-Hall, DIIS, GDM
 SCF converges when RMS gradient is below 1.0e-07
 ---------------------------------------
  Cycle       Energy         DIIS error
 ---------------------------------------
    1    -227.8256018256      3.63e-04  Roothaan Step
 ---------------------------------------
  Cycle       Energy         DIIS error
 ---------------------------------------
    1    -227.8380122230      5.69e-04  
    2    -227.8378376415      7.70e-04  Done DIIS. Switching to GDM
 ---------------------------------------
  Cycle       Energy        RMS Gradient
 ---------------------------------------
    1    -227.8378376415      4.03e-02   Normal BFGS step
    2    -227.8344365938      5.99e-02  Line search: overstep
    3    -227.8425645007      3.02e-03   Normal BFGS step
    4    -227.8426360572      1.31e-03   Normal BFGS step
    5    -227.8426477624      1.82e-04   Normal BFGS step
    6    -227.8426484298      4.02e-05   Normal BFGS step
[...]
   15  -0.0000010  -0.0000004   0.0218479  -0.0000016   0.0000000   0.0175413
   16  -0.0094710  -0.0221174  -0.0000016   0.6913523   0.3205568   0.0000004
   17  -0.0460217  -0.0140244   0.0000000   0.3205568   0.2422245   0.0000001
   18   0.0000002  -0.0000000   0.0175413   0.0000004   0.0000001   0.0166288
 ----------------------------------------------------------------
             Standard Nuclear Orientation (Angstroms)
    I     Atom           X                Y                Z
 ----------------------------------------------------------------
    1      C       0.6483783872    -0.3974544840     0.0000000000
    2      O       1.7131351852     0.1664069197     0.0000000000
    3      H       0.5430712774    -1.4914309589     0.0000000000
    4      C      -0.6483783872     0.3974544840     0.0000000000
    5      H      -0.5430712774     1.4914309589     0.0000000000
    6      O      -1.7131351852    -0.1664069197     0.0000000000
 ----------------------------------------------------------------
 Nuclear Repulsion Energy =         102.13356121 hartrees
 There are       15 alpha and       15 beta electrons
 old dipole drv.
            1           2           3           4           5           6
    1   1.2919639   0.3033234   0.0001066  -1.3010904  -0.2883947   0.0000239
    2   0.2580662   0.9117533   0.0000504  -0.2543147  -0.7552651   0.0000106
    3  -0.0000000  -0.0000000   0.3349716   0.0000014   0.0000000  -0.4580934
            7           8           9          10          11          12
    1   0.0091151  -0.0149572   0.0000474   1.2919838   0.3033234  -0.0000909
    2  -0.0037433  -0.1564956   0.0000257   0.2580662   0.9117535  -0.0000488
    3  -0.0000003  -0.0000000   0.1231194  -0.0000011  -0.0000000   0.3349714
           13          14          15          16          17          18
    1   0.0091277  -0.0149572  -0.0000479  -1.3010907  -0.2883948  -0.0000146
    2  -0.0037452  -0.1564957  -0.0000223  -0.2543138  -0.7552653  -0.0000087
    3  -0.0000015  -0.0000000   0.1231194  -0.0000009  -0.0000000  -0.4580934
 New transposed dipole drv.
            1           2           3
    1   1.2919639   0.2580662  -0.0000000
    2   0.3033234   0.9117533  -0.0000000
    3   0.0001066   0.0000504   0.3349716
    4  -1.3010904  -0.2543147   0.0000014
    5  -0.2883947  -0.7552651   0.0000000
    6   0.0000239   0.0000106  -0.4580934
    7   0.0091151  -0.0037433  -0.0000003
    8  -0.0149572  -0.1564956  -0.0000000
    9   0.0000474   0.0000257   0.1231194
   10   1.2919838   0.2580662  -0.0000011
   11   0.3033234   0.9117535  -0.0000000
   12  -0.0000909  -0.0000488   0.3349714
   13   0.0091277  -0.0037452  -0.0000015
   14  -0.0149572  -0.1564957  -0.0000000
   15  -0.0000479  -0.0000223   0.1231194
   16  -1.3010907  -0.2543138  -0.0000009
   17  -0.2883948  -0.7552653  -0.0000000
   18  -0.0000146  -0.0000087  -0.4580934
FINAL TENSOR RESULT:
Order 2, Length 18
    Atom      X          Y          Z
     1 Order 1, Length 18
    Atom      X          Y          Z
     1    8.232905626803627e-01   2.137453171537301e-01  -3.425900437121095e-06
     2   -6.179184728216319e-01  -2.779427549989457e-01  -3.677061680325396e-08
     3   -5.643434306826419e-02   4.941392923843577e-03  -9.887580008869482e-07
     4   -1.087586064928214e-01   6.912438281479201e-02   1.281083523233444e-06
     5    4.458546661470802e-03  -1.026118904667607e-02   1.233704771230807e-06
     6   -4.463881942278247e-02   3.971722644007841e-04   8.874174702786546e-07

Order 1, Length 18
    Atom      X          Y          Z
     1    2.137453171537301e-01   7.203427503713018e-01  -1.785434640127259e-06
     2   -2.773752404530965e-01  -2.564038647336521e-01  -5.024312560395696e-08
     3   -8.221606499281977e-05  -2.988418699931597e-01  -8.116095520037159e-07
     4    6.912251167404727e-02  -1.798795569991616e-01   1.376240958592263e-06
     5    2.716426266399022e-02  -1.215537231273391e-02   7.098626461064470e-07
     6   -3.257703926493610e-02   2.693962707227735e-02   5.617583002864996e-07

Order 1, Length 18
    Atom      X          Y          Z
     1   -3.425900437121095e-06  -1.785434640127259e-06   1.580328740455833e-01
     2    1.964210548211296e-06   0.000000000000000e+00  -4.937329403962261e-02
     3    8.401247794027703e-07   0.000000000000000e+00  -5.532843525913102e-02
     4   -3.035429303285224e-06   0.000000000000000e+00  -9.805223017492837e-02
     5    1.344855501556493e-06   0.000000000000000e+00   2.131889345110638e-02
     6    3.004526984288897e-06   0.000000000000000e+00   2.340289363778273e-02


     2 Order 1, Length 18
    Atom      X          Y          Z
     1   -6.179184728216319e-01  -2.773752404530965e-01   1.964210548211296e-06
     2    6.913563603735393e-01   3.205570867299882e-01   6.400939077208183e-07
     3   -9.472023807964454e-03  -2.211724294984347e-02   2.597363432168258e-07
     4   -4.463339609257829e-02  -3.257691102957039e-02  -9.414818737910479e-07
     5    2.276648758936004e-03   4.448829465604395e-03  -7.923251092516211e-07
     6   -2.160757972225467e-02   7.059420602030418e-03  -3.845174374799868e-07

Order 1, Length 18
    Atom      X          Y          Z
     1   -2.779427549989457e-01  -2.564038647336521e-01   0.000000000000000e+00
     2    3.205570867299882e-01   2.422241040016668e-01   1.492643563731643e-07
     3   -4.602215585839849e-02  -1.402446335778425e-02   1.150827109826871e-07
     4    3.981743562846137e-04   2.693883710329587e-02  -3.488402961281347e-07
     5   -4.050240747723579e-03   3.255775510339726e-03  -4.986993001931747e-07
     6    7.060443116952849e-03  -1.992011474848394e-03  -1.057392224955275e-07

Order 1, Length 18
    Atom      X          Y          Z
     1   -3.677061680325396e-08  -5.024312560395696e-08  -4.937329403962261e-02
     2    6.400939077208183e-07   1.492643563731643e-07   1.662883356141044e-02
     3   -7.301973577147180e-08   0.000000000000000e+00   1.754126264550146e-02
     4   -1.604337703545874e-06   0.000000000000000e+00   2.340288814792483e-02
     5    3.116414622440722e-08   0.000000000000000e+00  -4.169128756553376e-03
     6    8.428974804569425e-07   0.000000000000000e+00  -4.030768604896272e-03


     3 Order 1, Length 18
    Atom      X          Y          Z
     1   -5.643434306826419e-02  -8.221606499281977e-05   8.401247794027703e-07
     2   -9.472023807964454e-03  -4.602215585839849e-02  -7.301973577147180e-08
     3    6.352136305753683e-02   2.089196560022707e-02   3.168939721658618e-07
     4    4.460979758430017e-03   2.716422652338071e-02  -3.662282791766515e-07
     5   -4.350560015147345e-03   2.098734893763303e-03  -3.437442470845313e-07
     6    2.274393714326642e-03  -4.051118653901682e-03  -1.589230807456070e-07

Order 1, Length 18
    Atom      X          Y          Z
     1    4.941392923843577e-03  -2.988418699931597e-01   0.000000000000000e+00
     2   -2.211724294984347e-02  -1.402446335778425e-02   0.000000000000000e+00
     3    2.089196560022707e-02   3.233795351786296e-01   7.326103217550896e-07
     4   -1.026144285278210e-02  -1.215539463629662e-02  -1.006109030135966e-06
     5    2.097902011805487e-03  -1.613131095068870e-03  -1.745579886135652e-07
     6    4.448817131415023e-03   3.255760515380762e-03  -4.696888419616612e-07

Order 1, Length 18
    Atom      X          Y          Z
     1   -9.887580008869482e-07  -8.116095520037159e-07  -5.532843525913102e-02
     2    2.597363432168258e-07   1.150827109826871e-07   1.754126264550146e-02
     3    3.168939721658618e-07   7.326103217550896e-07   2.184789606865388e-02
     4   -9.385346627724332e-07   0.000000000000000e+00   2.131887508671158e-02
     5    3.740682667792169e-07   0.000000000000000e+00  -1.210966251713028e-03
     6    8.500850557540038e-07   0.000000000000000e+00  -4.169126985105284e-03


     4 Order 1, Length 18
    Atom      X          Y          Z
     1   -1.087586064928214e-01   6.912251167404727e-02  -3.035429303285224e-06
     2   -4.463339609257829e-02   3.981743562846137e-04  -1.604337703545874e-06
     3    4.460979758430017e-03  -1.026144285278210e-02  -9.385346627724332e-07
     4    8.232898223568406e-01   2.137457212051345e-01   2.319621522441053e-06
     5   -5.643613715415917e-02   4.940818361236093e-03   1.926500307859294e-06
     6   -6.179158794921196e-01  -2.779430621094714e-01  -9.341222990266087e-07

Order 1, Length 18
    Atom      X          Y          Z
     1    6.912438281479201e-02  -1.798795569991616e-01   0.000000000000000e+00
     2   -3.257691102957039e-02   2.693883710329587e-02   0.000000000000000e+00
     3    2.716422652338071e-02  -1.215539463629662e-02   0.000000000000000e+00
     4    2.137457212051345e-01   7.203413852833612e-01   1.649890918490955e-06
     5   -8.228190833766830e-05  -2.988418668272265e-01   7.387454914423764e-07
     6   -2.773735680752150e-01  -2.564039307422408e-01  -3.693619703328925e-08

Order 1, Length 18
    Atom      X          Y          Z
     1    1.281083523233444e-06   1.376240958592263e-06  -9.805223017492837e-02
     2   -9.414818737910479e-07  -3.488402961281347e-07   2.340288814792483e-02
     3   -3.662282791766515e-07  -1.006109030135966e-06   2.131887508671158e-02
     4    2.319621522441053e-06   1.649890918490955e-06   1.580329289100983e-01
     5   -6.825453025760067e-07   0.000000000000000e+00  -5.532845756126715e-02
     6   -1.418690667902041e-06   0.000000000000000e+00  -4.937330463571110e-02


     5 Order 1, Length 18
    Atom      X          Y          Z
     1    4.458546661470802e-03   2.716426266399022e-02   1.344855501556493e-06
     2    2.276648758936004e-03  -4.050240747723579e-03   3.116414622440722e-08
     3   -4.350560015147345e-03   2.097902011805487e-03   3.740682667792169e-07
     4   -5.643613715415917e-02  -8.228190833766830e-05  -6.825453025760067e-07
     5    6.352205179052632e-02   2.089153866853829e-02  -1.017474194137240e-06
     6   -9.470965988270300e-03  -4.602174020693021e-02   2.283696654172951e-07

Order 1, Length 18
    Atom      X          Y          Z
     1   -1.026118904667607e-02  -1.215537231273391e-02   0.000000000000000e+00
     2    4.448829465604395e-03   3.255775510339726e-03   0.000000000000000e+00
     3    2.098734893763303e-03  -1.613131095068870e-03   0.000000000000000e+00
     4    4.940818361236093e-03  -2.988418668272265e-01   0.000000000000000e+00
     5    2.089153866853829e-02   3.233794968399376e-01  -4.138724468859415e-07
     6   -2.211735364036481e-02  -1.402444822985793e-02  -4.639159169898308e-08

Order 1, Length 18
    Atom      X          Y          Z
     1    1.233704771230807e-06   7.098626461064470e-07   2.131889345110638e-02
     2   -7.923251092516211e-07  -4.986993001931747e-07  -4.169128756553376e-03
     3   -3.437442470845313e-07  -1.745579886135652e-07  -1.210966251713028e-03
     4    1.926500307859294e-06   7.387454914423764e-07  -5.532845756126715e-02
     5   -1.017474194137240e-06  -4.138724468859415e-07   2.184789970090028e-02
     6   -1.555398429135100e-06   0.000000000000000e+00   1.754126587273975e-02


     6 Order 1, Length 18
    Atom      X          Y          Z
     1   -4.463881942278247e-02  -3.257703926493610e-02   3.004526984288897e-06
     2   -2.160757972225467e-02   7.060443116952849e-03   8.428974804569425e-07
     3    2.274393714326642e-03   4.448817131415023e-03   8.500850557540038e-07
     4   -6.179158794921196e-01  -2.773735680752150e-01  -1.418690667902041e-06
     5   -9.470965988270300e-03  -2.211735364036481e-02  -1.555398429135100e-06
     6    6.913522701206817e-01   3.205568397153721e-01   3.528152222123262e-07

Order 1, Length 18
    Atom      X          Y          Z
     1    3.971722644007841e-04   2.693962707227735e-02   0.000000000000000e+00
     2    7.059420602030418e-03  -1.992011474848394e-03   0.000000000000000e+00
     3   -4.051118653901682e-03   3.255760515380762e-03   0.000000000000000e+00
     4   -2.779430621094714e-01  -2.564039307422408e-01   0.000000000000000e+00
     5   -4.602174020693021e-02  -1.402444822985793e-02   0.000000000000000e+00
     6    3.205568397153721e-01   2.422245487006258e-01   9.700295246248584e-08

Order 1, Length 18
    Atom      X          Y          Z
     1    8.874174702786546e-07   5.617583002864996e-07   2.340289363778273e-02
     2   -3.845174374799868e-07  -1.057392224955275e-07  -4.030768604896272e-03
     3   -1.589230807456070e-07  -4.696888419616612e-07  -4.169126985105284e-03
     4   -9.341222990266087e-07  -3.693619703328925e-08  -4.937330463571110e-02
     5    2.283696654172951e-07  -4.639159169898308e-08   1.754126587273975e-02
     6    3.528152222123262e-07   9.700295246248584e-08   1.662883456743490e-02




 # Finishing finite difference calculation for IDERIV #
 ######################################################
 ######################################################
 Requested basis set is 6-311++G(2df,2p)
 There are 44 shells and 156 basis functions
 **********************************************************************
 **                                                                  **
 **                       VIBRATIONAL ANALYSIS                       **
 **                       --------------------                       **
 **                                                                  **
 **        VIBRATIONAL FREQUENCIES (CM**-1) AND NORMAL MODES         **
 **     FORCE CONSTANTS (mDYN/ANGSTROM) AND REDUCED MASSES (AMU)     **
 **                  INFRARED INTENSITIES (KM/MOL)                   **
 **                                                                  **
 **********************************************************************
 

 Mode:                 1                      2                      3
 Frequency:       111.66                 332.44                 561.55
 Force Cnst:      0.0315                 0.2921                 1.8152
 Red. Mass:       4.2906                 4.4860                 9.7701
 IR Active:          YES                    YES                    YES
 IR Intens:       68.258                 99.317                  0.000
 Raman Active:       YES                    YES                    YES
               X      Y      Z        X      Y      Z        X      Y      Z
 C         -0.000  0.000 -0.267   -0.116  0.255  0.000    0.315  0.113 -0.000
 O         -0.000 -0.000  0.239    0.120 -0.210 -0.000    0.454 -0.067  0.000
 H         -0.000  0.000 -0.609   -0.530  0.286  0.000    0.410  0.099 -0.000
 C          0.000  0.000 -0.267   -0.116  0.255  0.000   -0.315 -0.113  0.000
 H         -0.000  0.000 -0.609   -0.530  0.286 -0.000   -0.410 -0.099 -0.000
 O          0.000 -0.000  0.239    0.120 -0.210 -0.000   -0.454  0.067  0.000
 TransDip  -0.000  0.000 -0.265   -0.167  0.272  0.000   -0.000 -0.000 -0.000

 Mode:                 4                      5                      6
 Frequency:       825.54                1088.29                1095.91
 Force Cnst:      0.5009                 3.0065                 1.3182
 Red. Mass:       1.2475                 4.3085                 1.8629
 IR Active:          YES                    YES                    YES
 IR Intens:        4.879                  0.000                  0.000
 Raman Active:       YES                    YES                    YES
               X      Y      Z        X      Y      Z        X      Y      Z
 C         -0.000  0.000 -0.098    0.177 -0.337 -0.000    0.000 -0.000  0.191
 O          0.000 -0.000  0.030   -0.043  0.044  0.000    0.000 -0.000 -0.041
 H          0.000 -0.000  0.700    0.449 -0.387  0.000    0.000 -0.000 -0.679
 C         -0.000  0.000 -0.098   -0.177  0.337  0.000   -0.000  0.000 -0.191
 H          0.000  0.000  0.700   -0.449  0.387 -0.000    0.000  0.000  0.679
 O         -0.000 -0.000  0.030    0.043 -0.044 -0.000    0.000 -0.000  0.041
 TransDip  -0.000  0.000  0.071   -0.000  0.000  0.000   -0.000 -0.000  0.000

 Mode:                 7                      8                      9
 Frequency:      1338.07                1381.82                1780.52
 Force Cnst:      1.2551                 1.3874                21.0836
 Red. Mass:       1.1898                 1.2333                11.2875
 IR Active:          YES                    YES                    YES
 IR Intens:       17.133                  0.000                549.383
 Raman Active:       YES                    YES                    YES
               X      Y      Z        X      Y      Z        X      Y      Z
 C         -0.051  0.056 -0.000    0.037 -0.056 -0.000    0.465  0.209  0.000
 O         -0.006 -0.042  0.000    0.039  0.052  0.000   -0.349 -0.175 -0.000
 H          0.702  0.002  0.000   -0.701 -0.006 -0.000   -0.007  0.296  0.000
 C         -0.051  0.056  0.000   -0.037  0.056  0.000    0.465  0.209 -0.000
 H          0.702  0.002 -0.000    0.701  0.006 -0.000   -0.007  0.296  0.000
 O         -0.006 -0.042 -0.000   -0.039 -0.052 -0.000   -0.349 -0.175  0.000
 TransDip  -0.043  0.126 -0.000    0.000  0.000 -0.000    0.693  0.289  0.000

 Mode:                10                     11                     12
 Frequency:      1813.68                3030.46                3036.22
 Force Cnst:     17.9157                 5.8986                 5.9289
 Red. Mass:       9.2441                 1.0901                 1.0916
 IR Active:          YES                    YES                    YES
 IR Intens:        0.000                108.129                  0.000
 Raman Active:       YES                    YES                    YES
               X      Y      Z        X      Y      Z        X      Y      Z
 C          0.449  0.198 -0.000   -0.007 -0.061 -0.000   -0.000 -0.062 -0.000
 O         -0.277 -0.148  0.000    0.002  0.001  0.000   -0.001  0.001 -0.000
 H         -0.328  0.231 -0.000    0.051  0.703  0.000    0.053  0.702  0.000
 C         -0.449 -0.198  0.000   -0.007 -0.061  0.000    0.000  0.062 -0.000
 H          0.328 -0.231 -0.000    0.051  0.703 -0.000   -0.053 -0.702  0.000
 O          0.277  0.148  0.000    0.002  0.001 -0.000    0.001 -0.001 -0.000
 TransDip   0.000  0.000 -0.000   -0.079 -0.324 -0.000   -0.000 -0.000  0.000

 STANDARD THERMODYNAMIC QUANTITIES AT   298.15 K  AND     1.00 ATM

   This Molecule has  0 Imaginary Frequencies
   Zero point vibrational energy:       23.439 kcal/mol

   Atom    1 Element C  Has Mass   12.00000
   Atom    2 Element O  Has Mass   15.99491
   Atom    3 Element H  Has Mass    1.00783
   Atom    4 Element C  Has Mass   12.00000
   Atom    5 Element H  Has Mass    1.00783
   Atom    6 Element O  Has Mass   15.99491
   Molecular Mass:    58.005480 amu
   Principal axes and moments of inertia in amu*Bohr^2:
                             1           2           3
    Eigenvalues --       32.64995   373.48504   406.13499
          X               0.99991    -0.01364     0.00000
          Y               0.01364     0.99991     0.00000
          Z               0.00000     0.00000     1.00000
   Rotational Symmetry Number is   1
   The Molecule is an Asymmetric Top
   Translational Enthalpy:        0.889 kcal/mol
   Rotational Enthalpy:           0.889 kcal/mol
   Vibrational Enthalpy:         24.330 kcal/mol
   gas constant (RT):             0.592 kcal/mol
   Translational Entropy:        38.094  cal/mol.K
   Rotational Entropy:           23.119  cal/mol.K
   Vibrational Entropy:           5.374  cal/mol.K

   Total Enthalpy:               26.700 kcal/mol
   Total Entropy:                66.588  cal/mol.K
 Total job time:  731.92s(wall), 5605.47s(cpu) 
 Fri Jan 20 17:00:26 2023

        *************************************************************
        *                                                           *
        *  Thank you very much for using Q-Chem.  Have a nice day.  *
        *                                                           *
        *************************************************************


