
Running Job 1 of 1 Q_in.in
qchem Q_in.in_4102.0 /scratch/ari.fischer/qChem1348729.hpc-mn1/qchem4102/ 0
/usr/local/qchem-5.4.1/exe/qcprog.exe_s Q_in.in_4102.0 /scratch/ari.fischer/qChem1348729.hpc-mn1/qchem4102/
                  Welcome to Q-Chem
     A Quantum Leap Into The Future Of Chemistry


 Q-Chem 5.4, Q-Chem, Inc., Pleasanton, CA (2021)

 License issued to: Nanyang Technological University (site)

 E. Epifanovsky,  A. T. B. Gilbert,  Xintian Feng,  Joonho Lee,  Yuezhi Mao,  
 N. Mardirossian,  P. Pokhilko,  A. White,  M. Wormit,  M. P. Coons,  
 A. L. Dempwolff,  Zhengting Gan,  D. Hait,  P. R. Horn,  L. D. Jacobson,  
 I. Kaliman,  J. Kussmann,  A. W. Lange,  Ka Un Lao,  D. S. Levine,  Jie Liu,  
 S. C. McKenzie,  A. F. Morrison,  K. Nanda,  F. Plasser,  D. R. Rehn,  
 M. L. Vidal,  Zhi-Qiang You,  Ying Zhu,  B. Alam,  B. Albrecht,  
 A. Aldossary,  E. Alguire,  J. H. Andersen,  D. Barton,  K. Begam,  A. Behn,  
 Y. A. Bernard,  E. J. Berquist,  H. Burton,  A. Carreras,  K. Carter-Fenk,  
 R. Chakraborty,  A. D. Chien,  K. D. Closser,  V. Cofer-Shabica,  
 S. Dasgupta,  Jia Deng,  M. de Wergifosse,  M. Diedenhofen,  Hainam Do,  
 S. Ehlert,  Po-Tung Fang,  S. Fatehi,  Qingguo Feng,  T. Friedhoff,  
 J. Gayvert,  Qinghui Ge,  G. Gidofalvi,  M. Goldey,  J. Gomes,  
 C. Gonzalez-Espinoza,  S. Gulania,  A. Gunina,  M. W. D. Hanson-Heine,  
 P. H. P. Harbach,  A. W. Hauser,  M. F. Herbst,  M. Hernandez Vera,  
 M. Hodecker,  Z. C. Holden,  S. Houck,  Xunkun Huang,  Kerwin Hui,  
 B. C. Huynh,  M. Ivanov,  Hyunjun Ji,  Hanjie Jiang,  B. Kaduk,  S. Kaehler,  
 K. Khistyaev,  Jaehoon Kim,  P. Klunzinger,  Z. Koczor-Benda,  
 Joong Hoon Koh,  D. Kosenkov,  L. Koulias,  T. Kowalczyk,  C. M. Krauter,  
 K. Kue,  A. Kunitsa,  T. Kus,  A. Landau,  K. V. Lawler,  D. Lefrancois,  
 S. Lehtola,  Rain Li,  Yi-Pei Li,  Jiashu Liang,  M. Liebenthal,  
 Hung-Hsuan Lin,  You-Sheng Lin,  Fenglai Liu,  Kuan-Yu Liu,  
 M. Loipersberger,  A. Luenser,  A. Manjanath,  P. Manohar,  E. Mansoor,  
 S. F. Manzer,  Shan-Ping Mao,  A. V. Marenich,  T. Markovich,  S. Mason,  
 S. A. Maurer,  P. F. McLaughlin,  M. F. S. J. Menger,  J.-M. Mewes,  
 S. A. Mewes,  P. Morgante,  J. W. Mullinax,  K. J. Oosterbaan,  G. Paran,  
 Alexander C. Paul,  Suranjan K. Paul,  F. Pavosevic,  Zheng Pei,  S. Prager,  
 E. I. Proynov,  E. Ramos,  B. Rana,  A. E. Rask,  A. Rettig,  R. M. Richard,  
 F. Rob,  E. Rossomme,  T. Scheele,  M. Scheurer,  M. Schneider,  
 N. Sergueev,  S. M. Sharada,  W. Skomorowski,  D. W. Small,  C. J. Stein,  
 Yu-Chuan Su,  E. J. Sundstrom,  Zhen Tao,  J. Thirman,  T. Tsuchimochi,  
 N. M. Tubman,  S. P. Veccham,  O. Vydrov,  J. Wenzel,  J. Witte,  A. Yamada,  
 Kun Yao,  S. Yeganeh,  S. R. Yost,  A. Zech,  Igor Ying Zhang,  Xing Zhang,  
 Yu Zhang,  D. Zuev,  A. Aspuru-Guzik,  A. T. Bell,  N. A. Besley,  
 K. B. Bravaya,  B. R. Brooks,  D. Casanova,  Jeng-Da Chai,  S. Coriani,  
 C. J. Cramer,  A. E. DePrince, III,  R. A. DiStasio Jr.,  A. Dreuw,  
 B. D. Dunietz,  T. R. Furlani,  W. A. Goddard III,  S. Grimme,  
 S. Hammes-Schiffer,  T. Head-Gordon,  W. J. Hehre,  Chao-Ping Hsu,  
 T.-C. Jagau,  Yousung Jung,  A. Klamt,  Jing Kong,  D. S. Lambrecht,  
 WanZhen Liang,  N. J. Mayhall,  C. W. McCurdy,  J. B. Neaton,  
 C. Ochsenfeld,  J. A. Parkhill,  R. Peverati,  V. A. Rassolov,  Yihan Shao,  
 L. V. Slipchenko,  T. Stauch,  R. P. Steele,  J. E. Subotnik,  
 A. J. W. Thom,  A. Tkatchenko,  D. G. Truhlar,  T. Van Voorhis,  
 T. A. Wesolowski,  K. B. Whaley,  H. L. Woodcock III,  P. M. Zimmerman,  
 S. Faraji,  P. M. W. Gill,  M. Head-Gordon,  J. M. Herbert,  A. I. Krylov

 Additional authors for Version 5.4.1: 
 S. Kotaru,  Shaozhi Li,  Xiangyuan Li,  F. Matz,  A. Molle,  Haisheng Ren,  
 Yingli Su,  Hung-Yi Tsai,  C. Utku,  Fang Wang

 Contributors to earlier versions of Q-Chem not listed above: 
 R. D. Adamson,  B. Austin,  R. Baer,  J. Baker,  G. J. O. Beran,  
 K. Brandhorst,  S. T. Brown,  E. F. C. Byrd,  A. K. Chakraborty,  
 G. K. L. Chan,  Chun-Min Chang,  Yunqing Chen,  C.-L. Cheng,  
 Siu Hung Chien,  D. M. Chipman,  D. L. Crittenden,  H. Dachsel,  
 R. J. Doerksen,  A. D. Dutoi,  R. G. Edgar,  J. Fosso-Tande,  
 L. Fusti-Molnar,  D. Ghosh,  A. Ghysels,  A. Golubeva-Zadorozhnaya,  
 J. Gonthier,  M. S. Gordon,  S. R. Gwaltney,  G. Hawkins,  J. E. Herr,  
 A. Heyden,  S. Hirata,  E. G. Hohenstein,  G. Kedziora,  F. J. Keil,  
 C. Kelley,  Jihan Kim,  R. A. King,  R. Z. Khaliullin,  P. P. Korambath,  
 W. Kurlancheek,  A. Laurent,  A. M. Lee,  M. S. Lee,  S. V. Levchenko,  
 Ching Yeh Lin,  D. Liotard,  E. Livshits,  R. C. Lochan,  I. Lotan,  
 L. A. Martinez-Martinez,  P. E. Maslen,  N. Nair,  D. P. O'Neill,  
 D. Neuhauser,  E. Neuscamman,  C. M. Oana,  R. Olivares-Amaya,  R. Olson,  
 T. M. Perrine,  B. Peters,  P. A. Pieniazek,  A. Prociuk,  Y. M. Rhee,  
 J. Ritchie,  M. A. Rohrdanz,  E. Rosta,  N. J. Russ,  H. F. Schaefer III,  
 M. W. Schmidt,  N. E. Schultz,  S. Sharma,  N. Shenvi,  C. D. Sherrill,  
 A. C. Simmonett,  A. Sodt,  T. Stein,  D. Stuck,  K. S. Thanthiriwatte,  
 V. Vanovschi,  L. Vogt,  Tao Wang,  A. Warshel,  M. A. Watson,  
 C. F. Williams,  Q. Wu,  X. Xu,  Jun Yang,  W. Zhang,  Yan Zhao

 Please cite Q-Chem as follows:
 Y. Shao et al., Mol. Phys. 113, 184-215 (2015)
 DOI: 10.1080/00268976.2014.952696

 Q-Chem 5.4.1 for Intel X86 EM64T Linux

 Parts of Q-Chem use Armadillo 9.800.1 (Horizon Scraper).
 http://arma.sourceforge.net/

 Q-Chem begins on Fri Dec  9 17:33:52 2022  

 Host: 
0

     Scratch files written to /scratch/ari.fischer/qChem1348729.hpc-mn1/qchem4102//
 Aug1521 |scratch|qcdevops|jenkins|workspace|build_RNUM 8249   
 Processing $rem in /usr/local/qchem-5.4.1/config/preferences:
 Processing $rem in /home/ari.fischer/.qchemrc:
 Symmetry turned off for PCM/SM12/SMD calculation

 Checking the input file for inconsistencies... 	...done.

--------------------------------------------------------------
User input:
--------------------------------------------------------------
$molecule
0 1
C         0.6532206427   -0.3927226279    0.0000000000
O         1.7135987287    0.1659589307    0.0000000000
H         0.5399731275   -1.4905649094    0.0000000000
C        -0.6532206427    0.3927226279    0.0000000000
H        -0.5399731275    1.4905649094    0.0000000000
O        -1.7135987287   -0.1659589307    0.0000000000
$end

$rem
BASIS = 6-311++G(2df,2p)
GUI = 2
JOB_TYPE = Optimization
METHOD = wB97M-V
SCF_ALGORITHM = DIIS_GDM
MAX_SCF_CYCLES = 400
GEOM_OPT_MAX_CYCLES = 150
SCF_CONVERGENCE = 7
THRESH = 12
SOLVENT_METHOD = smd
$end
--------------------------------------------------------------
 ----------------------------------------------------------------
             Standard Nuclear Orientation (Angstroms)
    I     Atom           X                Y                Z
 ----------------------------------------------------------------
    1      C       0.6532206427    -0.3927226279     0.0000000000
    2      O       1.7135987287     0.1659589307     0.0000000000
    3      H       0.5399731275    -1.4905649094     0.0000000000
    4      C      -0.6532206427     0.3927226279     0.0000000000
    5      H      -0.5399731275     1.4905649094     0.0000000000
    6      O      -1.7135987287    -0.1659589307     0.0000000000
 ----------------------------------------------------------------
 Nuclear Repulsion Energy =         102.26281570 hartrees
 There are       15 alpha and       15 beta electrons
 Requested basis set is 6-311++G(2df,2p)
 There are 44 shells and 156 basis functions

 Total QAlloc Memory Limit 288000 MB
 Mega-Array Size       188 MB
 MEM_STATIC part       192 MB
 
 Citation of the SMD model:
 Marenich, A.V.; Cramer, C.J.; Truhlar, D.G.
 J. Phys. Chem. B 2009, 113, 6378-6396.
 iSolventCode=           1
 Solvent: water                                                           
 
 vradii
            1           2           3           4           5           6
    1   1.8500000   1.5200000   1.2000000   1.8500000   1.2000000   1.5200000
 Changing PCM_VDW_RADII to SMD_RADIUS
 Discretize the solute cavity surface with Lebedev spheres
	Using 110 Lebedev grid points for each H atom
	Using 194 Lebedev grid points for other atoms
	Atomic van der Waals radii will be scaled by 1.20
 Remove points where switching function is < 1.0e-08
 Keep 588 surface tesserae and discard 408 interior tesserae
 Molecular Surface Area = 77.410 Angst**2
 A cutoff of  1.0D-12 yielded    973 shell pairs
 There are     12270 function pairs (     15635 Cartesian)
 Smallest overlap matrix eigenvalue = 1.82E-04

 Scale SEOQF with 1.000000e-01/1.000000e-01/1.000000e-01

 Standard Electronic Orientation quadrupole field applied
 Nucleus-field energy     =     0.0000000024 hartrees
 Guess from superposition of atomic densities
 Warning:  Energy on first SCF cycle will be non-variational
 SAD guess density has 30.000000 electrons

 -----------------------------------------------------------------------
  General SCF calculation program by
  Eric Jon Sundstrom, Paul Horn, Yuezhi Mao, Dmitri Zuev, Alec White,
  David Stuck, Shaama M.S., Shane Yost, Joonho Lee, David Small,
  Daniel Levine, Susi Lehtola, Hugh Burton, Evgeny Epifanovsky,
  Bang C. Huynh
 -----------------------------------------------------------------------
 Exchange:     0.1500 Hartree-Fock + 1.0000 wB97M-V + LR-HF
 Correlation:  1.0000 wB97M-V
 Using SG-2 standard quadrature grid
 Nonlocal Correlation:  VV10 with C = 0.0100 and b = 6.00 and scale = 1.00000
 Grid used for NLC:  SG-1 standard quadrature
 
 Citation of the SMD model:
 Marenich, A.V.; Cramer, C.J.; Truhlar, D.G.
 J. Phys. Chem. B 2009, 113, 6378-6396.
 iSolventCode=           1
 Solvent: water                                                           
 
 vradii
            1           2           3           4           5           6
    1   1.8500000   1.5200000   1.2000000   1.8500000   1.2000000   1.5200000
 using 4 threads for integral computing
 -------------------------------------------------------
 OpenMP Integral computing Module                
 Release: version 1.0, May 2013, Q-Chem Inc. Pittsburgh 
 -------------------------------------------------------
 -------------------------------------------------------
 OpenMP BLAS3 based DFT computing Module                
 Release: version 1.0, May 2013, Q-Chem Inc. Pittsburgh 
 -------------------------------------------------------
 A restricted SCF calculation will be
 performed using DIIS, GDM
 SCF converges when RMS gradient is below 1.0e-07
 ---------------------------------------
  Cycle       Energy         DIIS error
 ---------------------------------------
    1    -228.4820792167      4.09e-02  
    2    -227.7364784356      6.52e-03  Done DIIS. Switching to GDM
 ---------------------------------------
  Cycle       Energy        RMS Gradient
 ---------------------------------------
    1    -227.7364784356      2.13e-01   Descent step
    2    -227.7995877148      1.28e-01   Normal BFGS step
    3    -227.8420757672      8.05e-03   Normal BFGS step
    4    -227.8424829447      2.34e-03   Normal BFGS step
    5    -227.8425191478      2.49e-04   Normal BFGS step
    6    -227.8425199539      5.87e-05   Normal BFGS step
    7    -227.8425200134      2.14e-05   Normal BFGS step
    8    -227.8425200151      4.71e-06   Normal BFGS step
    9    -227.8425200153      5.64e-07   Normal BFGS step
   10    -227.8425200153      3.94e-07   Normal BFGS step
   11    -227.8425200153      2.78e-07   Normal BFGS step
   12    -227.8425200153      1.58e-08  Convergence criterion met
 ---------------------------------------
 SCF time:   CPU 72.94s  wall 19.00s 
(3)  G-ENP(liq) elect-nuc-pol free energy of system     -227.842520015 a.u.
(4)  G-CDS(liq) cavity-dispersion-solvent structure 
     free energy                                                4.7772 kcal/mol
(6)  G-S(liq) free energy of system                     -227.834907020 a.u.
 SCF   energy in the final basis set =     -227.8349070198
 Total energy in the final basis set =     -227.8349070198
 
 --------------------------------------------------------------
 
                    Orbital Energies (a.u.)
 --------------------------------------------------------------
 
 Alpha MOs
 -- Occupied --
-19.3703 -19.3703 -10.4536 -10.4534  -1.2247  -1.2116  -0.8226  -0.7087
 -0.6133  -0.6116  -0.5714  -0.5595  -0.5043  -0.4423  -0.3694
 -- Virtual --
 -0.0181   0.0367   0.0460   0.0706   0.0897   0.0933   0.1004   0.1185
  0.1395   0.1428   0.1554   0.1829   0.2363   0.2405   0.2419   0.2608
  0.2924   0.3043   0.3172   0.3266   0.3447   0.3655   0.4065   0.4742
  0.4832   0.5633   0.5918   0.6107   0.6149   0.6444   0.6713   0.6778
  0.6797   0.7538   0.7932   0.8149   0.8357   0.8936   1.0155   1.0511
  1.0720   1.0735   1.0889   1.1133   1.1404   1.1453   1.1723   1.1875
  1.1910   1.2277   1.2655   1.3277   1.3863   1.4530   1.5599   1.5679
  1.5975   1.7039   1.7838   1.7860   1.8354   1.8594   1.9883   2.0718
  2.1593   2.2556   2.4746   2.4872   2.5178   2.6283   2.6510   2.6771
  2.7881   2.8297   2.8961   2.9517   2.9766   2.9903   3.0528   3.0861
  3.1389   3.1884   3.2936   3.3045   3.3625   3.3923   3.3947   3.4255
  3.4802   3.5388   3.5882   3.6936   3.7176   3.7220   3.8484   3.8887
  3.9074   4.1005   4.1631   4.2003   4.2242   4.2446   4.5207   4.6760
  4.6915   5.0752   5.1139   5.1443   5.1553   5.1675   5.1835   5.1838
  5.2975   5.3768   5.4423   5.5556   5.5653   5.5933   5.5963   5.8459
  5.9238   6.3533   6.3727   6.5916   6.8676   6.9095   6.9272   6.9291
  7.0581   7.1050   7.1440   7.2631   7.3237   7.4970   7.5329   7.6872
  7.7522  24.8591  24.9709  50.6904  50.6993
 --------------------------------------------------------------
 
          Ground-State Mulliken Net Atomic Charges

     Atom                 Charge (a.u.)
  ----------------------------------------
      1 C                     0.137289
      2 O                    -0.324623
      3 H                     0.187334
      4 C                     0.137289
      5 H                     0.187334
      6 O                    -0.324623
  ----------------------------------------
  Sum of atomic charges =     0.000000

 -----------------------------------------------------------------
                    Cartesian Multipole Moments
 -----------------------------------------------------------------
    Charge (ESU x 10^10)
                 0.0000
    Dipole Moment (Debye)
         X      -0.0000      Y       0.0000      Z       0.0000
       Tot       0.0000
    Quadrupole Moments (Debye-Ang)
        XX     -34.1888     XY      -3.0968     YY     -20.1658
        XZ       0.0000     YZ      -0.0000     ZZ     -21.4638
    Octopole Moments (Debye-Ang^2)
       XXX      -0.0000    XXY       0.0000    XYY      -0.0000
       YYY       0.0000    XXZ       0.0000    XYZ      -0.0000
       YYZ       0.0000    XZZ       0.0000    YZZ       0.0000
       ZZZ       0.0000
    Hexadecapole Moments (Debye-Ang^3)
      XXXX    -298.3507   XXXY      -1.5251   XXYY     -51.7210
      XYYY      -3.4659   YYYY     -44.8184   XXXZ       0.0000
      XXYZ      -0.0000   XYYZ      -0.0000   YYYZ      -0.0000
      XXZZ     -44.0793   XYZZ       0.2973   YYZZ     -12.1378
      XZZZ      -0.0000   YZZZ      -0.0000   ZZZZ     -19.1617
 -----------------------------------------------------------------
 Calculating analytic gradient of the SCF energy
 Gradient of CDS energy
            1           2           3           4           5           6
    1   0.0027203  -0.0011571  -0.0001519  -0.0027203   0.0001519   0.0011571
    2  -0.0001342  -0.0005274  -0.0000789   0.0001342   0.0000789   0.0005274
    3  -0.0000000  -0.0000000  -0.0000000  -0.0000000   0.0000000   0.0000000
 Gradient of SCF Energy
            1           2           3           4           5           6
    1   0.0084404   0.0015446  -0.0022441  -0.0084404   0.0022441  -0.0015446
    2   0.0164076  -0.0011368  -0.0126425  -0.0164076   0.0126425   0.0011368
    3   0.0000000   0.0000000  -0.0000000  -0.0000000   0.0000000   0.0000000
 Max gradient component =       1.641E-02
 RMS gradient           =       7.520E-03
 Computing fast CPCM-SWIG gradient
 Updating gradient with PCM contributions...
 -- total gradient after adding PCM contribution --
---------------------------------------------------
  Atom         X              Y              Z     
---------------------------------------------------
   1       0.010453       0.008906       0.000000
   2      -0.007216      -0.004815       0.000000
   3      -0.001155      -0.001863      -0.000000
   4      -0.010453      -0.008906      -0.000000
   5       0.001155       0.001863       0.000000
   6       0.007216       0.004815      -0.000000
---------------------------------------------------
 Number of fixed atoms: 0
 Gradient time:  CPU 16.21 s  wall 4.38 s
 Geometry Optimization Parameters
   NAtoms,    NIC,     NZ,  NCons,   NDum,   NFix, NCnnct, MaxDiis
        6      27       0       0       0       0       0       0


** GEOMETRY OPTIMIZATION IN DELOCALIZED INTERNAL COORDINATES **
   Searching for a Minimum

   Optimization Cycle:   1

                       Coordinates (Angstroms)
     ATOM                X               Y               Z
      1  C         0.6532206427   -0.3927226279    0.0000000000
      2  O         1.7135987287    0.1659589307    0.0000000000
      3  H         0.5399731275   -1.4905649094    0.0000000000
      4  C        -0.6532206427    0.3927226279    0.0000000000
      5  H        -0.5399731275    1.4905649094    0.0000000000
      6  O        -1.7135987287   -0.1659589307    0.0000000000
   Point Group: c1    Number of degrees of freedom:    12


   Energy is   -227.834907020


 Attempting to generate delocalized internal coordinates
 Initial Hessian constructed with Jon Baker's OPTIMIZE code

  9 Hessian modes will be used to form the next step
  Hessian Eigenvalues:
     0.160000    0.160000    0.220000    0.220000    0.299492    0.332797
     0.332797    1.055541    1.055541

 Minimum search - taking simple RFO step
 Searching for Lamda that Minimizes Along All modes
 Value Taken    Lamda =  -0.00025326
 Step Taken.  Stepsize is  0.025467

                             Maximum     Tolerance    Cnvgd?
         Gradient           0.010732      0.000300      NO
         Displacement       0.021943      0.001200      NO
         Energy change     *********      0.000001      NO


 New Cartesian Coordinates Obtained by Inverse Iteration

 Displacement from previous Coordinates is:  0.015737
 ----------------------------------------------------------------
             Standard Nuclear Orientation (Angstroms)
    I     Atom           X                Y                Z
 ----------------------------------------------------------------
    1      C       0.6500749187    -0.3968303229     0.0000000000
    2      O       1.7127246041     0.1668235276     0.0000000000
    3      H       0.5420392160    -1.4920234464     0.0000000000
    4      C      -0.6500749187     0.3968303229     0.0000000000
    5      H      -0.5420392160     1.4920234464     0.0000000000
    6      O      -1.7127246041    -0.1668235276     0.0000000000
 ----------------------------------------------------------------
 Nuclear Repulsion Energy =         102.16607205 hartrees
 There are       15 alpha and       15 beta electrons
 Discretize the solute cavity surface with Lebedev spheres
	Using 110 Lebedev grid points for each H atom
	Using 194 Lebedev grid points for other atoms
	Atomic van der Waals radii will be scaled by 1.20
 Remove points where switching function is < 1.0e-08
 Keep 588 surface tesserae and discard 408 interior tesserae
 Molecular Surface Area = 77.425 Angst**2
 Applying Cartesian multipole field
    Component          Value
    ---------          -----
     (2,0,0)        1.00000E-11
     (0,2,0)        2.00000E-11
     (0,0,2)       -3.00000E-11
 Nucleus-field energy     =     0.0000000024 hartrees
 Requested basis set is 6-311++G(2df,2p)
 There are 44 shells and 156 basis functions
 A cutoff of  1.0D-12 yielded    973 shell pairs
 There are     12270 function pairs (     15635 Cartesian)
 Smallest overlap matrix eigenvalue = 1.83E-04
 Guess MOs from SCF MO coefficient file

 -----------------------------------------------------------------------
  General SCF calculation program by
  Eric Jon Sundstrom, Paul Horn, Yuezhi Mao, Dmitri Zuev, Alec White,
  David Stuck, Shaama M.S., Shane Yost, Joonho Lee, David Small,
  Daniel Levine, Susi Lehtola, Hugh Burton, Evgeny Epifanovsky,
  Bang C. Huynh
 -----------------------------------------------------------------------
 Exchange:     0.1500 Hartree-Fock + 1.0000 wB97M-V + LR-HF
 Correlation:  1.0000 wB97M-V
 Using SG-2 standard quadrature grid
 Nonlocal Correlation:  VV10 with C = 0.0100 and b = 6.00 and scale = 1.00000
 Grid used for NLC:  SG-1 standard quadrature
 
 Citation of the SMD model:
 Marenich, A.V.; Cramer, C.J.; Truhlar, D.G.
 J. Phys. Chem. B 2009, 113, 6378-6396.
 iSolventCode=           1
 Solvent: water                                                           
 
 vradii
            1           2           3           4           5           6
    1   1.8500000   1.5200000   1.2000000   1.8500000   1.2000000   1.5200000
 -------------------------------------------------------
 OpenMP BLAS3 based DFT computing Module                
 Release: version 1.0, May 2013, Q-Chem Inc. Pittsburgh 
 -------------------------------------------------------
 A restricted SCF calculation will be
 performed using Roothaan-Hall, DIIS, GDM
 SCF converges when RMS gradient is below 1.0e-07
 ---------------------------------------
  Cycle       Energy         DIIS error
 ---------------------------------------
    1    -227.8258234562      7.24e-04  Roothaan Step
 ---------------------------------------
  Cycle       Energy         DIIS error
 ---------------------------------------
    1    -227.8378689873      1.16e-03  
    2    -227.8376009142      1.58e-03  Done DIIS. Switching to GDM
 ---------------------------------------
  Cycle       Energy        RMS Gradient
 ---------------------------------------
    1    -227.8376009142      4.14e-02   Normal BFGS step
    2    -227.8340363827      6.11e-02  Line search: overstep
    3    -227.8424922558      2.91e-03   Normal BFGS step
    4    -227.8426378488      1.30e-03   Normal BFGS step
    5    -227.8426494023      6.32e-04   Normal BFGS step
    6    -227.8426505799      8.06e-05   Normal BFGS step
    7    -227.8426506385      1.42e-05   Normal BFGS step
    8    -227.8426506407      3.79e-06   Normal BFGS step
    9    -227.8426506408      4.63e-07   Normal BFGS step
   10    -227.8426506408      1.11e-07   Normal BFGS step
   11    -227.8426506408      1.59e-08  Convergence criterion met
 ---------------------------------------
 SCF time:   CPU 74.34s  wall 19.00s 
(3)  G-ENP(liq) elect-nuc-pol free energy of system     -227.842650641 a.u.
(4)  G-CDS(liq) cavity-dispersion-solvent structure 
     free energy                                                4.7589 kcal/mol
(6)  G-S(liq) free energy of system                     -227.835066922 a.u.
 SCF   energy in the final basis set =     -227.8350669219
 Total energy in the final basis set =     -227.8350669219
 
 --------------------------------------------------------------
 
                    Orbital Energies (a.u.)
 --------------------------------------------------------------
 
 Alpha MOs
 -- Occupied --
-19.3702 -19.3702 -10.4541 -10.4540  -1.2225  -1.2091  -0.8229  -0.7099
 -0.6125  -0.6117  -0.5707  -0.5583  -0.5025  -0.4418  -0.3705
 -- Virtual --
 -0.0190   0.0365   0.0461   0.0707   0.0896   0.0922   0.1005   0.1186
  0.1392   0.1430   0.1555   0.1829   0.2364   0.2402   0.2413   0.2602
  0.2924   0.3044   0.3168   0.3267   0.3447   0.3663   0.4065   0.4732
  0.4812   0.5636   0.5918   0.6109   0.6146   0.6442   0.6698   0.6787
  0.6787   0.7546   0.7909   0.8135   0.8316   0.8937   1.0187   1.0503
  1.0720   1.0733   1.0900   1.1127   1.1414   1.1462   1.1723   1.1876
  1.1889   1.2296   1.2678   1.3288   1.3829   1.4534   1.5608   1.5705
  1.5975   1.7021   1.7800   1.7820   1.8341   1.8633   1.9865   2.0671
  2.1535   2.2519   2.4679   2.4848   2.5161   2.6276   2.6455   2.6774
  2.7881   2.8284   2.8943   2.9497   2.9788   2.9924   3.0543   3.0883
  3.1419   3.1942   3.2904   3.3030   3.3631   3.3924   3.4003   3.4236
  3.4815   3.5422   3.5854   3.6858   3.7080   3.7209   3.8431   3.8914
  3.9140   4.1052   4.1713   4.2005   4.2262   4.2420   4.5114   4.6789
  4.7014   5.0794   5.1151   5.1443   5.1550   5.1676   5.1824   5.1828
  5.2952   5.3759   5.4460   5.5431   5.5635   5.5871   5.5973   5.8418
  5.9114   6.3398   6.3543   6.5850   6.8497   6.9091   6.9264   6.9283
  7.0501   7.0934   7.1353   7.2641   7.3216   7.4964   7.5297   7.6858
  7.7494  24.8505  24.9713  50.6819  50.6927
 --------------------------------------------------------------
 
          Ground-State Mulliken Net Atomic Charges

     Atom                 Charge (a.u.)
  ----------------------------------------
      1 C                     0.135613
      2 O                    -0.326619
      3 H                     0.191005
      4 C                     0.135613
      5 H                     0.191005
      6 O                    -0.326619
  ----------------------------------------
  Sum of atomic charges =     0.000000

 -----------------------------------------------------------------
                    Cartesian Multipole Moments
 -----------------------------------------------------------------
    Charge (ESU x 10^10)
                -0.0000
    Dipole Moment (Debye)
         X      -0.0000      Y       0.0000      Z       0.0000
       Tot       0.0000
    Quadrupole Moments (Debye-Ang)
        XX     -34.2759     XY      -3.1397     YY     -20.0703
        XZ       0.0000     YZ      -0.0000     ZZ     -21.4821
    Octopole Moments (Debye-Ang^2)
       XXX      -0.0000    XXY       0.0000    XYY       0.0000
       YYY       0.0000    XXZ       0.0000    XYZ       0.0000
       YYZ      -0.0000    XZZ       0.0000    YZZ       0.0000
       ZZZ      -0.0000
    Hexadecapole Moments (Debye-Ang^3)
      XXXX    -298.5461   XXXY      -1.4990   XXYY     -51.6572
      XYYY      -3.6057   YYYY     -44.5417   XXXZ       0.0000
      XXYZ      -0.0000   XYYZ       0.0000   YYYZ      -0.0000
      XXZZ     -44.0962   XYZZ       0.2905   YYZZ     -12.1351
      XZZZ      -0.0000   YZZZ      -0.0000   ZZZZ     -19.2035
 -----------------------------------------------------------------
 Calculating analytic gradient of the SCF energy
 Gradient of CDS energy
            1           2           3           4           5           6
    1   0.0027624  -0.0012065  -0.0001503  -0.0027624   0.0001503   0.0012065
    2  -0.0001159  -0.0005592  -0.0000741   0.0001159   0.0000741   0.0005592
    3   0.0000000  -0.0000000   0.0000000  -0.0000000   0.0000000  -0.0000000
 Gradient of SCF Energy
            1           2           3           4           5           6
    1   0.0017983   0.0063495  -0.0014119  -0.0017983   0.0014119  -0.0063495
    2   0.0091466   0.0025805  -0.0115429  -0.0091466   0.0115429  -0.0025805
    3  -0.0000000  -0.0000000  -0.0000000   0.0000000   0.0000000   0.0000000
 Max gradient component =       1.154E-02
 RMS gradient           =       5.468E-03
 Computing fast CPCM-SWIG gradient
 Updating gradient with PCM contributions...
 -- total gradient after adding PCM contribution --
---------------------------------------------------
  Atom         X              Y              Z     
---------------------------------------------------
   1       0.003832       0.001651       0.000000
   2      -0.002380      -0.001125      -0.000000
   3      -0.000410      -0.000577      -0.000000
   4      -0.003832      -0.001651      -0.000000
   5       0.000410       0.000577      -0.000000
   6       0.002380       0.001125      -0.000000
---------------------------------------------------
 Number of fixed atoms: 0
 Gradient time:  CPU 15.38 s  wall 4.14 s
 Geometry Optimization Parameters
   NAtoms,    NIC,     NZ,  NCons,   NDum,   NFix, NCnnct, MaxDiis
        6      27       0       0       0       0       0       0

 Cartesian Hessian Update
 Hessian updated using BFGS update


** GEOMETRY OPTIMIZATION IN DELOCALIZED INTERNAL COORDINATES **
   Searching for a Minimum

   Optimization Cycle:   2

                       Coordinates (Angstroms)
     ATOM                X               Y               Z
      1  C         0.6500749187   -0.3968303229    0.0000000000
      2  O         1.7127246041    0.1668235276    0.0000000000
      3  H         0.5420392160   -1.4920234464    0.0000000000
      4  C        -0.6500749187    0.3968303229    0.0000000000
      5  H        -0.5420392160    1.4920234464    0.0000000000
      6  O        -1.7127246041   -0.1668235276    0.0000000000
   Point Group: c1    Number of degrees of freedom:    12


   Energy is   -227.835066922

 Hessian updated using BFGS update

  5 Hessian modes will be used to form the next step
  Hessian Eigenvalues:
     0.146516    0.226205    0.294186    0.324068    0.862352

 Minimum search - taking simple RFO step
 Searching for Lamda that Minimizes Along All modes
 Value Taken    Lamda =  -0.00003328
 Step Taken.  Stepsize is  0.010855

                             Maximum     Tolerance    Cnvgd?
         Gradient           0.003439      0.000300      NO
         Displacement       0.010591      0.001200      NO
         Energy change     -0.000160      0.000001      NO


 New Cartesian Coordinates Obtained by Inverse Iteration

 Displacement from previous Coordinates is:  0.005991
 ----------------------------------------------------------------
             Standard Nuclear Orientation (Angstroms)
    I     Atom           X                Y                Z
 ----------------------------------------------------------------
    1      C       0.6483783872    -0.3974544840     0.0000000000
    2      O       1.7131351852     0.1664069197     0.0000000000
    3      H       0.5430712774    -1.4914309589     0.0000000000
    4      C      -0.6483783872     0.3974544840     0.0000000000
    5      H      -0.5430712774     1.4914309589     0.0000000000
    6      O      -1.7131351852    -0.1664069197     0.0000000000
 ----------------------------------------------------------------
 Nuclear Repulsion Energy =         102.13356121 hartrees
 There are       15 alpha and       15 beta electrons
 Discretize the solute cavity surface with Lebedev spheres
	Using 110 Lebedev grid points for each H atom
	Using 194 Lebedev grid points for other atoms
	Atomic van der Waals radii will be scaled by 1.20
 Remove points where switching function is < 1.0e-08
 Keep 586 surface tesserae and discard 410 interior tesserae
 Molecular Surface Area = 77.418 Angst**2
 Applying Cartesian multipole field
    Component          Value
    ---------          -----
     (2,0,0)        1.00000E-11
     (0,2,0)        2.00000E-11
     (0,0,2)       -3.00000E-11
 Nucleus-field energy     =     0.0000000024 hartrees
 Requested basis set is 6-311++G(2df,2p)
 There are 44 shells and 156 basis functions
 A cutoff of  1.0D-12 yielded    973 shell pairs
 There are     12270 function pairs (     15635 Cartesian)
 Smallest overlap matrix eigenvalue = 1.81E-04
 Guess MOs from SCF MO coefficient file

 -----------------------------------------------------------------------
  General SCF calculation program by
  Eric Jon Sundstrom, Paul Horn, Yuezhi Mao, Dmitri Zuev, Alec White,
  David Stuck, Shaama M.S., Shane Yost, Joonho Lee, David Small,
  Daniel Levine, Susi Lehtola, Hugh Burton, Evgeny Epifanovsky,
  Bang C. Huynh
 -----------------------------------------------------------------------
 Exchange:     0.1500 Hartree-Fock + 1.0000 wB97M-V + LR-HF
 Correlation:  1.0000 wB97M-V
 Using SG-2 standard quadrature grid
 Nonlocal Correlation:  VV10 with C = 0.0100 and b = 6.00 and scale = 1.00000
 Grid used for NLC:  SG-1 standard quadrature
 
 Citation of the SMD model:
 Marenich, A.V.; Cramer, C.J.; Truhlar, D.G.
 J. Phys. Chem. B 2009, 113, 6378-6396.
 iSolventCode=           1
 Solvent: water                                                           
 
 vradii
            1           2           3           4           5           6
    1   1.8500000   1.5200000   1.2000000   1.8500000   1.2000000   1.5200000
 -------------------------------------------------------
 OpenMP BLAS3 based DFT computing Module                
 Release: version 1.0, May 2013, Q-Chem Inc. Pittsburgh 
 -------------------------------------------------------
 A restricted SCF calculation will be
 performed using Roothaan-Hall, DIIS, GDM
 SCF converges when RMS gradient is below 1.0e-07
 ---------------------------------------
  Cycle       Energy         DIIS error
 ---------------------------------------
    1    -227.8256413165      7.26e-04  Roothaan Step
 ---------------------------------------
  Cycle       Energy         DIIS error
 ---------------------------------------
    1    -227.8379115482      1.15e-03  
    2    -227.8376687200      1.57e-03  Done DIIS. Switching to GDM
 ---------------------------------------
  Cycle       Energy        RMS Gradient
 ---------------------------------------
    1    -227.8376687200      4.12e-02   Normal BFGS step
    2    -227.8341344853      6.09e-02  Line search: overstep
    3    -227.8424922011      2.93e-03   Normal BFGS step
    4    -227.8426361178      1.31e-03   Normal BFGS step
    5    -227.8426474816      6.42e-04   Normal BFGS step
    6    -227.8426486805      7.82e-05   Normal BFGS step
    7    -227.8426487349      1.40e-05   Normal BFGS step
    8    -227.8426487371      3.62e-06   Normal BFGS step
    9    -227.8426487373      4.70e-07   Normal BFGS step
   10    -227.8426487373      1.07e-07   Normal BFGS step
   11    -227.8426487373      1.62e-08  Convergence criterion met
 ---------------------------------------
 SCF time:   CPU 76.31s  wall 20.00s 
(3)  G-ENP(liq) elect-nuc-pol free energy of system     -227.842648737 a.u.
(4)  G-CDS(liq) cavity-dispersion-solvent structure 
     free energy                                                4.7468 kcal/mol
(6)  G-S(liq) free energy of system                     -227.835084275 a.u.
 SCF   energy in the final basis set =     -227.8350842753
 Total energy in the final basis set =     -227.8350842753
 
 --------------------------------------------------------------
 
                    Orbital Energies (a.u.)
 --------------------------------------------------------------
 
 Alpha MOs
 -- Occupied --
-19.3702 -19.3702 -10.4544 -10.4542  -1.2216  -1.2080  -0.8237  -0.7104
 -0.6123  -0.6119  -0.5703  -0.5580  -0.5018  -0.4415  -0.3712
 -- Virtual --
 -0.0198   0.0365   0.0461   0.0707   0.0896   0.0920   0.1005   0.1187
  0.1391   0.1431   0.1555   0.1829   0.2364   0.2401   0.2414   0.2600
  0.2925   0.3043   0.3170   0.3268   0.3448   0.3665   0.4069   0.4724
  0.4808   0.5640   0.5916   0.6109   0.6143   0.6444   0.6694   0.6787
  0.6790   0.7545   0.7905   0.8126   0.8301   0.8942   1.0190   1.0503
  1.0722   1.0731   1.0906   1.1124   1.1418   1.1472   1.1729   1.1880
  1.1885   1.2302   1.2681   1.3297   1.3828   1.4540   1.5610   1.5711
  1.5975   1.7017   1.7780   1.7813   1.8338   1.8634   1.9856   2.0673
  2.1516   2.2513   2.4662   2.4833   2.5152   2.6282   2.6432   2.6778
  2.7882   2.8275   2.8934   2.9490   2.9792   2.9944   3.0543   3.0889
  3.1423   3.1953   3.2906   3.3029   3.3626   3.3927   3.4035   3.4232
  3.4825   3.5434   3.5835   3.6841   3.7054   3.7205   3.8432   3.8930
  3.9160   4.1101   4.1746   4.2014   4.2278   4.2397   4.5084   4.6823
  4.7074   5.0813   5.1159   5.1443   5.1547   5.1681   5.1821   5.1822
  5.2944   5.3749   5.4496   5.5394   5.5616   5.5853   5.5991   5.8385
  5.9067   6.3333   6.3472   6.5790   6.8456   6.9089   6.9262   6.9279
  7.0482   7.0885   7.1323   7.2643   7.3209   7.4964   7.5286   7.6847
  7.7483  24.8478  24.9737  50.6788  50.6896
 --------------------------------------------------------------
 
          Ground-State Mulliken Net Atomic Charges

     Atom                 Charge (a.u.)
  ----------------------------------------
      1 C                     0.135355
      2 O                    -0.327573
      3 H                     0.192219
      4 C                     0.135355
      5 H                     0.192219
      6 O                    -0.327573
  ----------------------------------------
  Sum of atomic charges =     0.000000

 -----------------------------------------------------------------
                    Cartesian Multipole Moments
 -----------------------------------------------------------------
    Charge (ESU x 10^10)
                 0.0000
    Dipole Moment (Debye)
         X       0.0000      Y      -0.0000      Z      -0.0000
       Tot       0.0000
    Quadrupole Moments (Debye-Ang)
        XX     -34.3125     XY      -3.1484     YY     -20.0474
        XZ       0.0000     YZ       0.0000     ZZ     -21.4876
    Octopole Moments (Debye-Ang^2)
       XXX       0.0000    XXY      -0.0000    XYY      -0.0000
       YYY      -0.0000    XXZ       0.0000    XYZ       0.0000
       YYZ       0.0000    XZZ      -0.0000    YZZ      -0.0000
       ZZZ      -0.0000
    Hexadecapole Moments (Debye-Ang^3)
      XXXX    -298.7437   XXXY      -1.4688   XXYY     -51.6517
      XYYY      -3.6437   YYYY     -44.3914   XXXZ       0.0000
      XXYZ      -0.0000   XYYZ       0.0000   YYYZ      -0.0000
      XXZZ     -44.1214   XYZZ       0.2920   YYZZ     -12.1213
      XZZZ      -0.0000   YZZZ      -0.0000   ZZZZ     -19.2179
 -----------------------------------------------------------------
 Calculating analytic gradient of the SCF energy
 Gradient of CDS energy
            1           2           3           4           5           6
    1   0.0027803  -0.0012314  -0.0001493  -0.0027803   0.0001493   0.0012314
    2  -0.0001056  -0.0005719  -0.0000721   0.0001056   0.0000721   0.0005719
    3   0.0000000  -0.0000000  -0.0000000  -0.0000000   0.0000000   0.0000000
 Gradient of SCF Energy
            1           2           3           4           5           6
    1  -0.0017164   0.0087578  -0.0009609   0.0017164   0.0009609  -0.0087578
    2   0.0072975   0.0037649  -0.0109315  -0.0072975   0.0109315  -0.0037649
    3  -0.0000000   0.0000000  -0.0000000   0.0000000   0.0000000   0.0000000
 Max gradient component =       1.093E-02
 RMS gradient           =       5.452E-03
 Computing fast CPCM-SWIG gradient
 Updating gradient with PCM contributions...
 -- total gradient after adding PCM contribution --
---------------------------------------------------
  Atom         X              Y              Z     
---------------------------------------------------
   1       0.000333      -0.000224      -0.000000
   2       0.000017       0.000062       0.000000
   3      -0.000005       0.000103      -0.000000
   4      -0.000333       0.000224      -0.000000
   5       0.000005      -0.000103      -0.000000
   6      -0.000017      -0.000062       0.000000
---------------------------------------------------
 Number of fixed atoms: 0
 Gradient time:  CPU 15.89 s  wall 4.32 s
 Geometry Optimization Parameters
   NAtoms,    NIC,     NZ,  NCons,   NDum,   NFix, NCnnct, MaxDiis
        6      27       0       0       0       0       0       0

 Cartesian Hessian Update
 Hessian updated using BFGS update


** GEOMETRY OPTIMIZATION IN DELOCALIZED INTERNAL COORDINATES **
   Searching for a Minimum

   Optimization Cycle:   3

                       Coordinates (Angstroms)
     ATOM                X               Y               Z
      1  C         0.6483783872   -0.3974544840    0.0000000000
      2  O         1.7131351852    0.1664069197    0.0000000000
      3  H         0.5430712774   -1.4914309589    0.0000000000
      4  C        -0.6483783872    0.3974544840    0.0000000000
      5  H        -0.5430712774    1.4914309589    0.0000000000
      6  O        -1.7131351852   -0.1664069197    0.0000000000
   Point Group: c1    Number of degrees of freedom:    12


   Energy is   -227.835084275

 Hessian updated using BFGS update

  5 Hessian modes will be used to form the next step
  Hessian Eigenvalues:
     0.138845    0.223843    0.279741    0.334734    0.895147

 Minimum search - taking simple RFO step
 Searching for Lamda that Minimizes Along All modes
 Value Taken    Lamda =  -0.00000052
 Step Taken.  Stepsize is  0.001527

                             Maximum     Tolerance    Cnvgd?
         Gradient           0.000258      0.000300     YES
         Displacement       0.001007      0.001200     YES
         Energy change     -0.000017      0.000001      NO


                       Distance Matrix (Angstroms)
             C (  1)   O (  2)   H (  3)   C (  4)   H (  5)
   O (  2)  1.204843
   H (  3)  1.099033  2.029156
   C (  4)  1.521006  2.372789  2.233258
   H (  5)  2.233258  2.616516  3.174456  1.099033
   O (  6)  2.372789  3.442397  2.616516  1.204843  2.029156
 
 Final energy is   -227.835084275301     


 ******************************
 **  OPTIMIZATION CONVERGED  **
 ******************************

                       Coordinates (Angstroms)
     ATOM                X               Y               Z
      1  C         0.6483783872   -0.3974544840    0.0000000000
      2  O         1.7131351852    0.1664069197    0.0000000000
      3  H         0.5430712774   -1.4914309589    0.0000000000
      4  C        -0.6483783872    0.3974544840    0.0000000000
      5  H        -0.5430712774    1.4914309589    0.0000000000
      6  O        -1.7131351852   -0.1664069197    0.0000000000

Z-matrix Print:
$molecule
0 1
C 
H  1 1.099033
O  1 1.204843 2 123.402674
C  1 1.521006 2 116.009803 3 -180.000000 0
H  4 1.099033 1 116.009803 2 -180.000000 0
O  4 1.204843 1 120.587523 2 -0.000000 0
$end

 
 --------------------------------------------------------------
 
                    Orbital Energies (a.u.)
 --------------------------------------------------------------
 
 Alpha MOs
 -- Occupied --
-19.3702 -19.3702 -10.4544 -10.4542  -1.2216  -1.2080  -0.8237  -0.7104
 -0.6123  -0.6119  -0.5703  -0.5580  -0.5018  -0.4415  -0.3712
 -- Virtual --
 -0.0198   0.0365   0.0461   0.0707   0.0896   0.0920   0.1005   0.1187
  0.1391   0.1431   0.1555   0.1829   0.2364   0.2401   0.2414   0.2600
  0.2925   0.3043   0.3170   0.3268   0.3448   0.3665   0.4069   0.4724
  0.4808   0.5640   0.5916   0.6109   0.6143   0.6444   0.6694   0.6787
  0.6790   0.7545   0.7905   0.8126   0.8301   0.8942   1.0190   1.0503
  1.0722   1.0731   1.0906   1.1124   1.1418   1.1472   1.1729   1.1880
  1.1885   1.2302   1.2681   1.3297   1.3828   1.4540   1.5610   1.5711
  1.5975   1.7017   1.7780   1.7813   1.8338   1.8634   1.9856   2.0673
  2.1516   2.2513   2.4662   2.4833   2.5152   2.6282   2.6432   2.6778
  2.7882   2.8275   2.8934   2.9490   2.9792   2.9944   3.0543   3.0889
  3.1423   3.1953   3.2906   3.3029   3.3626   3.3927   3.4035   3.4232
  3.4825   3.5434   3.5835   3.6841   3.7054   3.7205   3.8432   3.8930
  3.9160   4.1101   4.1746   4.2014   4.2278   4.2397   4.5084   4.6823
  4.7074   5.0813   5.1159   5.1443   5.1547   5.1681   5.1821   5.1822
  5.2944   5.3749   5.4496   5.5394   5.5616   5.5853   5.5991   5.8385
  5.9067   6.3333   6.3472   6.5790   6.8456   6.9089   6.9262   6.9279
  7.0482   7.0885   7.1323   7.2643   7.3209   7.4964   7.5286   7.6847
  7.7483  24.8478  24.9737  50.6788  50.6896
 --------------------------------------------------------------
 
          Ground-State Mulliken Net Atomic Charges

     Atom                 Charge (a.u.)
  ----------------------------------------
      1 C                     0.135355
      2 O                    -0.327573
      3 H                     0.192219
      4 C                     0.135355
      5 H                     0.192219
      6 O                    -0.327573
  ----------------------------------------
  Sum of atomic charges =     0.000000

 -----------------------------------------------------------------
                    Cartesian Multipole Moments
 -----------------------------------------------------------------
    Charge (ESU x 10^10)
                 0.0000
    Dipole Moment (Debye)
         X       0.0000      Y      -0.0000      Z      -0.0000
       Tot       0.0000
    Quadrupole Moments (Debye-Ang)
        XX     -34.3125     XY      -3.1484     YY     -20.0474
        XZ       0.0000     YZ       0.0000     ZZ     -21.4876
    Octopole Moments (Debye-Ang^2)
       XXX       0.0000    XXY      -0.0000    XYY      -0.0000
       YYY      -0.0000    XXZ       0.0000    XYZ       0.0000
       YYZ       0.0000    XZZ      -0.0000    YZZ      -0.0000
       ZZZ      -0.0000
    Hexadecapole Moments (Debye-Ang^3)
      XXXX    -298.7437   XXXY      -1.4688   XXYY     -51.6517
      XYYY      -3.6437   YYYY     -44.3914   XXXZ       0.0000
      XXYZ      -0.0000   XYYZ       0.0000   YYYZ      -0.0000
      XXZZ     -44.1214   XYZZ       0.2920   YYZZ     -12.1213
      XZZZ      -0.0000   YZZZ      -0.0000   ZZZZ     -19.2179
 -----------------------------------------------------------------
 Total job time:  72.01s(wall), 278.34s(cpu) 
 Fri Dec  9 17:35:04 2022

        *************************************************************
        *                                                           *
        *  Thank you very much for using Q-Chem.  Have a nice day.  *
        *                                                           *
        *************************************************************


