
Running Job 1 of 1 Q_in.in
qchem Q_in.in_1448391.0 /scratch/ari.fischer/qChem2158226.hpc-mn1/qchem1448391/ 0
/usr/local/qchem-5.4.1/exe/qcprog.exe_s Q_in.in_1448391.0 /scratch/ari.fischer/qChem2158226.hpc-mn1/qchem1448391/
                  Welcome to Q-Chem
     A Quantum Leap Into The Future Of Chemistry


 Q-Chem 5.4, Q-Chem, Inc., Pleasanton, CA (2021)

 License issued to: Nanyang Technological University (site)

 E. Epifanovsky,  A. T. B. Gilbert,  Xintian Feng,  Joonho Lee,  Yuezhi Mao,  
 N. Mardirossian,  P. Pokhilko,  A. White,  M. Wormit,  M. P. Coons,  
 A. L. Dempwolff,  Zhengting Gan,  D. Hait,  P. R. Horn,  L. D. Jacobson,  
 I. Kaliman,  J. Kussmann,  A. W. Lange,  Ka Un Lao,  D. S. Levine,  Jie Liu,  
 S. C. McKenzie,  A. F. Morrison,  K. Nanda,  F. Plasser,  D. R. Rehn,  
 M. L. Vidal,  Zhi-Qiang You,  Ying Zhu,  B. Alam,  B. Albrecht,  
 A. Aldossary,  E. Alguire,  J. H. Andersen,  D. Barton,  K. Begam,  A. Behn,  
 Y. A. Bernard,  E. J. Berquist,  H. Burton,  A. Carreras,  K. Carter-Fenk,  
 Romit Chakraborty,  A. D. Chien,  K. D. Closser,  V. Cofer-Shabica,  
 S. Dasgupta,  Jia Deng,  M. de Wergifosse,  M. Diedenhofen,  Hainam Do,  
 S. Ehlert,  Po-Tung Fang,  S. Fatehi,  Qingguo Feng,  T. Friedhoff,  
 J. Gayvert,  Qinghui Ge,  G. Gidofalvi,  M. Goldey,  J. Gomes,  
 C. Gonzalez-Espinoza,  S. Gulania,  A. Gunina,  M. W. D. Hanson-Heine,  
 P. H. P. Harbach,  A. W. Hauser,  M. F. Herbst,  M. Hernandez Vera,  
 M. Hodecker,  Z. C. Holden,  S. Houck,  Xunkun Huang,  Kerwin Hui,  
 B. C. Huynh,  M. Ivanov,  Hyunjun Ji,  Hanjie Jiang,  B. Kaduk,  S. Kaehler,  
 K. Khistyaev,  Jaehoon Kim,  P. Klunzinger,  Z. Koczor-Benda,  
 Joong Hoon Koh,  D. Kosenkov,  L. Koulias,  T. Kowalczyk,  C. M. Krauter,  
 K. Kue,  A. Kunitsa,  T. Kus,  A. Landau,  K. V. Lawler,  D. Lefrancois,  
 S. Lehtola,  Rain Li,  Yi-Pei Li,  Jiashu Liang,  M. Liebenthal,  
 Hung-Hsuan Lin,  You-Sheng Lin,  Fenglai Liu,  Kuan-Yu Liu,  
 M. Loipersberger,  A. Luenser,  A. Manjanath,  P. Manohar,  E. Mansoor,  
 S. F. Manzer,  Shan-Ping Mao,  A. V. Marenich,  T. Markovich,  S. Mason,  
 S. A. Maurer,  P. F. McLaughlin,  M. F. S. J. Menger,  J.-M. Mewes,  
 S. A. Mewes,  P. Morgante,  J. W. Mullinax,  K. J. Oosterbaan,  G. Paran,  
 Alexander C. Paul,  Suranjan K. Paul,  F. Pavosevic,  Zheng Pei,  S. Prager,  
 E. I. Proynov,  E. Ramos,  B. Rana,  A. E. Rask,  A. Rettig,  R. M. Richard,  
 F. Rob,  E. Rossomme,  T. Scheele,  M. Scheurer,  M. Schneider,  
 N. Sergueev,  S. M. Sharada,  W. Skomorowski,  D. W. Small,  C. J. Stein,  
 Yu-Chuan Su,  E. J. Sundstrom,  Zhen Tao,  J. Thirman,  T. Tsuchimochi,  
 N. M. Tubman,  S. P. Veccham,  O. Vydrov,  J. Wenzel,  J. Witte,  A. Yamada,  
 Kun Yao,  S. Yeganeh,  S. R. Yost,  A. Zech,  Igor Ying Zhang,  Xing Zhang,  
 Yu Zhang,  D. Zuev,  A. Aspuru-Guzik,  A. T. Bell,  N. A. Besley,  
 K. B. Bravaya,  B. R. Brooks,  D. Casanova,  Jeng-Da Chai,  S. Coriani,  
 C. J. Cramer,  A. E. DePrince, III,  R. A. DiStasio Jr.,  A. Dreuw,  
 B. D. Dunietz,  T. R. Furlani,  W. A. Goddard III,  S. Grimme,  
 S. Hammes-Schiffer,  T. Head-Gordon,  W. J. Hehre,  Chao-Ping Hsu,  
 T.-C. Jagau,  Yousung Jung,  A. Klamt,  Jing Kong,  D. S. Lambrecht,  
 WanZhen Liang,  N. J. Mayhall,  C. W. McCurdy,  J. B. Neaton,  T. Neudecker,  
 C. Ochsenfeld,  J. A. Parkhill,  R. Peverati,  V. A. Rassolov,  Yihan Shao,  
 L. V. Slipchenko,  R. P. Steele,  J. E. Subotnik,  A. J. W. Thom,  
 A. Tkatchenko,  D. G. Truhlar,  T. Van Voorhis,  T. A. Wesolowski,  
 K. B. Whaley,  H. L. Woodcock III,  P. M. Zimmerman,  S. Faraji,  
 P. M. W. Gill,  M. Head-Gordon,  J. M. Herbert,  A. I. Krylov

 Additional authors since Version 5.4.0: 
 Chandrima Chakravarty,  L. Cunha,  R. Kang,  Yongbin Kim,  S. Kotaru,  
 Shaozhi Li,  Xiangyuan Li,  F. Matz,  A. Molle,  V. Parravicini,  
 Haisheng Ren,  Hengyuan Shen,  Yingli Su,  Hung-Yi Tsai,  C. Utku,  
 Fang Wang,  Jeff Yang,  F. Zeller

 Contributors to earlier versions of Q-Chem not listed above: 
 R. D. Adamson,  B. Austin,  R. Baer,  J. Baker,  G. J. O. Beran,  
 K. Brandhorst,  S. T. Brown,  E. F. C. Byrd,  Arup K. Chakraborty,  
 G. K. L. Chan,  Chun-Min Chang,  Yunqing Chen,  C.-L. Cheng,  
 Siu Hung Chien,  D. M. Chipman,  D. L. Crittenden,  H. Dachsel,  
 R. J. Doerksen,  A. D. Dutoi,  R. G. Edgar,  J. Fosso-Tande,  
 L. Fusti-Molnar,  D. Ghosh,  A. Ghysels,  A. Golubeva-Zadorozhnaya,  
 J. Gonthier,  M. S. Gordon,  S. R. Gwaltney,  G. Hawkins,  J. E. Herr,  
 A. Heyden,  S. Hirata,  E. G. Hohenstein,  G. Kedziora,  F. J. Keil,  
 C. Kelley,  Jihan Kim,  R. A. King,  R. Z. Khaliullin,  P. P. Korambath,  
 W. Kurlancheek,  A. Laurent,  A. M. Lee,  M. S. Lee,  S. V. Levchenko,  
 Ching Yeh Lin,  D. Liotard,  E. Livshits,  R. C. Lochan,  I. Lotan,  
 L. A. Martinez-Martinez,  P. E. Maslen,  N. Nair,  D. P. O'Neill,  
 D. Neuhauser,  E. Neuscamman,  C. M. Oana,  R. Olivares-Amaya,  R. Olson,  
 T. M. Perrine,  B. Peters,  P. A. Pieniazek,  A. Prociuk,  Y. M. Rhee,  
 J. Ritchie,  M. A. Rohrdanz,  E. Rosta,  N. J. Russ,  H. F. Schaefer III,  
 M. W. Schmidt,  N. E. Schultz,  S. Sharma,  N. Shenvi,  C. D. Sherrill,  
 A. C. Simmonett,  A. Sodt,  T. Stein,  D. Stuck,  K. S. Thanthiriwatte,  
 V. Vanovschi,  L. Vogt,  Tao Wang,  A. Warshel,  M. A. Watson,  
 C. F. Williams,  Q. Wu,  X. Xu,  Jun Yang,  W. Zhang,  Yan Zhao

   Please cite Q-Chem as follows:
  "Software for the frontiers of quantum chemistry:
   An overview of developments in the Q-Chem 5 package"
   J. Chem. Phys. 155, 084801 (2021)
   https://doi.org/10.1063/5.0055522 (open access)

 Q-Chem 5.4.2 for Intel X86 EM64T Linux

 Parts of Q-Chem use Armadillo 9.900.5 (Nocturnal Misbehaviour).
 http://arma.sourceforge.net/

 Q-Chem begins on Wed Jun  5 12:18:44 2024  

 Host: 
0

     Scratch files written to /scratch/ari.fischer/qChem2158226.hpc-mn1/qchem1448391//
 Dec1321 |scratch|qcdevops|jenkins|workspace|build_RNUM 8249   
 Processing $rem in /usr/local/qchem-5.4.1/config/preferences:
 Processing $rem in /home/ari.fischer/.qchemrc:
 Symmetry turned off for PCM/SM12/SMD calculation


!!********************************************.
!!******************Warning*******************.
!!Desired Analytical derivatives not available.
!!Finite difference job might take a long time.
!!********************************************.
!!********************************************.


 2-order derivative to be evaluated numerically with 1-order analytical derivatives

 Checking the input file for inconsistencies... 	...done.

--------------------------------------------------------------
User input:
--------------------------------------------------------------
$molecule
0 2
C         0.1820095448    0.1967824709    0.9647302636
C         0.1091753528   -0.7875720745    2.1131807251
C        -2.9971311863   -2.3126923535    0.6259978300
C        -2.0311187984   -2.1694014829   -0.4700838162
C        -1.2192718630   -1.1321237432   -0.6752667940
C        -1.1264999023    0.1443024723    0.1212513599
C        -1.0748141209    1.3880910072   -0.9047279387
H         0.2375455186    1.1976884914    1.4105677157
H         1.0645196291   -1.2754610146    2.3613575231
H        -3.0190059254   -1.5440535483    1.4041165463
H        -1.9853446744   -3.0157684345   -1.1452526057
H        -0.5219090528   -1.1996165851   -1.5025525809
H        -1.9785980889    1.3455357024   -1.5068567737
O         0.0858609549    1.3666779324   -1.6952974414
H        -1.0550814279    2.2866214554   -0.2965176627
H        -0.0595791536    0.8075142747   -2.4671841923
O         1.3452997799   -0.1220921546    0.2369161777
H         1.3653102779    0.4553101464   -0.5413076926
O        -0.9000546356   -1.0229367183    2.7308095731
O        -2.1904719771    0.4633868272    0.8786925911
O        -3.7470962514   -3.2736151707    0.6918281927
$end

$rem
BASIS = 6-311++G(2df,2p)
GUI = 2
JOB_TYPE = Frequency
METHOD = wB97M-V
SOLVENT_METHOD = SMD
SCF_ALGORITHM = DIIS_GDM
MAX_SCF_CYCLES = 400
SCF_CONVERGENCE = 7
THRESH = 12
$end
--------------------------------------------------------------
 ----------------------------------------------------------------
             Standard Nuclear Orientation (Angstroms)
    I     Atom           X                Y                Z
 ----------------------------------------------------------------
    1      C       0.1820095448     0.1967824709     0.9647302636
    2      C       0.1091753528    -0.7875720745     2.1131807251
    3      C      -2.9971311863    -2.3126923535     0.6259978300
    4      C      -2.0311187984    -2.1694014829    -0.4700838162
    5      C      -1.2192718630    -1.1321237432    -0.6752667940
    6      C      -1.1264999023     0.1443024723     0.1212513599
    7      C      -1.0748141209     1.3880910072    -0.9047279387
    8      H       0.2375455186     1.1976884914     1.4105677157
    9      H       1.0645196291    -1.2754610146     2.3613575231
   10      H      -3.0190059254    -1.5440535483     1.4041165463
   11      H      -1.9853446744    -3.0157684345    -1.1452526057
   12      H      -0.5219090528    -1.1996165851    -1.5025525809
   13      H      -1.9785980889     1.3455357024    -1.5068567737
   14      O       0.0858609549     1.3666779324    -1.6952974414
   15      H      -1.0550814279     2.2866214554    -0.2965176627
   16      H      -0.0595791536     0.8075142747    -2.4671841923
   17      O       1.3452997799    -0.1220921546     0.2369161777
   18      H       1.3653102779     0.4553101464    -0.5413076926
   19      O      -0.9000546356    -1.0229367183     2.7308095731
   20      O      -2.1904719771     0.4633868272     0.8786925911
   21      O      -3.7470962514    -3.2736151707     0.6918281927
 ----------------------------------------------------------------
 Nuclear Repulsion Energy =         736.64322281 hartrees
 There are       46 alpha and       45 beta electrons
 Requested basis set is 6-311++G(2df,2p)
 There are 150 shells and 498 basis functions

 Total QAlloc Memory Limit 288000 MB
 Mega-Array Size       188 MB
 MEM_STATIC part       192 MB
 
 Citation of the SMD model:
 Marenich, A.V.; Cramer, C.J.; Truhlar, D.G.
 J. Phys. Chem. B 2009, 113, 6378-6396.
 iSolventCode=           1
 Solvent: water                                                           
 
 vradii
            1           2           3           4           5           6
    1   1.8500000   1.8500000   1.8500000   1.8500000   1.8500000   1.8500000
            7           8           9          10          11          12
    1   1.8500000   1.2000000   1.2000000   1.2000000   1.2000000   1.2000000
           13          14          15          16          17          18
    1   1.2000000   1.5200000   1.2000000   1.2000000   1.5200000   1.2000000
           19          20          21
    1   1.5200000   1.5200000   1.5200000
 Changing PCM_VDW_RADII to SMD_RADIUS
 Discretize the solute cavity surface with Lebedev spheres
	Using 110 Lebedev grid points for each H atom
	Using 194 Lebedev grid points for other atoms
	Atomic van der Waals radii will be scaled by 1.20
 Remove points where switching function is < 1.0e-08
 Keep 1634 surface tesserae and discard 1684 interior tesserae
 Molecular Surface Area = 185.038 Angst**2
 A cutoff of  1.0D-12 yielded   9845 shell pairs
 There are    108050 function pairs (    134693 Cartesian)
 Smallest overlap matrix eigenvalue = 2.68E-06
 Guess from superposition of atomic densities
 Warning:  Energy on first SCF cycle will be non-variational
 SAD guess density has 91.000000 electrons

 -----------------------------------------------------------------------
  General SCF calculation program by
  Eric Jon Sundstrom, Paul Horn, Yuezhi Mao, Dmitri Zuev, Alec White,
  David Stuck, Shaama M.S., Shane Yost, Joonho Lee, David Small,
  Daniel Levine, Susi Lehtola, Hugh Burton, Evgeny Epifanovsky,
  Bang C. Huynh
 -----------------------------------------------------------------------
 Exchange:     0.1500 Hartree-Fock + 1.0000 wB97M-V + LR-HF
 Correlation:  1.0000 wB97M-V
 Using SG-2 standard quadrature grid
 Nonlocal Correlation:  VV10 with C = 0.0100 and b = 6.00 and scale = 1.00000
 Grid used for NLC:  SG-1 standard quadrature
 using 16 threads for integral computing
 -------------------------------------------------------
 OpenMP Integral computing Module                
 Release: version 1.0, May 2013, Q-Chem Inc. Pittsburgh 
 -------------------------------------------------------
 
 Citation of the SMD model:
 Marenich, A.V.; Cramer, C.J.; Truhlar, D.G.
 J. Phys. Chem. B 2009, 113, 6378-6396.
 iSolventCode=           1
 Solvent: water                                                           
 
 vradii
            1           2           3           4           5           6
    1   1.8500000   1.8500000   1.8500000   1.8500000   1.8500000   1.8500000
            7           8           9          10          11          12
    1   1.8500000   1.2000000   1.2000000   1.2000000   1.2000000   1.2000000
           13          14          15          16          17          18
    1   1.2000000   1.5200000   1.2000000   1.2000000   1.5200000   1.2000000
           19          20          21
    1   1.5200000   1.5200000   1.5200000
 -------------------------------------------------------
 OpenMP BLAS3 based DFT computing Module                
 Release: version 1.0, May 2013, Q-Chem Inc. Pittsburgh 
 -------------------------------------------------------
 A unrestricted SCF calculation will be
 performed using DIIS, GDM
 SCF converges when RMS gradient is below 1.0e-07
 ---------------------------------------
  Cycle       Energy         DIIS error
 ---------------------------------------
    1    -650.9176205444      1.13e-02  
    2    -647.8985818490      1.60e-03  Done DIIS. Switching to GDM
 ---------------------------------------
  Cycle       Energy        RMS Gradient
 ---------------------------------------
    1    -647.8985818490      2.59e-01   Descent step
    2    -648.1300704647      7.66e-02   Normal BFGS step
    3    -648.1791961644      3.56e-02   Normal BFGS step
    4    -648.1852343175      9.66e-03   Normal BFGS step
    5    -648.1892133290      1.42e-02   Normal BFGS step
    6    -648.1904690261      6.80e-03   Normal BFGS step
    7    -648.1907883258      3.20e-03   Normal BFGS step
    8    -648.1908721625      1.83e-03   Normal BFGS step
    9    -648.1908962268      1.36e-03   Normal BFGS step
   10    -648.1909093085      1.17e-03   Normal BFGS step
   11    -648.1909274564      1.22e-03   Normal BFGS step
   12    -648.1909382034      1.20e-03   Normal BFGS step
   13    -648.1909523228      8.13e-04   Normal BFGS step
   14    -648.1909591850      4.07e-04   Normal BFGS step
   15    -648.1909613605      3.41e-04   Normal BFGS step
   16    -648.1909619325      1.56e-04   Normal BFGS step
   17    -648.1909621625      7.56e-05   Normal BFGS step
   18    -648.1909622658      4.22e-05   Normal BFGS step
   19    -648.1909622959      3.45e-05   Normal BFGS step
   20    -648.1909623053      1.18e-05   Normal BFGS step
   21    -648.1909623083      6.88e-06   Normal BFGS step
   22    -648.1909623088      3.24e-06   Normal BFGS step
   23    -648.1909623089      1.86e-06   Normal BFGS step
   24    -648.1909623089      9.08e-07   Normal BFGS step
   25    -648.1909623089      3.13e-07   Normal BFGS step
   26    -648.1909623089      1.24e-07   Normal BFGS step
   27    -648.1909623090      3.91e-08  Convergence criterion met
 ---------------------------------------
 SCF time:   CPU 3201.78s  wall 219.00s 
<S^2> =          0.755863801
(3)  G-ENP(liq) elect-nuc-pol free energy of system     -648.190962309 a.u.
(4)  G-CDS(liq) cavity-dispersion-solvent structure 
     free energy                                                6.4169 kcal/mol
(6)  G-S(liq) free energy of system                     -648.180736252 a.u.
 SCF   energy in the final basis set =     -648.1807362515
 Total energy in the final basis set =     -648.1807362515
 
 --------------------------------------------------------------
 
                    Orbital Energies (a.u.)
 --------------------------------------------------------------
 
 Alpha MOs
 -- Occupied --
-19.3827 -19.3650 -19.3584 -19.3486 -19.3409 -10.4490 -10.4376 -10.4326
-10.4197 -10.4186 -10.3744 -10.3572  -1.2113  -1.1945  -1.1853  -1.1768
 -1.1701  -0.9401  -0.8899  -0.8455  -0.7904  -0.7415  -0.7071  -0.6723
 -0.6598  -0.6345  -0.6248  -0.6107  -0.5897  -0.5779  -0.5697  -0.5575
 -0.5555  -0.5250  -0.5201  -0.5188  -0.5068  -0.4926  -0.4813  -0.4582
 -0.4385  -0.4099  -0.3949  -0.3833  -0.3690  -0.3557
 -- Virtual --
  0.0075   0.0243   0.0370   0.0375   0.0395   0.0415   0.0572   0.0611
  0.0672   0.0732   0.0760   0.1010   0.1019   0.1059   0.1090   0.1169
  0.1227   0.1300   0.1381   0.1454   0.1547   0.1572   0.1605   0.1651
  0.1673   0.1708   0.1756   0.1789   0.1830   0.1872   0.1876   0.1970
  0.2012   0.2082   0.2137   0.2255   0.2274   0.2340   0.2584   0.2604
  0.2695   0.2724   0.2837   0.2896   0.2903   0.3018   0.3068   0.3096
  0.3193   0.3216   0.3242   0.3350   0.3373   0.3403   0.3461   0.3544
  0.3592   0.3602   0.3691   0.3701   0.3762   0.3769   0.3867   0.3906
  0.3999   0.4061   0.4078   0.4106   0.4163   0.4336   0.4364   0.4433
  0.4634   0.4722   0.4842   0.4928   0.4960   0.5204   0.5337   0.5403
  0.5666   0.5786   0.5912   0.5974   0.6086   0.6116   0.6286   0.6301
  0.6428   0.6490   0.6505   0.6664   0.6691   0.6738   0.6832   0.6869
  0.7014   0.7027   0.7097   0.7175   0.7293   0.7417   0.7439   0.7464
  0.7617   0.7767   0.7805   0.7946   0.8114   0.8127   0.8265   0.8428
  0.8552   0.8599   0.8759   0.8818   0.9011   0.9198   0.9237   0.9323
  0.9573   0.9825   0.9986   1.0239   1.0337   1.0402   1.0489   1.0552
  1.0772   1.0817   1.0891   1.1023   1.1216   1.1330   1.1407   1.1492
  1.1527   1.1638   1.1671   1.1766   1.1909   1.1963   1.2104   1.2150
  1.2197   1.2311   1.2390   1.2555   1.2569   1.2714   1.2762   1.2814
  1.2895   1.2962   1.3067   1.3268   1.3377   1.3502   1.3556   1.3622
  1.3865   1.3917   1.3993   1.4215   1.4332   1.4408   1.4541   1.4619
  1.4692   1.4887   1.5012   1.5036   1.5151   1.5306   1.5452   1.5491
  1.5743   1.5933   1.6022   1.6072   1.6197   1.6348   1.6419   1.6597
  1.6719   1.6859   1.6949   1.7054   1.7241   1.7480   1.7589   1.7843
  1.8192   1.8364   1.8430   1.8735   1.8823   1.9172   1.9259   1.9420
  1.9658   1.9832   2.0009   2.0529   2.0700   2.0876   2.1036   2.1176
  2.1469   2.1813   2.1891   2.2333   2.2721   2.2895   2.3658   2.3838
  2.4054   2.4230   2.4492   2.5060   2.5101   2.5676   2.5963   2.6106
  2.6551   2.6681   2.6764   2.6827   2.7026   2.7141   2.7720   2.7899
  2.8148   2.8175   2.8334   2.8510   2.8579   2.8812   2.8883   2.9072
  2.9221   2.9372   2.9542   2.9658   2.9764   3.0037   3.0155   3.0302
  3.0401   3.0751   3.0845   3.1020   3.1310   3.1520   3.1528   3.1784
  3.1838   3.1974   3.2032   3.2200   3.2429   3.2484   3.2725   3.2806
  3.2959   3.3074   3.3263   3.3530   3.3665   3.3684   3.3906   3.3963
  3.4127   3.4280   3.4359   3.4715   3.4755   3.5025   3.5128   3.5169
  3.5341   3.5512   3.5700   3.5813   3.6052   3.6184   3.6297   3.6437
  3.6507   3.6591   3.6740   3.6884   3.6996   3.7100   3.7263   3.7303
  3.7759   3.7988   3.8075   3.8211   3.8425   3.8514   3.8658   3.8755
  3.8836   3.8943   3.9150   3.9276   3.9489   3.9681   3.9732   3.9893
  3.9980   4.0294   4.0683   4.0843   4.0974   4.1092   4.1240   4.1498
  4.1873   4.1978   4.2037   4.2279   4.2371   4.2452   4.2701   4.2774
  4.2990   4.3147   4.3330   4.3393   4.3692   4.3906   4.4380   4.4462
  4.4715   4.4863   4.4891   4.5189   4.5300   4.5485   4.5829   4.6088
  4.6346   4.6520   4.6896   4.7262   4.7431   4.7530   4.8625   4.8874
  4.8999   4.9830   5.0440   5.1273   5.1422   5.1510   5.1643   5.1837
  5.1860   5.1924   5.2359   5.2434   5.2543   5.2727   5.2765   5.2889
  5.3118   5.3414   5.3485   5.3528   5.3836   5.4045   5.4102   5.4197
  5.4398   5.4447   5.4615   5.4969   5.5169   5.5360   5.5672   5.5714
  5.5779   5.5878   5.6100   5.6386   5.6599   5.6738   5.6933   5.7167
  5.7275   5.7513   5.7830   5.8525   5.9095   5.9367   5.9835   6.0547
  6.0599   6.0807   6.1162   6.2708   6.3257   6.3912   6.6311   6.6747
  6.7579   6.8016   6.9066   6.9430   6.9698   6.9885   7.0105   7.0227
  7.0713   7.1147   7.1419   7.1930   7.2191   7.2942   7.3067   7.3177
  7.3425   7.3539   7.3750   7.4192   7.4747   7.4889   7.5306   7.5485
  7.5690   7.6678   7.7215   7.7592   7.7738   7.7756   7.8095   7.8582
 24.4503  24.6920  24.7154  24.8653  24.9957  25.0085  25.2448  50.6231
 50.6524  50.6572  50.7151  50.7251
 
 Beta MOs
 -- Occupied --
-19.3637 -19.3628 -19.3573 -19.3485 -19.3407 -10.4491 -10.4376 -10.4329
-10.4179 -10.4168 -10.3743 -10.3570  -1.2078  -1.1897  -1.1849  -1.1695
 -1.1410  -0.9355  -0.8838  -0.8386  -0.7880  -0.7375  -0.7052  -0.6662
 -0.6550  -0.6323  -0.6193  -0.6044  -0.5859  -0.5728  -0.5659  -0.5520
 -0.5428  -0.5212  -0.5176  -0.5129  -0.5050  -0.4853  -0.4588  -0.4297
 -0.4142  -0.3890  -0.3833  -0.3791  -0.3602
 -- Virtual --
 -0.0743   0.0093   0.0247   0.0375   0.0378   0.0398   0.0418   0.0573
  0.0616   0.0674   0.0732   0.0764   0.1013   0.1020   0.1062   0.1091
  0.1174   0.1231   0.1301   0.1386   0.1456   0.1553   0.1582   0.1610
  0.1655   0.1674   0.1708   0.1759   0.1791   0.1835   0.1876   0.1884
  0.1972   0.2018   0.2088   0.2141   0.2257   0.2280   0.2348   0.2588
  0.2619   0.2699   0.2741   0.2862   0.2907   0.2912   0.3033   0.3076
  0.3134   0.3203   0.3228   0.3301   0.3369   0.3376   0.3410   0.3469
  0.3552   0.3599   0.3608   0.3707   0.3715   0.3774   0.3781   0.3877
  0.3916   0.4011   0.4079   0.4103   0.4126   0.4177   0.4355   0.4384
  0.4451   0.4661   0.4736   0.4850   0.4940   0.4989   0.5218   0.5348
  0.5409   0.5681   0.5796   0.5928   0.5984   0.6097   0.6124   0.6296
  0.6310   0.6440   0.6499   0.6511   0.6669   0.6701   0.6748   0.6848
  0.6880   0.7022   0.7032   0.7110   0.7198   0.7302   0.7429   0.7461
  0.7472   0.7628   0.7774   0.7814   0.7951   0.8120   0.8145   0.8269
  0.8446   0.8558   0.8611   0.8766   0.8827   0.9020   0.9201   0.9243
  0.9333   0.9594   0.9833   0.9993   1.0262   1.0356   1.0406   1.0504
  1.0570   1.0784   1.0826   1.0917   1.1050   1.1245   1.1335   1.1419
  1.1511   1.1557   1.1661   1.1687   1.1782   1.1920   1.1976   1.2143
  1.2179   1.2215   1.2328   1.2415   1.2562   1.2588   1.2737   1.2779
  1.2832   1.2931   1.2987   1.3083   1.3286   1.3389   1.3519   1.3572
  1.3633   1.3880   1.3952   1.4028   1.4271   1.4345   1.4447   1.4562
  1.4630   1.4714   1.4906   1.5030   1.5059   1.5168   1.5329   1.5471
  1.5511   1.5760   1.5945   1.6047   1.6104   1.6233   1.6367   1.6439
  1.6625   1.6748   1.6871   1.6968   1.7069   1.7289   1.7524   1.7647
  1.7899   1.8206   1.8409   1.8462   1.8768   1.8894   1.9229   1.9353
  1.9516   1.9701   1.9918   2.0038   2.0577   2.0775   2.0910   2.1115
  2.1200   2.1499   2.1837   2.1924   2.2386   2.2771   2.2948   2.3674
  2.3875   2.4094   2.4242   2.4510   2.5069   2.5121   2.5689   2.6013
  2.6163   2.6568   2.6688   2.6778   2.6866   2.7041   2.7174   2.7739
  2.7921   2.8186   2.8199   2.8352   2.8526   2.8595   2.8818   2.8900
  2.9084   2.9243   2.9387   2.9556   2.9674   2.9782   3.0053   3.0168
  3.0317   3.0420   3.0764   3.0852   3.1047   3.1335   3.1542   3.1545
  3.1803   3.1855   3.2013   3.2055   3.2215   3.2443   3.2510   3.2748
  3.2835   3.2978   3.3087   3.3283   3.3548   3.3687   3.3700   3.3922
  3.3979   3.4142   3.4291   3.4377   3.4739   3.4765   3.5049   3.5142
  3.5189   3.5371   3.5522   3.5717   3.5848   3.6068   3.6210   3.6330
  3.6456   3.6542   3.6617   3.6771   3.6906   3.7005   3.7147   3.7276
  3.7340   3.7782   3.8015   3.8096   3.8229   3.8433   3.8530   3.8666
  3.8775   3.8859   3.8967   3.9177   3.9290   3.9524   3.9700   3.9757
  3.9913   4.0013   4.0306   4.0712   4.0890   4.0992   4.1107   4.1272
  4.1519   4.1899   4.2000   4.2067   4.2300   4.2394   4.2471   4.2709
  4.2785   4.3005   4.3159   4.3348   4.3411   4.3718   4.3920   4.4404
  4.4483   4.4731   4.4877   4.4915   4.5209   4.5313   4.5502   4.5843
  4.6115   4.6363   4.6563   4.6916   4.7286   4.7454   4.7549   4.8649
  4.8901   4.9025   4.9859   5.0474   5.1316   5.1541   5.1758   5.1856
  5.1925   5.2062   5.2268   5.2387   5.2477   5.2629   5.2770   5.2814
  5.2954   5.3150   5.3491   5.3551   5.3798   5.4072   5.4159   5.4217
  5.4266   5.4568   5.4650   5.4843   5.5156   5.5252   5.5427   5.5704
  5.5745   5.5886   5.5906   5.6167   5.6409   5.6657   5.6762   5.6965
  5.7199   5.7388   5.7583   5.7875   5.8549   5.9127   5.9467   5.9859
  6.0568   6.0638   6.0950   6.1482   6.2810   6.3261   6.3922   6.6348
  6.6786   6.7592   6.8044   6.9217   6.9480   6.9856   7.0263   7.0279
  7.0730   7.1223   7.1359   7.1453   7.1940   7.2226   7.2968   7.3097
  7.3195   7.3442   7.3565   7.3795   7.4201   7.4904   7.5216   7.5485
  7.5648   7.6010   7.6719   7.7232   7.7601   7.7756   7.7926   7.8312
  7.8633  24.4505  24.6947  24.7159  24.8651  24.9957  25.0085  25.2449
 50.6250  50.6553  50.6670  50.7153  50.7266
 --------------------------------------------------------------
 
          Ground-State Mulliken Net Atomic Charges

     Atom                 Charge (a.u.)    Spin (a.u.)
  --------------------------------------------------------
      1 C                    -0.018142       0.028504
      2 C                    -0.076859       0.000181
      3 C                    -0.130191       0.003521
      4 C                    -0.283827       0.014482
      5 C                    -0.202321      -0.007832
      6 C                     0.221024       0.027877
      7 C                    -0.277376       0.107534
      8 H                     0.284883      -0.000746
      9 H                     0.214485       0.006202
     10 H                     0.237549      -0.001241
     11 H                     0.288871       0.000885
     12 H                     0.316195      -0.000789
     13 H                     0.260051      -0.001593
     14 O                    -0.331223       0.035991
     15 H                     0.267518      -0.002558
     16 H                     0.350572      -0.000538
     17 O                    -0.407128       0.005677
     18 H                     0.345322      -0.000261
     19 O                    -0.341182       0.026375
     20 O                    -0.275238       0.752360
     21 O                    -0.442985       0.005968
  --------------------------------------------------------
  Sum of atomic charges =     0.000000
  Sum of spin   charges =     1.000000

 -----------------------------------------------------------------
                    Cartesian Multipole Moments
 -----------------------------------------------------------------
    Charge (ESU x 10^10)
                 0.0000
    Dipole Moment (Debye)
         X       5.5446      Y       5.2552      Z      -6.4349
       Tot       9.9884
    Quadrupole Moments (Debye-Ang)
        XX     -98.2259     XY     -20.2305     YY     -85.6047
        XZ      14.3651     YZ       7.1855     ZZ     -68.6530
    Octopole Moments (Debye-Ang^2)
       XXX     332.8765    XXY     124.4222    XYY     148.7715
       YYY     187.9244    XXZ     -55.4208    XYZ     -16.9461
       YYZ     -40.5093    XZZ      98.1431    YZZ      49.6411
       ZZZ    -119.6394
    Hexadecapole Moments (Debye-Ang^3)
      XXXX   -1858.7560   XXXY    -737.8590   XXYY    -730.2211
      XYYY    -683.1380   YYYY   -1317.2895   XXXZ     175.7401
      XXYZ     107.7805   XYYZ     109.8898   YYYZ     239.9913
      XXZZ    -389.8616   XYZZ    -164.7307   YYZZ    -330.9848
      XZZZ     155.9921   YZZZ     195.1737   ZZZZ    -791.0188
 -----------------------------------------------------------------
 Calculating analytic gradient of the SCF energy
 Gradient of CDS energy
            1           2           3           4           5           6
    1   0.0016723  -0.0008129  -0.0021892   0.0002502   0.0000777  -0.0030566
    2  -0.0002472  -0.0006594  -0.0017423  -0.0000984   0.0000730   0.0009342
    3  -0.0012516   0.0016081   0.0007935  -0.0004869  -0.0001620   0.0023514
            7           8           9          10          11          12
    1   0.0016481  -0.0000856   0.0002042   0.0003101   0.0000225   0.0000822
    2   0.0009784   0.0001668   0.0000446   0.0001084  -0.0001420   0.0000071
    3  -0.0017738  -0.0000289  -0.0001992  -0.0001920  -0.0001305  -0.0000050
           13          14          15          16          17          18
    1  -0.0001034  -0.0020062   0.0001477   0.0002100  -0.0017300   0.0004146
    2  -0.0002997  -0.0001937  -0.0000807   0.0000137   0.0003208   0.0001033
    3   0.0000081   0.0015524   0.0002873  -0.0004650   0.0010298  -0.0001953
           19          20          21
    1   0.0008977   0.0030109   0.0010357
    2   0.0003391  -0.0008509   0.0012247
    3  -0.0004431  -0.0021124  -0.0001848
 Gradient of SCF Energy
            1           2           3           4           5           6
    1   0.0015846  -0.0063812  -0.0019795  -0.0164857   0.0005453  -0.0011297
    2  -0.0112751   0.0060847  -0.0013919  -0.0060892   0.0154948  -0.0092643
    3  -0.0088731  -0.0018843   0.0016242   0.0166771  -0.0010299   0.0099200
            7           8           9          10          11          12
    1   0.0211777   0.0014690   0.0063666   0.0015368   0.0021051   0.0123068
    2  -0.0169672   0.0119848  -0.0027412  -0.0026784  -0.0037644   0.0008020
    3  -0.0003987   0.0035473   0.0015204  -0.0056176  -0.0053956  -0.0166464
           13          14          15          16          17          18
    1  -0.0122214  -0.0013357   0.0001416  -0.0026489   0.0034493  -0.0006726
    2  -0.0005040   0.0238114   0.0118320  -0.0185164  -0.0077361   0.0073017
    3  -0.0113648   0.0203871   0.0078550  -0.0193963   0.0117935  -0.0128941
           19          20          21
    1  -0.0034016  -0.0044971   0.0000703
    2  -0.0000640   0.0022699   0.0014108
    3   0.0042091   0.0042438   0.0017232
 Max gradient component =       2.381E-02
 RMS gradient           =       9.322E-03
 Computing fast CPCM-SWIG gradient
 Updating gradient with PCM contributions...
 -- total gradient after adding PCM contribution --
---------------------------------------------------
  Atom         X              Y              Z     
---------------------------------------------------
   1      -0.000045       0.000005      -0.000047
   2      -0.000030       0.000031       0.000010
   3       0.000045      -0.000023       0.000024
   4      -0.000013       0.000025      -0.000005
   5       0.000018       0.000001      -0.000037
   6      -0.000145      -0.000103       0.000311
   7       0.000054       0.000169      -0.000176
   8       0.000011       0.000009       0.000010
   9       0.000000       0.000022       0.000012
  10      -0.000019       0.000027      -0.000008
  11      -0.000000      -0.000003       0.000008
  12       0.000009       0.000005      -0.000003
  13       0.000008      -0.000039       0.000007
  14      -0.000027      -0.000041       0.000032
  15       0.000013      -0.000019      -0.000000
  16      -0.000001      -0.000014      -0.000014
  17       0.000020      -0.000041       0.000005
  18       0.000013       0.000020      -0.000005
  19      -0.000008      -0.000009       0.000001
  20       0.000123      -0.000044      -0.000124
  21      -0.000025       0.000022      -0.000001
---------------------------------------------------
 Number of fixed atoms: 0
 Gradient time:  CPU 309.77 s  wall 26.77 s
 ######################################################
 ######################################################
 # Starting finite difference calculation for IDERIV  #
 Finite diff step size:  1.88973e-03 a.u.
 ----------------------------------------------------------------
             Standard Nuclear Orientation (Angstroms)
    I     Atom           X                Y                Z
 ----------------------------------------------------------------
    1      C       0.1830095448     0.1967824709     0.9647302636
    2      C       0.1091753528    -0.7875720745     2.1131807251
    3      C      -2.9971311863    -2.3126923535     0.6259978300
    4      C      -2.0311187984    -2.1694014829    -0.4700838162
    5      C      -1.2192718630    -1.1321237432    -0.6752667940
    6      C      -1.1264999023     0.1443024723     0.1212513599
    7      C      -1.0748141209     1.3880910072    -0.9047279387
    8      H       0.2375455186     1.1976884914     1.4105677157
    9      H       1.0645196291    -1.2754610146     2.3613575231
   10      H      -3.0190059254    -1.5440535483     1.4041165463
   11      H      -1.9853446744    -3.0157684345    -1.1452526057
   12      H      -0.5219090528    -1.1996165851    -1.5025525809
   13      H      -1.9785980889     1.3455357024    -1.5068567737
   14      O       0.0858609549     1.3666779324    -1.6952974414
   15      H      -1.0550814279     2.2866214554    -0.2965176627
   16      H      -0.0595791536     0.8075142747    -2.4671841923
   17      O       1.3452997799    -0.1220921546     0.2369161777
   18      H       1.3653102779     0.4553101464    -0.5413076926
   19      O      -0.9000546356    -1.0229367183     2.7308095731
   20      O      -2.1904719771     0.4633868272     0.8786925911
   21      O      -3.7470962514    -3.2736151707     0.6918281927
 ----------------------------------------------------------------
 Nuclear Repulsion Energy =         736.63483892 hartrees
 There are       46 alpha and       45 beta electrons
 Discretize the solute cavity surface with Lebedev spheres
	Using 110 Lebedev grid points for each H atom
	Using 194 Lebedev grid points for other atoms
	Atomic van der Waals radii will be scaled by 1.20
 Remove points where switching function is < 1.0e-08
 Keep 1634 surface tesserae and discard 1684 interior tesserae
 Molecular Surface Area = 185.039 Angst**2
 Requested basis set is 6-311++G(2df,2p)
 There are 150 shells and 498 basis functions
 A cutoff of  1.0D-12 yielded   9845 shell pairs
 There are    108050 function pairs (    134693 Cartesian)
 Smallest overlap matrix eigenvalue = 2.68E-06
 Guess MOs from SCF MO coefficient file

 -----------------------------------------------------------------------
  General SCF calculation program by
  Eric Jon Sundstrom, Paul Horn, Yuezhi Mao, Dmitri Zuev, Alec White,
  David Stuck, Shaama M.S., Shane Yost, Joonho Lee, David Small,
  Daniel Levine, Susi Lehtola, Hugh Burton, Evgeny Epifanovsky,
  Bang C. Huynh
 -----------------------------------------------------------------------
 Exchange:     0.1500 Hartree-Fock + 1.0000 wB97M-V + LR-HF
 Correlation:  1.0000 wB97M-V
 Using SG-2 standard quadrature grid
 Nonlocal Correlation:  VV10 with C = 0.0100 and b = 6.00 and scale = 1.00000
 Grid used for NLC:  SG-1 standard quadrature
 
 Citation of the SMD model:
 Marenich, A.V.; Cramer, C.J.; Truhlar, D.G.
 J. Phys. Chem. B 2009, 113, 6378-6396.
 iSolventCode=           1
 Solvent: water                                                           
 
 vradii
            1           2           3           4           5           6
    1   1.8500000   1.8500000   1.8500000   1.8500000   1.8500000   1.8500000
            7           8           9          10          11          12
    1   1.8500000   1.2000000   1.2000000   1.2000000   1.2000000   1.2000000
           13          14          15          16          17          18
    1   1.2000000   1.5200000   1.2000000   1.2000000   1.5200000   1.2000000
           19          20          21
    1   1.5200000   1.5200000   1.5200000
 -------------------------------------------------------
 OpenMP BLAS3 based DFT computing Module                
 Release: version 1.0, May 2013, Q-Chem Inc. Pittsburgh 
 -------------------------------------------------------
 A unrestricted SCF calculation will be
 performed using Roothaan-Hall, DIIS, GDM
 SCF converges when RMS gradient is below 1.0e-07
 ---------------------------------------
  Cycle       Energy         DIIS error
 ---------------------------------------
    1    -648.1381050456      2.13e-04  Roothaan Step
 ---------------------------------------
  Cycle       Energy         DIIS error
 ---------------------------------------
    1    -648.1766131209      2.82e-04  
    2    -648.1809465876      3.40e-04  Done DIIS. Switching to GDM
 ---------------------------------------
  Cycle       Energy        RMS Gradient
 ---------------------------------------
    1    -648.1809465876      2.54e-02   Normal BFGS step
    2    -648.1758421652      4.19e-02  Line search: overstep
    3    -648.1905443173      4.40e-03   Normal BFGS step
    4    -648.1908732556      3.53e-03   Normal BFGS step
    5    -648.1909411254      5.64e-04   Normal BFGS step
    6    -648.1909612599      7.14e-04   Normal BFGS step
    7    -648.1909635850      3.75e-04   Normal BFGS step
    8    -648.1909644401      2.47e-04   Normal BFGS step
    9    -648.1909646771      8.28e-05   Normal BFGS step
   10    -648.1909647335      6.46e-05   Normal BFGS step
   11    -648.1909647550      2.06e-05   Normal BFGS step
   12    -648.1909647589      2.13e-05   Normal BFGS step
   13    -648.1909647613      2.13e-05   Normal BFGS step
   14    -648.1909647642      1.92e-05   Normal BFGS step
   15    -648.1909647687      1.34e-05   Normal BFGS step
   16    -648.1909647705      7.52e-06   Normal BFGS step
   17    -648.1909647716      5.60e-06   Normal BFGS step
   18    -648.1909647720      4.61e-06   Normal BFGS step
   19    -648.1909647721      2.39e-06   Normal BFGS step
   20    -648.1909647722      1.06e-06   Normal BFGS step
   21    -648.1909647722      6.26e-07   Normal BFGS step
   22    -648.1909647722      1.91e-07   Normal BFGS step
   23    -648.1909647722      1.62e-07   Normal BFGS step
   24    -648.1909647724      6.85e-08  Convergence criterion met
 ---------------------------------------
 SCF time:   CPU 2967.41s  wall 202.00s 
<S^2> =          0.755867296
(3)  G-ENP(liq) elect-nuc-pol free energy of system     -648.190964772 a.u.
(4)  G-CDS(liq) cavity-dispersion-solvent structure 
     free energy                                                6.4190 kcal/mol
(6)  G-S(liq) free energy of system                     -648.180735406 a.u.
 SCF   energy in the final basis set =     -648.1807354056
 Total energy in the final basis set =     -648.1807354056
 
 --------------------------------------------------------------
 
                    Orbital Energies (a.u.)
 --------------------------------------------------------------
 
 Alpha MOs
 -- Occupied --
-19.3827 -19.3650 -19.3584 -19.3487 -19.3409 -10.4490 -10.4376 -10.4326
-10.4196 -10.4187 -10.3744 -10.3572  -1.2113  -1.1945  -1.1853  -1.1767
 -1.1703  -0.9401  -0.8898  -0.8455  -0.7903  -0.7414  -0.7070  -0.6724
 -0.6599  -0.6345  -0.6248  -0.6107  -0.5897  -0.5779  -0.5698  -0.5575
 -0.5555  -0.5250  -0.5201  -0.5188  -0.5068  -0.4926  -0.4813  -0.4582
 -0.4386  -0.4098  -0.3949  -0.3833  -0.3689  -0.3556
 -- Virtual --
  0.0075   0.0243   0.0370   0.0375   0.0395   0.0415   0.0572   0.0611
  0.0672   0.0732   0.0760   0.1010   0.1019   0.1059   0.1090   0.1169
  0.1227   0.1300   0.1381   0.1454   0.1547   0.1572   0.1605   0.1651
  0.1673   0.1708   0.1756   0.1789   0.1830   0.1872   0.1876   0.1970
  0.2012   0.2082   0.2137   0.2255   0.2274   0.2340   0.2584   0.2604
  0.2695   0.2725   0.2837   0.2895   0.2904   0.3018   0.3068   0.3096
  0.3193   0.3216   0.3242   0.3350   0.3373   0.3403   0.3461   0.3544
  0.3591   0.3602   0.3691   0.3701   0.3762   0.3769   0.3867   0.3906
  0.3999   0.4061   0.4077   0.4106   0.4163   0.4336   0.4364   0.4433
  0.4634   0.4722   0.4842   0.4927   0.4961   0.5204   0.5337   0.5403
  0.5666   0.5786   0.5912   0.5974   0.6086   0.6116   0.6286   0.6301
  0.6428   0.6490   0.6505   0.6664   0.6691   0.6738   0.6832   0.6869
  0.7014   0.7027   0.7097   0.7176   0.7293   0.7417   0.7439   0.7464
  0.7617   0.7767   0.7806   0.7946   0.8114   0.8127   0.8265   0.8428
  0.8552   0.8599   0.8760   0.8818   0.9011   0.9198   0.9237   0.9323
  0.9573   0.9825   0.9986   1.0238   1.0336   1.0402   1.0489   1.0552
  1.0772   1.0816   1.0891   1.1023   1.1216   1.1330   1.1407   1.1492
  1.1527   1.1638   1.1671   1.1766   1.1909   1.1963   1.2103   1.2149
  1.2197   1.2311   1.2390   1.2555   1.2569   1.2713   1.2762   1.2814
  1.2895   1.2962   1.3068   1.3268   1.3377   1.3501   1.3556   1.3622
  1.3864   1.3917   1.3994   1.4214   1.4332   1.4408   1.4541   1.4619
  1.4692   1.4887   1.5012   1.5037   1.5151   1.5306   1.5452   1.5491
  1.5743   1.5932   1.6022   1.6072   1.6197   1.6348   1.6419   1.6597
  1.6719   1.6858   1.6949   1.7054   1.7239   1.7480   1.7589   1.7843
  1.8191   1.8363   1.8429   1.8735   1.8822   1.9171   1.9259   1.9420
  1.9659   1.9832   2.0009   2.0529   2.0701   2.0877   2.1037   2.1176
  2.1470   2.1814   2.1892   2.2333   2.2721   2.2896   2.3662   2.3839
  2.4056   2.4230   2.4491   2.5062   2.5101   2.5676   2.5963   2.6106
  2.6550   2.6680   2.6764   2.6827   2.7026   2.7141   2.7719   2.7899
  2.8147   2.8176   2.8334   2.8510   2.8578   2.8812   2.8883   2.9073
  2.9221   2.9372   2.9542   2.9658   2.9763   3.0035   3.0156   3.0300
  3.0401   3.0751   3.0844   3.1021   3.1309   3.1520   3.1528   3.1784
  3.1837   3.1974   3.2032   3.2199   3.2430   3.2484   3.2725   3.2805
  3.2958   3.3075   3.3263   3.3529   3.3666   3.3684   3.3907   3.3963
  3.4127   3.4280   3.4359   3.4715   3.4755   3.5025   3.5128   3.5168
  3.5341   3.5512   3.5701   3.5812   3.6051   3.6184   3.6296   3.6436
  3.6506   3.6590   3.6740   3.6883   3.6995   3.7101   3.7263   3.7304
  3.7759   3.7988   3.8075   3.8211   3.8426   3.8514   3.8658   3.8755
  3.8835   3.8942   3.9151   3.9277   3.9488   3.9680   3.9731   3.9894
  3.9981   4.0294   4.0681   4.0843   4.0974   4.1092   4.1240   4.1497
  4.1872   4.1979   4.2035   4.2279   4.2370   4.2452   4.2701   4.2774
  4.2989   4.3148   4.3329   4.3392   4.3692   4.3905   4.4380   4.4461
  4.4715   4.4863   4.4890   4.5189   4.5299   4.5485   4.5828   4.6088
  4.6346   4.6520   4.6888   4.7258   4.7430   4.7529   4.8625   4.8873
  4.8999   4.9830   5.0436   5.1271   5.1422   5.1509   5.1643   5.1837
  5.1860   5.1924   5.2359   5.2433   5.2541   5.2727   5.2766   5.2889
  5.3117   5.3414   5.3485   5.3528   5.3836   5.4044   5.4102   5.4197
  5.4398   5.4446   5.4614   5.4966   5.5170   5.5360   5.5672   5.5714
  5.5779   5.5880   5.6101   5.6387   5.6604   5.6739   5.6934   5.7169
  5.7276   5.7513   5.7830   5.8525   5.9095   5.9367   5.9847   6.0555
  6.0599   6.0807   6.1163   6.2709   6.3257   6.3914   6.6321   6.6750
  6.7580   6.8025   6.9065   6.9430   6.9698   6.9885   7.0104   7.0227
  7.0713   7.1148   7.1420   7.1930   7.2191   7.2943   7.3067   7.3177
  7.3426   7.3539   7.3751   7.4195   7.4747   7.4889   7.5306   7.5485
  7.5689   7.6678   7.7218   7.7592   7.7739   7.7756   7.8095   7.8583
 24.4503  24.6920  24.7164  24.8646  24.9955  25.0084  25.2448  50.6231
 50.6525  50.6574  50.7151  50.7251
 
 Beta MOs
 -- Occupied --
-19.3637 -19.3627 -19.3573 -19.3485 -19.3407 -10.4491 -10.4376 -10.4329
-10.4180 -10.4168 -10.3743 -10.3570  -1.2078  -1.1898  -1.1849  -1.1696
 -1.1409  -0.9354  -0.8837  -0.8385  -0.7880  -0.7375  -0.7051  -0.6663
 -0.6551  -0.6324  -0.6193  -0.6044  -0.5859  -0.5728  -0.5660  -0.5519
 -0.5428  -0.5212  -0.5176  -0.5129  -0.5050  -0.4854  -0.4588  -0.4298
 -0.4142  -0.3889  -0.3833  -0.3791  -0.3601
 -- Virtual --
 -0.0743   0.0093   0.0247   0.0375   0.0378   0.0398   0.0418   0.0573
  0.0616   0.0674   0.0732   0.0764   0.1013   0.1020   0.1062   0.1091
  0.1174   0.1231   0.1301   0.1386   0.1456   0.1553   0.1583   0.1610
  0.1655   0.1674   0.1708   0.1759   0.1791   0.1835   0.1876   0.1884
  0.1972   0.2018   0.2088   0.2141   0.2257   0.2281   0.2348   0.2588
  0.2619   0.2700   0.2741   0.2862   0.2906   0.2913   0.3033   0.3076
  0.3134   0.3203   0.3228   0.3301   0.3369   0.3376   0.3410   0.3469
  0.3552   0.3599   0.3608   0.3707   0.3715   0.3774   0.3781   0.3877
  0.3916   0.4011   0.4079   0.4103   0.4126   0.4177   0.4355   0.4384
  0.4451   0.4661   0.4735   0.4850   0.4939   0.4989   0.5218   0.5347
  0.5409   0.5680   0.5796   0.5929   0.5984   0.6098   0.6124   0.6296
  0.6310   0.6441   0.6499   0.6511   0.6669   0.6701   0.6748   0.6848
  0.6880   0.7022   0.7032   0.7110   0.7198   0.7302   0.7429   0.7461
  0.7472   0.7628   0.7774   0.7814   0.7951   0.8120   0.8145   0.8269
  0.8446   0.8558   0.8611   0.8766   0.8827   0.9020   0.9201   0.9243
  0.9333   0.9594   0.9833   0.9993   1.0262   1.0356   1.0406   1.0503
  1.0570   1.0784   1.0826   1.0917   1.1050   1.1245   1.1334   1.1419
  1.1511   1.1557   1.1661   1.1687   1.1782   1.1920   1.1976   1.2143
  1.2178   1.2214   1.2328   1.2415   1.2562   1.2588   1.2736   1.2779
  1.2831   1.2930   1.2987   1.3083   1.3286   1.3389   1.3519   1.3572
  1.3633   1.3880   1.3951   1.4029   1.4271   1.4345   1.4446   1.4562
  1.4630   1.4715   1.4905   1.5029   1.5059   1.5168   1.5329   1.5471
  1.5510   1.5759   1.5945   1.6046   1.6104   1.6233   1.6367   1.6439
  1.6625   1.6747   1.6870   1.6968   1.7069   1.7288   1.7524   1.7647
  1.7899   1.8205   1.8409   1.8461   1.8769   1.8893   1.9230   1.9352
  1.9516   1.9702   1.9918   2.0038   2.0577   2.0776   2.0911   2.1115
  2.1200   2.1500   2.1837   2.1925   2.2385   2.2770   2.2949   2.3678
  2.3875   2.4095   2.4242   2.4510   2.5071   2.5121   2.5689   2.6013
  2.6163   2.6567   2.6688   2.6778   2.6866   2.7041   2.7174   2.7738
  2.7920   2.8186   2.8200   2.8352   2.8526   2.8595   2.8818   2.8899
  2.9085   2.9243   2.9387   2.9556   2.9674   2.9782   3.0051   3.0168
  3.0316   3.0420   3.0764   3.0852   3.1048   3.1334   3.1542   3.1544
  3.1803   3.1854   3.2013   3.2055   3.2214   3.2444   3.2511   3.2748
  3.2834   3.2977   3.3087   3.3284   3.3548   3.3688   3.3700   3.3923
  3.3979   3.4142   3.4291   3.4377   3.4739   3.4766   3.5050   3.5142
  3.5187   3.5371   3.5522   3.5718   3.5847   3.6067   3.6209   3.6329
  3.6455   3.6540   3.6616   3.6771   3.6905   3.7005   3.7148   3.7276
  3.7339   3.7781   3.8014   3.8095   3.8228   3.8433   3.8530   3.8666
  3.8775   3.8858   3.8966   3.9178   3.9292   3.9523   3.9699   3.9756
  3.9914   4.0013   4.0306   4.0711   4.0890   4.0992   4.1107   4.1272
  4.1518   4.1899   4.2002   4.2065   4.2300   4.2393   4.2471   4.2708
  4.2784   4.3004   4.3160   4.3347   4.3410   4.3718   4.3920   4.4403
  4.4482   4.4731   4.4877   4.4914   4.5209   4.5312   4.5501   4.5842
  4.6115   4.6363   4.6562   4.6908   4.7282   4.7453   4.7548   4.8649
  4.8900   4.9024   4.9859   5.0470   5.1314   5.1540   5.1758   5.1856
  5.1925   5.2061   5.2267   5.2387   5.2476   5.2629   5.2770   5.2814
  5.2954   5.3149   5.3492   5.3551   5.3798   5.4071   5.4159   5.4216
  5.4265   5.4568   5.4649   5.4843   5.5155   5.5252   5.5426   5.5704
  5.5745   5.5885   5.5908   5.6168   5.6410   5.6662   5.6762   5.6966
  5.7201   5.7389   5.7583   5.7875   5.8549   5.9127   5.9467   5.9871
  6.0577   6.0638   6.0951   6.1482   6.2811   6.3261   6.3924   6.6359
  6.6788   6.7592   6.8053   6.9217   6.9480   6.9856   7.0263   7.0279
  7.0730   7.1223   7.1359   7.1454   7.1940   7.2226   7.2968   7.3097
  7.3195   7.3443   7.3566   7.3795   7.4205   7.4904   7.5216   7.5485
  7.5647   7.6009   7.6718   7.7235   7.7601   7.7757   7.7926   7.8312
  7.8634  24.4504  24.6946  24.7169  24.8644  24.9956  25.0085  25.2449
 50.6250  50.6556  50.6670  50.7153  50.7266
 --------------------------------------------------------------
 
          Ground-State Mulliken Net Atomic Charges

     Atom                 Charge (a.u.)    Spin (a.u.)
  --------------------------------------------------------
      1 C                    -0.018134       0.028667
      2 C                    -0.076547       0.000181
      3 C                    -0.130231       0.003511
      4 C                    -0.283701       0.014508
      5 C                    -0.202629      -0.007898
      6 C                     0.220944       0.027854
      7 C                    -0.277390       0.107532
      8 H                     0.284808      -0.000760
      9 H                     0.214388       0.006218
     10 H                     0.237559      -0.001241
     11 H                     0.288866       0.000881
     12 H                     0.316151      -0.000789
     13 H                     0.260044      -0.001590
     14 O                    -0.331234       0.035980
     15 H                     0.267501      -0.002558
     16 H                     0.350569      -0.000538
     17 O                    -0.406711       0.005730
     18 H                     0.345386      -0.000263
     19 O                    -0.341214       0.026396
     20 O                    -0.275419       0.752205
     21 O                    -0.443009       0.005974
  --------------------------------------------------------
  Sum of atomic charges =     0.000000
  Sum of spin   charges =     1.000000

 -----------------------------------------------------------------
                    Cartesian Multipole Moments
 -----------------------------------------------------------------
    Charge (ESU x 10^10)
                 0.0000
    Dipole Moment (Debye)
         X       5.5506      Y       5.2557      Z      -6.4360
       Tot       9.9927
    Quadrupole Moments (Debye-Ang)
        XX     -98.2281     XY     -20.2321     YY     -85.6111
        XZ      14.3659     YZ       7.1860     ZZ     -68.6565
    Octopole Moments (Debye-Ang^2)
       XXX     332.8924    XXY     124.4331    XYY     148.7810
       YYY     187.9337    XXZ     -55.4246    XYZ     -16.9438
       YYZ     -40.5126    XZZ      98.1398    YZZ      49.6427
       ZZZ    -119.6433
    Hexadecapole Moments (Debye-Ang^3)
      XXXX   -1858.8181   XXXY    -737.8977   XXYY    -730.2659
      XYYY    -683.1714   YYYY   -1317.3513   XXXZ     175.7403
      XXYZ     107.7863   XYYZ     109.8826   YYYZ     239.9939
      XXZZ    -389.8747   XYZZ    -164.7282   YYZZ    -331.0001
      XZZZ     155.9641   YZZZ     195.1759   ZZZZ    -791.0334
 -----------------------------------------------------------------
 Calculating analytic gradient of the SCF energy
 Gradient of CDS energy
            1           2           3           4           5           6
    1   0.0018299  -0.0008134  -0.0021892   0.0002502   0.0000776  -0.0030569
    2  -0.0002902  -0.0006594  -0.0017423  -0.0000984   0.0000731   0.0009342
    3  -0.0013505   0.0016084   0.0007935  -0.0004869  -0.0001621   0.0023513
            7           8           9          10          11          12
    1   0.0016481  -0.0000858   0.0002040   0.0003101   0.0000225   0.0000821
    2   0.0009783   0.0001666   0.0000446   0.0001084  -0.0001420   0.0000071
    3  -0.0017738  -0.0000290  -0.0001991  -0.0001920  -0.0001305  -0.0000050
           13          14          15          16          17          18
    1  -0.0001034  -0.0020062   0.0001477   0.0002100  -0.0018855   0.0004139
    2  -0.0002997  -0.0001937  -0.0000807   0.0000137   0.0003643   0.0001032
    3   0.0000081   0.0015524   0.0002873  -0.0004650   0.0011286  -0.0001953
           19          20          21
    1   0.0008977   0.0030109   0.0010357
    2   0.0003390  -0.0008509   0.0012247
    3  -0.0004431  -0.0021124  -0.0001848
 Gradient of SCF Energy
            1           2           3           4           5           6
    1   0.0025850  -0.0065327  -0.0019885  -0.0164851   0.0005318  -0.0012532
    2  -0.0113609   0.0060882  -0.0013991  -0.0060785   0.0154652  -0.0092605
    3  -0.0090226  -0.0018983   0.0016275   0.0166736  -0.0010511   0.0098560
            7           8           9          10          11          12
    1   0.0211691   0.0013743   0.0063714   0.0015369   0.0021067   0.0123108
    2  -0.0169567   0.0119441  -0.0027004  -0.0026820  -0.0037599   0.0008055
    3  -0.0004241   0.0035296   0.0014921  -0.0056218  -0.0053930  -0.0166458
           13          14          15          16          17          18
    1  -0.0122184  -0.0013563   0.0001443  -0.0026465   0.0029562  -0.0006796
    2  -0.0005052   0.0238200   0.0118275  -0.0185202  -0.0076288   0.0073022
    3  -0.0113602   0.0203897   0.0078521  -0.0193966   0.0120535  -0.0128955
           19          20          21
    1  -0.0034027  -0.0046011   0.0000776
    2  -0.0001089   0.0022870   0.0014215
    3   0.0042653   0.0042461   0.0017234
 Max gradient component =       2.382E-02
 RMS gradient           =       9.331E-03
 Computing fast CPCM-SWIG gradient
 Updating gradient with PCM contributions...
 -- total gradient after adding PCM contribution --
---------------------------------------------------
  Atom         X              Y              Z     
---------------------------------------------------
   1       0.000940      -0.000063      -0.000209
   2      -0.000179       0.000037      -0.000000
   3       0.000038      -0.000030       0.000024
   4      -0.000008       0.000033      -0.000007
   5       0.000007      -0.000020      -0.000060
   6      -0.000270      -0.000117       0.000245
   7       0.000042       0.000179      -0.000202
   8      -0.000072      -0.000034      -0.000004
   9       0.000002       0.000061      -0.000014
  10      -0.000019       0.000029      -0.000006
  11       0.000001      -0.000002       0.000008
  12       0.000008       0.000007      -0.000002
  13       0.000007      -0.000040       0.000010
  14      -0.000039      -0.000039       0.000035
  15       0.000014      -0.000021       0.000001
  16      -0.000002      -0.000014      -0.000014
  17      -0.000458       0.000069       0.000249
  18      -0.000004       0.000016       0.000009
  19      -0.000010      -0.000054       0.000059
  20       0.000023      -0.000028      -0.000121
  21      -0.000019       0.000029      -0.000000
---------------------------------------------------
 Number of fixed atoms: 0
 Gradient time:  CPU 306.99 s  wall 26.19 s
 ----------------------------------------------------------------
             Standard Nuclear Orientation (Angstroms)
    I     Atom           X                Y                Z
 ----------------------------------------------------------------
    1      C       0.1810095448     0.1967824709     0.9647302636
    2      C       0.1091753528    -0.7875720745     2.1131807251
    3      C      -2.9971311863    -2.3126923535     0.6259978300
    4      C      -2.0311187984    -2.1694014829    -0.4700838162
    5      C      -1.2192718630    -1.1321237432    -0.6752667940
    6      C      -1.1264999023     0.1443024723     0.1212513599
    7      C      -1.0748141209     1.3880910072    -0.9047279387
    8      H       0.2375455186     1.1976884914     1.4105677157
    9      H       1.0645196291    -1.2754610146     2.3613575231
   10      H      -3.0190059254    -1.5440535483     1.4041165463
   11      H      -1.9853446744    -3.0157684345    -1.1452526057
   12      H      -0.5219090528    -1.1996165851    -1.5025525809
   13      H      -1.9785980889     1.3455357024    -1.5068567737
   14      O       0.0858609549     1.3666779324    -1.6952974414
   15      H      -1.0550814279     2.2866214554    -0.2965176627
   16      H      -0.0595791536     0.8075142747    -2.4671841923
   17      O       1.3452997799    -0.1220921546     0.2369161777
   18      H       1.3653102779     0.4553101464    -0.5413076926
   19      O      -0.9000546356    -1.0229367183     2.7308095731
   20      O      -2.1904719771     0.4633868272     0.8786925911
   21      O      -3.7470962514    -3.2736151707     0.6918281927
 ----------------------------------------------------------------
 Nuclear Repulsion Energy =         736.65161566 hartrees
 There are       46 alpha and       45 beta electrons
 Discretize the solute cavity surface with Lebedev spheres
	Using 110 Lebedev grid points for each H atom
	Using 194 Lebedev grid points for other atoms
	Atomic van der Waals radii will be scaled by 1.20
 Remove points where switching function is < 1.0e-08
 Keep 1633 surface tesserae and discard 1685 interior tesserae
 Molecular Surface Area = 185.036 Angst**2
 Requested basis set is 6-311++G(2df,2p)
 There are 150 shells and 498 basis functions
 A cutoff of  1.0D-12 yielded   9845 shell pairs
 There are    108050 function pairs (    134693 Cartesian)
 Smallest overlap matrix eigenvalue = 2.68E-06
 Guess MOs from SCF MO coefficient file

 -----------------------------------------------------------------------
  General SCF calculation program by
  Eric Jon Sundstrom, Paul Horn, Yuezhi Mao, Dmitri Zuev, Alec White,
  David Stuck, Shaama M.S., Shane Yost, Joonho Lee, David Small,
  Daniel Levine, Susi Lehtola, Hugh Burton, Evgeny Epifanovsky,
  Bang C. Huynh
 -----------------------------------------------------------------------
 Exchange:     0.1500 Hartree-Fock + 1.0000 wB97M-V + LR-HF
 Correlation:  1.0000 wB97M-V
 Using SG-2 standard quadrature grid
 Nonlocal Correlation:  VV10 with C = 0.0100 and b = 6.00 and scale = 1.00000
 Grid used for NLC:  SG-1 standard quadrature
 
 Citation of the SMD model:
 Marenich, A.V.; Cramer, C.J.; Truhlar, D.G.
 J. Phys. Chem. B 2009, 113, 6378-6396.
 iSolventCode=           1
 Solvent: water                                                           
 
 vradii
            1           2           3           4           5           6
    1   1.8500000   1.8500000   1.8500000   1.8500000   1.8500000   1.8500000
            7           8           9          10          11          12
    1   1.8500000   1.2000000   1.2000000   1.2000000   1.2000000   1.2000000
           13          14          15          16          17          18
    1   1.2000000   1.5200000   1.2000000   1.2000000   1.5200000   1.2000000
           19          20          21
    1   1.5200000   1.5200000   1.5200000
 -------------------------------------------------------
 OpenMP BLAS3 based DFT computing Module                
 Release: version 1.0, May 2013, Q-Chem Inc. Pittsburgh 
 -------------------------------------------------------
 A unrestricted SCF calculation will be
 performed using Roothaan-Hall, DIIS, GDM
 SCF converges when RMS gradient is below 1.0e-07
 ---------------------------------------
  Cycle       Energy         DIIS error
 ---------------------------------------
    1    -648.1380894476      2.13e-04  Roothaan Step
 ---------------------------------------
  Cycle       Energy         DIIS error
 ---------------------------------------
    1    -648.1765748364      2.82e-04  
    2    -648.1808918670      3.41e-04  Done DIIS. Switching to GDM
 ---------------------------------------
  Cycle       Energy        RMS Gradient
 ---------------------------------------
    1    -648.1808918670      2.56e-02   Normal BFGS step
    2    -648.1757594911      4.22e-02  Line search: overstep
    3    -648.1905382387      4.40e-03   Normal BFGS step
    4    -648.1908668834      3.53e-03   Normal BFGS step
    5    -648.1909345496      5.64e-04   Normal BFGS step
    6    -648.1909547200      7.07e-04   Normal BFGS step
    7    -648.1909570217      3.72e-04   Normal BFGS step
    8    -648.1909578716      2.46e-04   Normal BFGS step
    9    -648.1909581155      9.49e-05   Normal BFGS step
   10    -648.1909581809      6.75e-05   Normal BFGS step
   11    -648.1909582125      4.93e-05   Normal BFGS step
   12    -648.1909582247      4.86e-05   Normal BFGS step
   13    -648.1909582384      4.52e-05   Normal BFGS step
   14    -648.1909582572      3.45e-05   Normal BFGS step
   15    -648.1909582735      2.06e-05   Normal BFGS step
   16    -648.1909582779      9.01e-06   Normal BFGS step
   17    -648.1909582795      6.81e-06   Normal BFGS step
   18    -648.1909582799      5.32e-06   Normal BFGS step
   19    -648.1909582801      2.38e-06   Normal BFGS step
   20    -648.1909582801      1.22e-06   Normal BFGS step
   21    -648.1909582802      6.28e-07   Normal BFGS step
   22    -648.1909582802      2.02e-07   Normal BFGS step
   23    -648.1909582802      1.44e-07   Normal BFGS step
  GDM::WARNING energy changes are now smaller than effective accuracy.
  GDM::        calculation will continue, but THRESH should be increased
  GDM::        or SCF_CONVERGENCE decreased. 
  GDM::        effective_thresh = 4.12e-09
   24    -648.1909582803      7.19e-08  Convergence criterion met
 ---------------------------------------
 SCF time:   CPU 2979.20s  wall 204.00s 
<S^2> =          0.755860326
(3)  G-ENP(liq) elect-nuc-pol free energy of system     -648.190958280 a.u.
(4)  G-CDS(liq) cavity-dispersion-solvent structure 
     free energy                                                6.4151 kcal/mol
(6)  G-S(liq) free energy of system                     -648.180735234 a.u.
 SCF   energy in the final basis set =     -648.1807352338
 Total energy in the final basis set =     -648.1807352338
 
 --------------------------------------------------------------
 
                    Orbital Energies (a.u.)
 --------------------------------------------------------------
 
 Alpha MOs
 -- Occupied --
-19.3827 -19.3650 -19.3583 -19.3486 -19.3409 -10.4490 -10.4377 -10.4326
-10.4197 -10.4186 -10.3744 -10.3572  -1.2113  -1.1945  -1.1853  -1.1768
 -1.1699  -0.9402  -0.8900  -0.8455  -0.7904  -0.7415  -0.7071  -0.6723
 -0.6597  -0.6344  -0.6248  -0.6107  -0.5897  -0.5780  -0.5697  -0.5575
 -0.5555  -0.5250  -0.5201  -0.5188  -0.5068  -0.4925  -0.4813  -0.4582
 -0.4385  -0.4099  -0.3950  -0.3834  -0.3690  -0.3558
 -- Virtual --
  0.0075   0.0243   0.0370   0.0375   0.0395   0.0415   0.0572   0.0611
  0.0672   0.0732   0.0760   0.1010   0.1019   0.1059   0.1090   0.1169
  0.1227   0.1300   0.1381   0.1454   0.1547   0.1572   0.1605   0.1651
  0.1673   0.1708   0.1756   0.1789   0.1830   0.1872   0.1876   0.1970
  0.2012   0.2082   0.2137   0.2255   0.2274   0.2340   0.2584   0.2604
  0.2694   0.2724   0.2837   0.2896   0.2903   0.3018   0.3068   0.3096
  0.3193   0.3216   0.3242   0.3350   0.3373   0.3403   0.3462   0.3544
  0.3592   0.3602   0.3691   0.3701   0.3762   0.3769   0.3867   0.3906
  0.4000   0.4062   0.4078   0.4106   0.4163   0.4336   0.4364   0.4432
  0.4634   0.4723   0.4842   0.4928   0.4960   0.5204   0.5338   0.5403
  0.5666   0.5786   0.5912   0.5974   0.6086   0.6116   0.6285   0.6301
  0.6428   0.6490   0.6505   0.6664   0.6691   0.6739   0.6832   0.6869
  0.7014   0.7027   0.7097   0.7175   0.7293   0.7417   0.7439   0.7464
  0.7617   0.7767   0.7805   0.7946   0.8114   0.8127   0.8265   0.8428
  0.8552   0.8599   0.8759   0.8818   0.9011   0.9198   0.9237   0.9323
  0.9573   0.9825   0.9986   1.0239   1.0337   1.0402   1.0489   1.0552
  1.0772   1.0817   1.0891   1.1023   1.1216   1.1330   1.1407   1.1492
  1.1527   1.1637   1.1671   1.1766   1.1909   1.1962   1.2104   1.2151
  1.2197   1.2311   1.2390   1.2555   1.2569   1.2714   1.2762   1.2814
  1.2895   1.2963   1.3067   1.3268   1.3377   1.3502   1.3557   1.3622
  1.3865   1.3917   1.3993   1.4215   1.4332   1.4408   1.4542   1.4619
  1.4692   1.4888   1.5013   1.5036   1.5151   1.5306   1.5453   1.5492
  1.5743   1.5933   1.6022   1.6072   1.6197   1.6349   1.6419   1.6597
  1.6720   1.6860   1.6949   1.7054   1.7242   1.7480   1.7589   1.7843
  1.8193   1.8365   1.8431   1.8735   1.8824   1.9172   1.9258   1.9420
  1.9657   1.9832   2.0009   2.0529   2.0700   2.0875   2.1035   2.1175
  2.1468   2.1813   2.1890   2.2334   2.2722   2.2893   2.3654   2.3838
  2.4053   2.4230   2.4492   2.5059   2.5101   2.5676   2.5963   2.6106
  2.6552   2.6681   2.6764   2.6827   2.7025   2.7141   2.7721   2.7900
  2.8149   2.8175   2.8334   2.8511   2.8579   2.8812   2.8884   2.9071
  2.9221   2.9372   2.9543   2.9658   2.9764   3.0039   3.0155   3.0303
  3.0401   3.0751   3.0845   3.1019   3.1310   3.1519   3.1528   3.1783
  3.1839   3.1973   3.2032   3.2201   3.2428   3.2483   3.2725   3.2806
  3.2960   3.3074   3.3263   3.3530   3.3665   3.3684   3.3906   3.3964
  3.4127   3.4281   3.4359   3.4715   3.4755   3.5024   3.5128   3.5171
  3.5341   3.5513   3.5699   3.5813   3.6052   3.6185   3.6297   3.6438
  3.6508   3.6591   3.6740   3.6886   3.6997   3.7100   3.7263   3.7304
  3.7759   3.7989   3.8076   3.8211   3.8425   3.8514   3.8658   3.8755
  3.8838   3.8944   3.9149   3.9274   3.9489   3.9681   3.9732   3.9892
  3.9980   4.0294   4.0685   4.0843   4.0974   4.1092   4.1241   4.1498
  4.1874   4.1977   4.2039   4.2279   4.2371   4.2453   4.2702   4.2775
  4.2992   4.3146   4.3331   4.3395   4.3692   4.3906   4.4381   4.4462
  4.4716   4.4863   4.4893   4.5190   4.5301   4.5486   4.5830   4.6088
  4.6346   4.6520   4.6903   4.7266   4.7432   4.7531   4.8625   4.8875
  4.8999   4.9830   5.0443   5.1275   5.1422   5.1510   5.1643   5.1838
  5.1860   5.1924   5.2359   5.2434   5.2545   5.2727   5.2765   5.2889
  5.3118   5.3414   5.3485   5.3529   5.3837   5.4046   5.4102   5.4198
  5.4398   5.4447   5.4615   5.4971   5.5169   5.5361   5.5672   5.5714
  5.5779   5.5875   5.6099   5.6386   5.6594   5.6738   5.6933   5.7164
  5.7274   5.7513   5.7831   5.8525   5.9094   5.9367   5.9823   6.0539
  6.0599   6.0808   6.1162   6.2708   6.3257   6.3911   6.6300   6.6745
  6.7579   6.8008   6.9066   6.9429   6.9698   6.9886   7.0105   7.0228
  7.0713   7.1147   7.1419   7.1930   7.2190   7.2942   7.3067   7.3177
  7.3424   7.3538   7.3750   7.4189   7.4748   7.4889   7.5306   7.5485
  7.5690   7.6679   7.7213   7.7592   7.7737   7.7756   7.8095   7.8580
 24.4504  24.6920  24.7144  24.8661  24.9958  25.0085  25.2448  50.6231
 50.6524  50.6570  50.7151  50.7251
 
 Beta MOs
 -- Occupied --
-19.3637 -19.3628 -19.3573 -19.3484 -19.3407 -10.4491 -10.4376 -10.4329
-10.4179 -10.4168 -10.3743 -10.3570  -1.2078  -1.1897  -1.1849  -1.1693
 -1.1410  -0.9355  -0.8839  -0.8386  -0.7880  -0.7376  -0.7052  -0.6662
 -0.6550  -0.6323  -0.6194  -0.6044  -0.5859  -0.5728  -0.5658  -0.5520
 -0.5428  -0.5212  -0.5176  -0.5129  -0.5050  -0.4853  -0.4588  -0.4297
 -0.4142  -0.3890  -0.3833  -0.3792  -0.3602
 -- Virtual --
 -0.0744   0.0093   0.0246   0.0375   0.0378   0.0398   0.0418   0.0573
  0.0616   0.0674   0.0732   0.0764   0.1013   0.1020   0.1062   0.1091
  0.1174   0.1230   0.1301   0.1386   0.1456   0.1553   0.1582   0.1610
  0.1655   0.1674   0.1708   0.1759   0.1791   0.1835   0.1876   0.1884
  0.1972   0.2018   0.2088   0.2141   0.2257   0.2280   0.2348   0.2588
  0.2619   0.2699   0.2740   0.2862   0.2907   0.2911   0.3033   0.3076
  0.3134   0.3203   0.3228   0.3301   0.3369   0.3376   0.3410   0.3469
  0.3552   0.3599   0.3608   0.3708   0.3715   0.3774   0.3781   0.3877
  0.3916   0.4011   0.4080   0.4103   0.4126   0.4177   0.4355   0.4383
  0.4451   0.4661   0.4737   0.4850   0.4940   0.4988   0.5218   0.5348
  0.5409   0.5681   0.5795   0.5928   0.5984   0.6097   0.6124   0.6296
  0.6310   0.6440   0.6500   0.6511   0.6669   0.6701   0.6748   0.6848
  0.6879   0.7022   0.7032   0.7110   0.7198   0.7302   0.7429   0.7461
  0.7472   0.7629   0.7774   0.7814   0.7951   0.8120   0.8145   0.8270
  0.8446   0.8558   0.8611   0.8766   0.8827   0.9020   0.9201   0.9243
  0.9333   0.9594   0.9833   0.9993   1.0262   1.0356   1.0406   1.0504
  1.0570   1.0784   1.0827   1.0917   1.1050   1.1245   1.1335   1.1419
  1.1511   1.1557   1.1661   1.1686   1.1782   1.1920   1.1976   1.2144
  1.2179   1.2215   1.2327   1.2415   1.2562   1.2588   1.2737   1.2778
  1.2832   1.2931   1.2987   1.3082   1.3286   1.3389   1.3519   1.3572
  1.3634   1.3880   1.3952   1.4028   1.4272   1.4345   1.4447   1.4562
  1.4630   1.4714   1.4906   1.5030   1.5059   1.5168   1.5329   1.5471
  1.5511   1.5760   1.5945   1.6047   1.6104   1.6233   1.6368   1.6439
  1.6625   1.6749   1.6871   1.6968   1.7069   1.7290   1.7524   1.7648
  1.7899   1.8207   1.8409   1.8464   1.8768   1.8895   1.9229   1.9353
  1.9516   1.9700   1.9917   2.0039   2.0577   2.0775   2.0909   2.1114
  2.1200   2.1498   2.1837   2.1923   2.2386   2.2771   2.2946   2.3670
  2.3875   2.4092   2.4242   2.4511   2.5068   2.5121   2.5689   2.6013
  2.6163   2.6569   2.6688   2.6779   2.6866   2.7040   2.7173   2.7740
  2.7922   2.8187   2.8199   2.8351   2.8526   2.8596   2.8818   2.8900
  2.9083   2.9243   2.9387   2.9556   2.9674   2.9782   3.0055   3.0167
  3.0319   3.0420   3.0764   3.0852   3.1046   3.1336   3.1541   3.1545
  3.1803   3.1855   3.2012   3.2055   3.2216   3.2442   3.2510   3.2748
  3.2836   3.2980   3.3087   3.3283   3.3549   3.3687   3.3700   3.3922
  3.3980   3.4142   3.4291   3.4377   3.4739   3.4765   3.5049   3.5142
  3.5190   3.5372   3.5523   3.5717   3.5848   3.6068   3.6210   3.6331
  3.6457   3.6543   3.6617   3.6771   3.6907   3.7006   3.7146   3.7275
  3.7340   3.7782   3.8015   3.8097   3.8229   3.8432   3.8530   3.8666
  3.8775   3.8860   3.8967   3.9176   3.9289   3.9524   3.9700   3.9758
  3.9913   4.0013   4.0306   4.0714   4.0890   4.0992   4.1107   4.1273
  4.1520   4.1899   4.1999   4.2070   4.2299   4.2395   4.2472   4.2710
  4.2785   4.3006   4.3158   4.3349   4.3413   4.3718   4.3921   4.4404
  4.4483   4.4731   4.4877   4.4916   4.5210   4.5314   4.5503   4.5844
  4.6115   4.6362   4.6563   4.6923   4.7291   4.7455   4.7550   4.8649
  4.8901   4.9025   4.9860   5.0478   5.1318   5.1541   5.1759   5.1856
  5.1925   5.2062   5.2269   5.2387   5.2478   5.2630   5.2770   5.2813
  5.2953   5.3150   5.3491   5.3551   5.3798   5.4072   5.4159   5.4218
  5.4267   5.4567   5.4650   5.4843   5.5158   5.5251   5.5428   5.5704
  5.5746   5.5886   5.5903   5.6165   5.6408   5.6652   5.6761   5.6965
  5.7196   5.7387   5.7583   5.7875   5.8549   5.9127   5.9467   5.9847
  6.0560   6.0638   6.0950   6.1482   6.2810   6.3261   6.3921   6.6337
  6.6784   6.7591   6.8035   6.9217   6.9480   6.9856   7.0263   7.0279
  7.0730   7.1223   7.1358   7.1452   7.1940   7.2225   7.2967   7.3097
  7.3195   7.3442   7.3565   7.3794   7.4198   7.4904   7.5216   7.5485
  7.5649   7.6010   7.6719   7.7230   7.7601   7.7756   7.7927   7.8311
  7.8632  24.4505  24.6947  24.7149  24.8659  24.9959  25.0085  25.2449
 50.6250  50.6551  50.6670  50.7152  50.7266
 --------------------------------------------------------------
 
          Ground-State Mulliken Net Atomic Charges

     Atom                 Charge (a.u.)    Spin (a.u.)
  --------------------------------------------------------
      1 C                    -0.018150       0.028343
      2 C                    -0.077171       0.000182
      3 C                    -0.130150       0.003531
      4 C                    -0.283954       0.014456
      5 C                    -0.202012      -0.007767
      6 C                     0.221104       0.027901
      7 C                    -0.277362       0.107536
      8 H                     0.284959      -0.000733
      9 H                     0.214581       0.006187
     10 H                     0.237540      -0.001242
     11 H                     0.288875       0.000888
     12 H                     0.316239      -0.000788
     13 H                     0.260058      -0.001596
     14 O                    -0.331212       0.036002
     15 H                     0.267534      -0.002558
     16 H                     0.350575      -0.000538
     17 O                    -0.407544       0.005624
     18 H                     0.345259      -0.000258
     19 O                    -0.341149       0.026353
     20 O                    -0.275058       0.752515
     21 O                    -0.442961       0.005963
  --------------------------------------------------------
  Sum of atomic charges =     0.000000
  Sum of spin   charges =     1.000000

 -----------------------------------------------------------------
                    Cartesian Multipole Moments
 -----------------------------------------------------------------
    Charge (ESU x 10^10)
                 0.0000
    Dipole Moment (Debye)
         X       5.5387      Y       5.2547      Z      -6.4338
       Tot       9.9842
    Quadrupole Moments (Debye-Ang)
        XX     -98.2238     XY     -20.2289     YY     -85.5982
        XZ      14.3643     YZ       7.1850     ZZ     -68.6496
    Octopole Moments (Debye-Ang^2)
       XXX     332.8609    XXY     124.4114    XYY     148.7621
       YYY     187.9151    XXZ     -55.4170    XYZ     -16.9483
       YYZ     -40.5060    XZZ      98.1463    YZZ      49.6396
       ZZZ    -119.6355
    Hexadecapole Moments (Debye-Ang^3)
      XXXX   -1858.6941   XXXY    -737.8205   XXYY    -730.1764
      XYYY    -683.1048   YYYY   -1317.2280   XXXZ     175.7401
      XXYZ     107.7748   XYYZ     109.8970   YYYZ     239.9886
      XXZZ    -389.8486   XYZZ    -164.7332   YYZZ    -330.9696
      XZZZ     156.0201   YZZZ     195.1714   ZZZZ    -791.0042
 -----------------------------------------------------------------
 Calculating analytic gradient of the SCF energy
 Gradient of CDS energy
            1           2           3           4           5           6
    1   0.0015144  -0.0008125  -0.0021892   0.0002502   0.0000778  -0.0030562
    2  -0.0002042  -0.0006593  -0.0017423  -0.0000984   0.0000730   0.0009342
    3  -0.0011526   0.0016078   0.0007935  -0.0004869  -0.0001620   0.0023516
            7           8           9          10          11          12
    1   0.0016482  -0.0000853   0.0002043   0.0003101   0.0000225   0.0000823
    2   0.0009784   0.0001671   0.0000446   0.0001084  -0.0001420   0.0000071
    3  -0.0017738  -0.0000288  -0.0001994  -0.0001920  -0.0001305  -0.0000050
           13          14          15          16          17          18
    1  -0.0001034  -0.0020062   0.0001477   0.0002100  -0.0015740   0.0004151
    2  -0.0002998  -0.0001937  -0.0000807   0.0000137   0.0002774   0.0001033
    3   0.0000081   0.0015523   0.0002873  -0.0004650   0.0009310  -0.0001953
           19          20          21
    1   0.0008977   0.0030108   0.0010357
    2   0.0003391  -0.0008508   0.0012247
    3  -0.0004431  -0.0021124  -0.0001848
 Gradient of SCF Energy
            1           2           3           4           5           6
    1   0.0005838  -0.0062296  -0.0019705  -0.0164863   0.0005588  -0.0010045
    2  -0.0111901   0.0060813  -0.0013847  -0.0060998   0.0155244  -0.0092681
    3  -0.0087262  -0.0018700   0.0016209   0.0166806  -0.0010087   0.0099850
            7           8           9          10          11          12
    1   0.0211862   0.0015638   0.0063619   0.0015367   0.0021036   0.0123028
    2  -0.0169777   0.0120258  -0.0027820  -0.0026748  -0.0037689   0.0007985
    3  -0.0003734   0.0035653   0.0015488  -0.0056134  -0.0053982  -0.0166470
           13          14          15          16          17          18
    1  -0.0122244  -0.0013151   0.0001389  -0.0026513   0.0039414  -0.0006656
    2  -0.0005028   0.0238028   0.0118365  -0.0185125  -0.0078428   0.0073011
    3  -0.0113693   0.0203844   0.0078578  -0.0193960   0.0115346  -0.0128927
           19          20          21
    1  -0.0034006  -0.0043930   0.0000631
    2  -0.0000192   0.0022528   0.0014001
    3   0.0041529   0.0042415   0.0017230
 Max gradient component =       2.380E-02
 RMS gradient           =       9.316E-03
 Computing fast CPCM-SWIG gradient
 Updating gradient with PCM contributions...
 -- total gradient after adding PCM contribution --
---------------------------------------------------
  Atom         X              Y              Z     
---------------------------------------------------
   1      -0.001032       0.000072       0.000113
   2       0.000120       0.000026       0.000021
   3       0.000052      -0.000015       0.000023
   4      -0.000018       0.000016      -0.000004
   5       0.000030       0.000023      -0.000015
   6      -0.000019      -0.000090       0.000378
   7       0.000065       0.000159      -0.000150
   8       0.000093       0.000051       0.000025
   9      -0.000001      -0.000017       0.000037
  10      -0.000018       0.000025      -0.000009
  11      -0.000002      -0.000004       0.000008
  12       0.000010       0.000002      -0.000004
  13       0.000009      -0.000038       0.000005
  14      -0.000015      -0.000044       0.000029
  15       0.000012      -0.000018      -0.000001
  16      -0.000000      -0.000013      -0.000014
  17       0.000497      -0.000150      -0.000237
  18       0.000028       0.000024      -0.000019
  19      -0.000006       0.000036      -0.000057
  20       0.000223      -0.000061      -0.000128
  21      -0.000030       0.000015      -0.000001
---------------------------------------------------
 Number of fixed atoms: 0
 Gradient time:  CPU 313.32 s  wall 26.44 s
 ----------------------------------------------------------------
             Standard Nuclear Orientation (Angstroms)
    I     Atom           X                Y                Z
 ----------------------------------------------------------------
    1      C       0.1820095448     0.1977824709     0.9647302636
    2      C       0.1091753528    -0.7875720745     2.1131807251
    3      C      -2.9971311863    -2.3126923535     0.6259978300
    4      C      -2.0311187984    -2.1694014829    -0.4700838162
    5      C      -1.2192718630    -1.1321237432    -0.6752667940
    6      C      -1.1264999023     0.1443024723     0.1212513599
    7      C      -1.0748141209     1.3880910072    -0.9047279387
    8      H       0.2375455186     1.1976884914     1.4105677157
    9      H       1.0645196291    -1.2754610146     2.3613575231
   10      H      -3.0190059254    -1.5440535483     1.4041165463
   11      H      -1.9853446744    -3.0157684345    -1.1452526057
   12      H      -0.5219090528    -1.1996165851    -1.5025525809
   13      H      -1.9785980889     1.3455357024    -1.5068567737
   14      O       0.0858609549     1.3666779324    -1.6952974414
   15      H      -1.0550814279     2.2866214554    -0.2965176627
   16      H      -0.0595791536     0.8075142747    -2.4671841923
   17      O       1.3452997799    -0.1220921546     0.2369161777
   18      H       1.3653102779     0.4553101464    -0.5413076926
   19      O      -0.9000546356    -1.0229367183     2.7308095731
   20      O      -2.1904719771     0.4633868272     0.8786925911
   21      O      -3.7470962514    -3.2736151707     0.6918281927
 ----------------------------------------------------------------
 Nuclear Repulsion Energy =         736.63374717 hartrees
 There are       46 alpha and       45 beta electrons
 Discretize the solute cavity surface with Lebedev spheres
	Using 110 Lebedev grid points for each H atom
	Using 194 Lebedev grid points for other atoms
	Atomic van der Waals radii will be scaled by 1.20
 Remove points where switching function is < 1.0e-08
 Keep 1634 surface tesserae and discard 1684 interior tesserae
 Molecular Surface Area = 185.035 Angst**2
 Requested basis set is 6-311++G(2df,2p)
 There are 150 shells and 498 basis functions
 A cutoff of  1.0D-12 yielded   9845 shell pairs
 There are    108050 function pairs (    134693 Cartesian)
 Smallest overlap matrix eigenvalue = 2.68E-06
 Guess MOs from SCF MO coefficient file

 -----------------------------------------------------------------------
  General SCF calculation program by
  Eric Jon Sundstrom, Paul Horn, Yuezhi Mao, Dmitri Zuev, Alec White,
  David Stuck, Shaama M.S., Shane Yost, Joonho Lee, David Small,
  Daniel Levine, Susi Lehtola, Hugh Burton, Evgeny Epifanovsky,
  Bang C. Huynh
 -----------------------------------------------------------------------
 Exchange:     0.1500 Hartree-Fock + 1.0000 wB97M-V + LR-HF
 Correlation:  1.0000 wB97M-V
 Using SG-2 standard quadrature grid
[...]
 C         -0.016  0.002  0.016    0.003  0.004  0.003    0.010  0.003 -0.005
 C          0.024  0.012 -0.015   -0.013 -0.016  0.001   -0.016 -0.045 -0.019
 C         -0.041  0.068  0.082   -0.020 -0.034 -0.028   -0.049  0.029  0.042
 C         -0.121 -0.029  0.049   -0.040  0.020  0.034   -0.035 -0.008  0.016
 H          0.156 -0.175  0.310   -0.463 -0.156  0.579    0.538 -0.093  0.027
 H         -0.014 -0.130 -0.128   -0.010 -0.068 -0.101   -0.021 -0.081 -0.021
 H          0.013 -0.021 -0.043    0.006  0.013  0.009    0.001  0.031  0.034
 H         -0.329 -0.230  0.278    0.180  0.138 -0.148    0.454  0.321 -0.367
 H          0.040  0.176 -0.013   -0.011 -0.070  0.009   -0.109 -0.424 -0.068
 H         -0.013  0.200 -0.131   -0.167 -0.106  0.228   -0.095 -0.042  0.109
 O          0.118  0.006 -0.065    0.031 -0.008 -0.017    0.035  0.002 -0.016
 H         -0.241 -0.224  0.337    0.026  0.117 -0.111    0.018 -0.022  0.030
 H         -0.321 -0.140  0.112    0.189  0.048 -0.087   -0.000  0.027 -0.031
 O         -0.008  0.015  0.002    0.045 -0.025 -0.060   -0.037  0.031  0.039
 H          0.214 -0.103 -0.071    0.333 -0.142 -0.130    0.019 -0.025  0.004
 O         -0.007 -0.006 -0.007   -0.007 -0.005 -0.003   -0.001 -0.004 -0.003
 O          0.047 -0.014 -0.036    0.004  0.004  0.002    0.020 -0.004 -0.014
 O         -0.008 -0.003  0.007    0.005  0.003 -0.003    0.012  0.007 -0.008
 TransDip  -0.164 -0.039  0.210   -0.023 -0.064  0.065   -0.037 -0.137  0.011

 Mode:                37                     38                     39
 Frequency:      1298.27                1334.13                1361.12
 Force Cnst:      2.1948                 1.9350                 1.3214
 Red. Mass:       2.2101                 1.8452                 1.2106
 IR Active:          YES                    YES                    YES
 IR Intens:      261.815                 58.387                 45.781
 Raman Active:       YES                    YES                    YES
               X      Y      Z        X      Y      Z        X      Y      Z
 C         -0.144  0.028  0.099   -0.187  0.073  0.023    0.018 -0.006  0.008
 C          0.006 -0.057 -0.003    0.029 -0.049  0.053   -0.007  0.010 -0.013
 C         -0.011  0.007  0.020    0.002 -0.006 -0.010    0.002  0.004  0.003
 C          0.004 -0.010 -0.010   -0.008  0.005  0.015    0.015 -0.004 -0.021
 C          0.007 -0.024 -0.024   -0.014  0.005  0.007    0.004  0.022  0.014
 C         -0.045  0.130  0.106    0.035 -0.083 -0.068    0.007  0.018 -0.036
 C         -0.023 -0.045 -0.012    0.020  0.041  0.001    0.023  0.063 -0.089
 H         -0.418  0.230 -0.339    0.708 -0.048  0.159   -0.063  0.016 -0.027
 H          0.152  0.194 -0.078    0.249  0.173 -0.319   -0.078 -0.060  0.113
 H         -0.010  0.010  0.023    0.038  0.012 -0.028   -0.043 -0.024  0.028
 H          0.154  0.105 -0.145   -0.031 -0.024  0.053   -0.080 -0.064  0.045
 H         -0.095 -0.363 -0.087    0.082  0.260  0.073   -0.053 -0.119 -0.026
 H          0.006  0.115 -0.064   -0.011 -0.177  0.069   -0.289 -0.495  0.423
 O          0.030  0.014 -0.007   -0.012 -0.013 -0.001    0.022 -0.010  0.010
 H          0.004 -0.149  0.138   -0.048 -0.020  0.089   -0.057 -0.355  0.519
 H         -0.239 -0.029  0.067    0.127  0.005 -0.039   -0.102 -0.037  0.047
 O          0.130 -0.061 -0.061    0.084 -0.020 -0.029   -0.005 -0.001  0.001
 H         -0.327  0.218  0.109   -0.195  0.113  0.053   -0.035  0.009  0.011
 O         -0.007  0.018 -0.007   -0.027  0.017 -0.011    0.011 -0.002 -0.001
 O          0.045 -0.017 -0.028   -0.011  0.007  0.017   -0.021  0.005  0.017
 O          0.005  0.003 -0.004   -0.000  0.000  0.001   -0.003 -0.002  0.002
 TransDip  -0.466  0.114  0.197   -0.208 -0.063  0.113    0.092  0.095 -0.172

 Mode:                40                     41                     42
 Frequency:      1386.99                1392.72                1398.30
 Force Cnst:      1.3969                 1.4409                 1.3642
 Red. Mass:       1.2324                 1.2608                 1.1842
 IR Active:          YES                    YES                    YES
 IR Intens:       42.358                144.220                 63.411
 Raman Active:       YES                    YES                    YES
               X      Y      Z        X      Y      Z        X      Y      Z
 C         -0.045  0.038 -0.043    0.053 -0.042  0.033    0.019 -0.004 -0.014
 C         -0.009  0.034 -0.022    0.004 -0.023  0.010    0.004 -0.008  0.010
 C         -0.015  0.006  0.023   -0.023  0.017  0.043    0.013 -0.005 -0.020
 C         -0.035 -0.010  0.036   -0.044 -0.016  0.042    0.019  0.002 -0.021
 C          0.008 -0.020 -0.026    0.022 -0.017 -0.031   -0.009  0.004  0.008
 C          0.013  0.017  0.015   -0.001  0.034  0.005    0.004  0.018  0.019
 C          0.009  0.017  0.022    0.006  0.020 -0.001    0.012  0.049  0.056
 H         -0.039 -0.043  0.150   -0.099  0.061 -0.184   -0.087  0.001 -0.004
 H         -0.346 -0.344  0.474    0.239  0.248 -0.320    0.072  0.061 -0.100
 H          0.300  0.225 -0.177    0.473  0.366 -0.276   -0.264 -0.199  0.156
 H          0.112  0.081 -0.067    0.136  0.101 -0.093   -0.028 -0.024  0.007
 H          0.094  0.216  0.026    0.100  0.238  0.011   -0.057 -0.220 -0.015
 H          0.126 -0.011 -0.140    0.018 -0.043 -0.013    0.230  0.016 -0.253
 O         -0.019 -0.014 -0.016   -0.006 -0.013 -0.009   -0.042 -0.039 -0.037
 H         -0.121 -0.073  0.163   -0.144 -0.115  0.208   -0.361 -0.128  0.346
 H          0.188  0.014 -0.072    0.134 -0.005 -0.039    0.568  0.094 -0.240
 O          0.029 -0.029  0.004   -0.030  0.023 -0.001   -0.006 -0.001  0.005
 H         -0.290  0.148  0.108    0.227 -0.119 -0.085    0.005 -0.002  0.001
 O          0.046 -0.009 -0.007   -0.032  0.006  0.006   -0.010  0.001  0.002
 O          0.001 -0.002 -0.002   -0.003 -0.002  0.001    0.000  0.001 -0.002
 O         -0.004 -0.020 -0.014   -0.011 -0.038 -0.022    0.007  0.021  0.011
 TransDip  -0.166  0.126  0.003    0.357  0.119 -0.080    0.245  0.013 -0.071

 Mode:                43                     44                     45
 Frequency:      1434.20                1452.04                1487.30
 Force Cnst:      1.9833                 1.8460                 1.5047
 Red. Mass:       1.6365                 1.4860                 1.1545
 IR Active:          YES                    YES                    YES
 IR Intens:        8.068                 11.605                 11.789
 Raman Active:       YES                    YES                    YES
               X      Y      Z        X      Y      Z        X      Y      Z
 C         -0.100 -0.064  0.163    0.038  0.004 -0.033   -0.008 -0.011  0.026
 C         -0.036  0.034 -0.057    0.008 -0.009  0.009   -0.004  0.003 -0.006
 C          0.006 -0.011 -0.018    0.019 -0.034 -0.060   -0.000 -0.001 -0.000
 C         -0.016 -0.001  0.017   -0.078 -0.014  0.081   -0.000 -0.002 -0.001
 C         -0.007 -0.024 -0.011   -0.007 -0.099 -0.055   -0.000  0.001  0.002
 C          0.005  0.008 -0.008    0.012  0.048  0.012    0.003  0.006 -0.012
 C          0.005  0.003 -0.002    0.007  0.003 -0.022   -0.094  0.033  0.044
 H          0.295  0.123 -0.357   -0.136 -0.001  0.018    0.018  0.021 -0.053
 H         -0.245 -0.132  0.318    0.064  0.044 -0.074   -0.018 -0.003  0.022
 H         -0.128 -0.107  0.069   -0.378 -0.329  0.201   -0.003 -0.003  0.001
 H          0.071  0.053 -0.042    0.306  0.230 -0.187   -0.007 -0.002 -0.001
 H          0.050  0.133  0.028    0.219  0.589  0.081   -0.002 -0.011  0.002
 H         -0.027  0.122  0.030   -0.029 -0.086  0.040    0.257 -0.487 -0.422
 O          0.000 -0.008 -0.002    0.002  0.004  0.006    0.007  0.006 -0.010
 H         -0.179 -0.007  0.026    0.049 -0.068  0.079    0.683 -0.056  0.132
 H          0.073 -0.005 -0.016   -0.098 -0.050  0.063    0.012  0.013 -0.013
 O          0.013  0.040 -0.046   -0.011 -0.006  0.012   -0.001  0.006 -0.006
 H          0.553 -0.258 -0.217   -0.106  0.045  0.042    0.105 -0.042 -0.036
 O          0.045 -0.001 -0.009   -0.012  0.000  0.003    0.004  0.000 -0.001
 O          0.011 -0.001 -0.002   -0.002 -0.003 -0.001    0.001  0.000  0.000
 O          0.009  0.018  0.005    0.031  0.057  0.014    0.001  0.001  0.000
 TransDip  -0.084 -0.032  0.014    0.026 -0.027 -0.102   -0.010 -0.095  0.054

 Mode:                46                     47                     48
 Frequency:      1702.71                1721.50                1790.00
 Force Cnst:     16.4293                12.2461                20.3235
 Red. Mass:       9.6180                 7.0134                10.7657
 IR Active:          YES                    YES                    YES
 IR Intens:      315.016                562.862                288.897
 Raman Active:       YES                    YES                    YES
               X      Y      Z        X      Y      Z        X      Y      Z
 C          0.001  0.001  0.001   -0.012  0.003 -0.001   -0.052 -0.008  0.031
 C          0.002  0.000 -0.003   -0.023 -0.004  0.016    0.583  0.172 -0.411
 C          0.340  0.414 -0.047    0.245  0.276 -0.066    0.014  0.014 -0.004
 C          0.205  0.239 -0.074   -0.287 -0.312  0.109   -0.017 -0.019  0.005
 C         -0.222 -0.335  0.016    0.221  0.326 -0.026    0.013  0.023  0.000
 C          0.026  0.058  0.019   -0.015 -0.057 -0.015    0.000 -0.002  0.001
 C          0.001  0.009 -0.002   -0.006 -0.011  0.006   -0.000  0.002 -0.001
 H         -0.015  0.012 -0.014    0.043 -0.019  0.026    0.078  0.025 -0.036
 H         -0.002 -0.001  0.002   -0.017 -0.000 -0.006    0.136 -0.287  0.303
 H         -0.159  0.073  0.260   -0.298 -0.149  0.289   -0.021 -0.012  0.020
 H          0.018  0.155  0.113    0.294  0.019 -0.304    0.008 -0.008 -0.010
 H          0.001  0.308  0.210    0.032 -0.222 -0.195   -0.003 -0.028 -0.010
 H          0.001 -0.023  0.001    0.001  0.021 -0.007    0.013  0.003 -0.018
 O         -0.001 -0.000  0.001    0.003  0.002 -0.002   -0.000 -0.000 -0.001
 H          0.013 -0.003  0.021    0.009  0.019 -0.045   -0.002 -0.003  0.009
 H         -0.005 -0.010  0.009   -0.009 -0.004  0.003    0.002  0.000 -0.002
 O          0.000  0.000  0.001    0.005 -0.001 -0.002    0.002 -0.009  0.010
 H         -0.002  0.001  0.001   -0.009  0.001 -0.005   -0.013  0.002  0.020
 O         -0.001 -0.001  0.002    0.018  0.003 -0.010   -0.419 -0.099  0.258
 O         -0.001 -0.007 -0.005   -0.003  0.007  0.004    0.006 -0.002 -0.001
 O         -0.253 -0.314  0.031   -0.119 -0.157  0.008   -0.006 -0.008  0.001
 TransDip   0.367  0.427 -0.080    0.541  0.507 -0.166    0.306  0.215 -0.395

 Mode:                49                     50                     51
 Frequency:      3002.96                3024.54                3069.17
 Force Cnst:      5.7781                 5.8309                 6.0352
 Red. Mass:       1.0875                 1.0819                 1.0874
 IR Active:          YES                    YES                    YES
 IR Intens:       89.436                 25.690                 55.572
 Raman Active:       YES                    YES                    YES
               X      Y      Z        X      Y      Z        X      Y      Z
 C         -0.002  0.002  0.004   -0.006 -0.075 -0.031    0.001  0.001  0.000
 C         -0.072  0.039 -0.022   -0.004  0.000 -0.001    0.001 -0.001  0.000
 C          0.000 -0.001 -0.001    0.000 -0.000 -0.000    0.005 -0.058 -0.062
 C         -0.000 -0.000  0.000   -0.000 -0.000 -0.000   -0.002  0.001  0.003
 C          0.000  0.000 -0.000    0.000  0.000  0.000    0.001 -0.000 -0.001
 C          0.000  0.000  0.000   -0.000 -0.001 -0.000   -0.001 -0.000 -0.001
 C         -0.000 -0.000  0.000    0.000  0.000  0.001    0.000  0.000  0.000
 H         -0.002 -0.038 -0.020    0.062  0.917  0.382    0.000 -0.006 -0.001
 H          0.854 -0.451  0.239    0.035 -0.022  0.009   -0.017  0.011 -0.004
 H         -0.001  0.014  0.014   -0.000  0.005  0.005   -0.032  0.695  0.713
 H         -0.000  0.000  0.000   -0.000  0.000  0.000   -0.002 -0.014 -0.011
 H         -0.002 -0.000  0.002   -0.001 -0.001 -0.000   -0.003  0.002  0.004
 H          0.003  0.001  0.001   -0.000  0.001  0.001    0.004 -0.000  0.002
 O          0.000  0.000 -0.000   -0.000  0.000 -0.000   -0.000  0.000 -0.000
 H         -0.000 -0.001 -0.000   -0.001 -0.003 -0.005   -0.000 -0.001 -0.000
 H         -0.000 -0.000 -0.000   -0.000 -0.000 -0.000    0.000 -0.000 -0.000
 O          0.001  0.000 -0.001    0.000  0.000 -0.000   -0.000  0.000 -0.000
 H          0.003 -0.000 -0.002    0.004  0.003 -0.003   -0.000 -0.001  0.002
 O          0.001 -0.000 -0.000    0.001  0.000 -0.000   -0.000 -0.000 -0.000
 O          0.000 -0.000  0.000    0.000  0.000  0.000    0.000 -0.001  0.001
 O         -0.000 -0.000  0.000   -0.000 -0.000  0.000   -0.000  0.000  0.001
 TransDip  -0.281  0.089 -0.068    0.027 -0.071 -0.143   -0.080 -0.145 -0.172

 Mode:                52                     53                     54
 Frequency:      3105.43                3176.12                3181.94
 Force Cnst:      6.0029                 6.4512                 6.6471
 Red. Mass:       1.0565                 1.0854                 1.1143
 IR Active:          YES                    YES                    YES
 IR Intens:       19.681                  2.495                 11.511
 Raman Active:       YES                    YES                    YES
               X      Y      Z        X      Y      Z        X      Y      Z
 C          0.000 -0.000  0.001   -0.000  0.000  0.000    0.000 -0.000  0.000
 C          0.000 -0.000  0.000   -0.000  0.000 -0.000   -0.000 -0.000  0.000
 C         -0.000  0.000  0.000   -0.001 -0.002 -0.000    0.000  0.000  0.000
 C          0.000  0.000 -0.000    0.003 -0.047 -0.039   -0.000  0.002  0.002
 C          0.000 -0.000 -0.000   -0.036  0.004  0.044    0.001  0.000 -0.001
 C          0.001  0.001 -0.001   -0.000 -0.000  0.000   -0.001 -0.001 -0.000
 C         -0.054  0.039 -0.007   -0.002 -0.002 -0.002   -0.044 -0.057 -0.067
 H         -0.001 -0.002 -0.002    0.001 -0.000  0.000    0.002  0.003  0.003
 H         -0.003  0.001 -0.001    0.000 -0.000  0.000   -0.001  0.000 -0.001
 H         -0.000 -0.003 -0.002   -0.000  0.012  0.013   -0.000 -0.002 -0.002
 H         -0.000  0.000 -0.000   -0.035  0.563  0.456    0.001 -0.024 -0.019
 H         -0.001  0.000  0.001    0.438 -0.040 -0.522   -0.007  0.001  0.008
 H          0.650  0.042  0.442    0.015  0.001  0.010    0.501  0.023  0.341
 O          0.000 -0.000 -0.000    0.000 -0.000 -0.000    0.001  0.001  0.001
 H         -0.021 -0.504 -0.350    0.000  0.019  0.012    0.019  0.654  0.440
 H          0.002  0.002  0.003    0.000 -0.001  0.002   -0.009 -0.012 -0.007
 O         -0.000 -0.000  0.000   -0.000 -0.000 -0.000   -0.000  0.000 -0.000
 H          0.003  0.001 -0.002    0.001 -0.000  0.001    0.001 -0.001  0.000
 O         -0.000  0.000 -0.000   -0.000 -0.000  0.000    0.000  0.000 -0.000
 O         -0.000 -0.000  0.001    0.000 -0.000 -0.000    0.000  0.000 -0.000
 O          0.000  0.000 -0.000    0.000  0.000 -0.000   -0.000 -0.000  0.000
 TransDip  -0.101  0.091 -0.041   -0.026 -0.043  0.004   -0.066 -0.059 -0.063

 Mode:                55                     56                     57
 Frequency:      3192.70                3708.48                3820.14
 Force Cnst:      6.5783                 8.6392                 9.1730
 Red. Mass:       1.0953                 1.0662                 1.0668
 IR Active:          YES                    YES                    YES
 IR Intens:        5.426                372.909                191.532
 Raman Active:       YES                    YES                    YES
               X      Y      Z        X      Y      Z        X      Y      Z
 C          0.000 -0.000 -0.000    0.000  0.001 -0.001   -0.000 -0.000 -0.000
 C          0.000 -0.000  0.000   -0.000  0.000  0.000   -0.000  0.000 -0.000
 C         -0.002 -0.002  0.001    0.000  0.000  0.000    0.000  0.000 -0.000
 C         -0.001 -0.050 -0.036   -0.000 -0.000  0.000   -0.000 -0.000  0.000
 C          0.043  0.001 -0.048    0.000  0.000  0.000    0.000  0.000 -0.000
 C          0.000  0.001  0.000   -0.000  0.000 -0.000   -0.000 -0.000  0.001
 C         -0.000 -0.001 -0.001   -0.000 -0.000  0.001   -0.001 -0.001 -0.001
 H         -0.001 -0.000 -0.001   -0.004  0.004  0.003    0.000  0.000 -0.000
 H         -0.002  0.001 -0.001    0.001 -0.001  0.000    0.000 -0.000  0.000
 H         -0.000  0.006  0.006   -0.000 -0.002 -0.001    0.000  0.000  0.000
 H         -0.032  0.530  0.427   -0.000 -0.000 -0.000   -0.000 -0.000 -0.000
 H         -0.468  0.039  0.554   -0.001 -0.001  0.001   -0.001 -0.001  0.003
 H          0.006 -0.000  0.004    0.003  0.001 -0.002    0.001  0.000  0.007
 O         -0.000  0.000  0.000    0.000 -0.001 -0.002   -0.008 -0.036 -0.051
 H          0.000  0.008  0.007    0.000 -0.000 -0.001   -0.001  0.010  0.010
 H         -0.000  0.001 -0.003    0.007  0.021  0.029    0.144  0.575  0.802
 O          0.000  0.000  0.000    0.004  0.036 -0.051   -0.000 -0.001  0.002
 H         -0.001 -0.000 -0.001   -0.056 -0.586  0.805   -0.001  0.021 -0.030
 O          0.000  0.000 -0.000   -0.000 -0.000  0.000    0.000 -0.000  0.000
 O         -0.000  0.000  0.000   -0.000 -0.000  0.000    0.000 -0.000 -0.000
 O          0.001  0.001 -0.000   -0.000 -0.000 -0.000   -0.000 -0.000 -0.000
 TransDip  -0.009 -0.049 -0.056   -0.037 -0.332  0.520   -0.051  0.166  0.408

 STANDARD THERMODYNAMIC QUANTITIES AT   298.15 K  AND     1.00 ATM

   This Molecule has  0 Imaginary Frequencies
   Zero point vibrational energy:       99.196 kcal/mol

   Atom    1 Element C  Has Mass   12.00000
   Atom    2 Element C  Has Mass   12.00000
   Atom    3 Element C  Has Mass   12.00000
   Atom    4 Element C  Has Mass   12.00000
   Atom    5 Element C  Has Mass   12.00000
   Atom    6 Element C  Has Mass   12.00000
   Atom    7 Element C  Has Mass   12.00000
   Atom    8 Element H  Has Mass    1.00783
   Atom    9 Element H  Has Mass    1.00783
   Atom   10 Element H  Has Mass    1.00783
   Atom   11 Element H  Has Mass    1.00783
   Atom   12 Element H  Has Mass    1.00783
   Atom   13 Element H  Has Mass    1.00783
   Atom   14 Element O  Has Mass   15.99491
   Atom   15 Element H  Has Mass    1.00783
   Atom   16 Element H  Has Mass    1.00783
   Atom   17 Element O  Has Mass   15.99491
   Atom   18 Element H  Has Mass    1.00783
   Atom   19 Element O  Has Mass   15.99491
   Atom   20 Element O  Has Mass   15.99491
   Atom   21 Element O  Has Mass   15.99491
   Molecular Mass:   173.045020 amu
   Principal axes and moments of inertia in amu*Bohr^2:
                             1           2           3
    Eigenvalues --     1365.57218  2555.09055  3143.63601
          X               0.65966     0.45963    -0.59463
          Y               0.70382    -0.10029     0.70327
          Z              -0.26360     0.88243     0.38965
   Rotational Symmetry Number is   1
   The Molecule is an Asymmetric Top
   Translational Enthalpy:        0.889 kcal/mol
   Rotational Enthalpy:           0.889 kcal/mol
   Vibrational Enthalpy:        105.495 kcal/mol
   gas constant (RT):             0.592 kcal/mol
   Translational Entropy:        41.352  cal/mol.K
   Rotational Entropy:           30.773  cal/mol.K
   Vibrational Entropy:          40.941  cal/mol.K

   Total Enthalpy:              107.865 kcal/mol
   Total Entropy:               113.067  cal/mol.K
 Total job time:  28357.60s(wall), 407216.04s(cpu) 
 Wed Jun  5 20:11:21 2024

        *************************************************************
        *                                                           *
        *  Thank you very much for using Q-Chem.  Have a nice day.  *
        *                                                           *
        *************************************************************


