
Running Job 1 of 1 Q_in.in
qchem Q_in.in_161475.0 /scratch/ari.fischer/qChem2116933.hpc-mn1/qchem161475/ 0
/usr/local/qchem-5.4.1/exe/qcprog.exe_s Q_in.in_161475.0 /scratch/ari.fischer/qChem2116933.hpc-mn1/qchem161475/
                  Welcome to Q-Chem
     A Quantum Leap Into The Future Of Chemistry


 Q-Chem 5.4, Q-Chem, Inc., Pleasanton, CA (2021)

 License issued to: Nanyang Technological University (site)

 E. Epifanovsky,  A. T. B. Gilbert,  Xintian Feng,  Joonho Lee,  Yuezhi Mao,  
 N. Mardirossian,  P. Pokhilko,  A. White,  M. Wormit,  M. P. Coons,  
 A. L. Dempwolff,  Zhengting Gan,  D. Hait,  P. R. Horn,  L. D. Jacobson,  
 I. Kaliman,  J. Kussmann,  A. W. Lange,  Ka Un Lao,  D. S. Levine,  Jie Liu,  
 S. C. McKenzie,  A. F. Morrison,  K. Nanda,  F. Plasser,  D. R. Rehn,  
 M. L. Vidal,  Zhi-Qiang You,  Ying Zhu,  B. Alam,  B. Albrecht,  
 A. Aldossary,  E. Alguire,  J. H. Andersen,  D. Barton,  K. Begam,  A. Behn,  
 Y. A. Bernard,  E. J. Berquist,  H. Burton,  A. Carreras,  K. Carter-Fenk,  
 R. Chakraborty,  A. D. Chien,  K. D. Closser,  V. Cofer-Shabica,  
 S. Dasgupta,  Jia Deng,  M. de Wergifosse,  M. Diedenhofen,  Hainam Do,  
 S. Ehlert,  Po-Tung Fang,  S. Fatehi,  Qingguo Feng,  T. Friedhoff,  
 J. Gayvert,  Qinghui Ge,  G. Gidofalvi,  M. Goldey,  J. Gomes,  
 C. Gonzalez-Espinoza,  S. Gulania,  A. Gunina,  M. W. D. Hanson-Heine,  
 P. H. P. Harbach,  A. W. Hauser,  M. F. Herbst,  M. Hernandez Vera,  
 M. Hodecker,  Z. C. Holden,  S. Houck,  Xunkun Huang,  Kerwin Hui,  
 B. C. Huynh,  M. Ivanov,  Hyunjun Ji,  Hanjie Jiang,  B. Kaduk,  S. Kaehler,  
 K. Khistyaev,  Jaehoon Kim,  P. Klunzinger,  Z. Koczor-Benda,  
 Joong Hoon Koh,  D. Kosenkov,  L. Koulias,  T. Kowalczyk,  C. M. Krauter,  
 K. Kue,  A. Kunitsa,  T. Kus,  A. Landau,  K. V. Lawler,  D. Lefrancois,  
 S. Lehtola,  Rain Li,  Yi-Pei Li,  Jiashu Liang,  M. Liebenthal,  
 Hung-Hsuan Lin,  You-Sheng Lin,  Fenglai Liu,  Kuan-Yu Liu,  
 M. Loipersberger,  A. Luenser,  A. Manjanath,  P. Manohar,  E. Mansoor,  
 S. F. Manzer,  Shan-Ping Mao,  A. V. Marenich,  T. Markovich,  S. Mason,  
 S. A. Maurer,  P. F. McLaughlin,  M. F. S. J. Menger,  J.-M. Mewes,  
 S. A. Mewes,  P. Morgante,  J. W. Mullinax,  K. J. Oosterbaan,  G. Paran,  
 Alexander C. Paul,  Suranjan K. Paul,  F. Pavosevic,  Zheng Pei,  S. Prager,  
 E. I. Proynov,  E. Ramos,  B. Rana,  A. E. Rask,  A. Rettig,  R. M. Richard,  
 F. Rob,  E. Rossomme,  T. Scheele,  M. Scheurer,  M. Schneider,  
 N. Sergueev,  S. M. Sharada,  W. Skomorowski,  D. W. Small,  C. J. Stein,  
 Yu-Chuan Su,  E. J. Sundstrom,  Zhen Tao,  J. Thirman,  T. Tsuchimochi,  
 N. M. Tubman,  S. P. Veccham,  O. Vydrov,  J. Wenzel,  J. Witte,  A. Yamada,  
 Kun Yao,  S. Yeganeh,  S. R. Yost,  A. Zech,  Igor Ying Zhang,  Xing Zhang,  
 Yu Zhang,  D. Zuev,  A. Aspuru-Guzik,  A. T. Bell,  N. A. Besley,  
 K. B. Bravaya,  B. R. Brooks,  D. Casanova,  Jeng-Da Chai,  S. Coriani,  
 C. J. Cramer,  A. E. DePrince, III,  R. A. DiStasio Jr.,  A. Dreuw,  
 B. D. Dunietz,  T. R. Furlani,  W. A. Goddard III,  S. Grimme,  
 S. Hammes-Schiffer,  T. Head-Gordon,  W. J. Hehre,  Chao-Ping Hsu,  
 T.-C. Jagau,  Yousung Jung,  A. Klamt,  Jing Kong,  D. S. Lambrecht,  
 WanZhen Liang,  N. J. Mayhall,  C. W. McCurdy,  J. B. Neaton,  
 C. Ochsenfeld,  J. A. Parkhill,  R. Peverati,  V. A. Rassolov,  Yihan Shao,  
 L. V. Slipchenko,  T. Stauch,  R. P. Steele,  J. E. Subotnik,  
 A. J. W. Thom,  A. Tkatchenko,  D. G. Truhlar,  T. Van Voorhis,  
 T. A. Wesolowski,  K. B. Whaley,  H. L. Woodcock III,  P. M. Zimmerman,  
 S. Faraji,  P. M. W. Gill,  M. Head-Gordon,  J. M. Herbert,  A. I. Krylov

 Additional authors for Version 5.4.1: 
 S. Kotaru,  Shaozhi Li,  Xiangyuan Li,  F. Matz,  A. Molle,  Haisheng Ren,  
 Yingli Su,  Hung-Yi Tsai,  C. Utku,  Fang Wang

 Contributors to earlier versions of Q-Chem not listed above: 
 R. D. Adamson,  B. Austin,  R. Baer,  J. Baker,  G. J. O. Beran,  
 K. Brandhorst,  S. T. Brown,  E. F. C. Byrd,  A. K. Chakraborty,  
 G. K. L. Chan,  Chun-Min Chang,  Yunqing Chen,  C.-L. Cheng,  
 Siu Hung Chien,  D. M. Chipman,  D. L. Crittenden,  H. Dachsel,  
 R. J. Doerksen,  A. D. Dutoi,  R. G. Edgar,  J. Fosso-Tande,  
 L. Fusti-Molnar,  D. Ghosh,  A. Ghysels,  A. Golubeva-Zadorozhnaya,  
 J. Gonthier,  M. S. Gordon,  S. R. Gwaltney,  G. Hawkins,  J. E. Herr,  
 A. Heyden,  S. Hirata,  E. G. Hohenstein,  G. Kedziora,  F. J. Keil,  
 C. Kelley,  Jihan Kim,  R. A. King,  R. Z. Khaliullin,  P. P. Korambath,  
 W. Kurlancheek,  A. Laurent,  A. M. Lee,  M. S. Lee,  S. V. Levchenko,  
 Ching Yeh Lin,  D. Liotard,  E. Livshits,  R. C. Lochan,  I. Lotan,  
 L. A. Martinez-Martinez,  P. E. Maslen,  N. Nair,  D. P. O'Neill,  
 D. Neuhauser,  E. Neuscamman,  C. M. Oana,  R. Olivares-Amaya,  R. Olson,  
 T. M. Perrine,  B. Peters,  P. A. Pieniazek,  A. Prociuk,  Y. M. Rhee,  
 J. Ritchie,  M. A. Rohrdanz,  E. Rosta,  N. J. Russ,  H. F. Schaefer III,  
 M. W. Schmidt,  N. E. Schultz,  S. Sharma,  N. Shenvi,  C. D. Sherrill,  
 A. C. Simmonett,  A. Sodt,  T. Stein,  D. Stuck,  K. S. Thanthiriwatte,  
 V. Vanovschi,  L. Vogt,  Tao Wang,  A. Warshel,  M. A. Watson,  
 C. F. Williams,  Q. Wu,  X. Xu,  Jun Yang,  W. Zhang,  Yan Zhao

 Please cite Q-Chem as follows:
 Y. Shao et al., Mol. Phys. 113, 184-215 (2015)
 DOI: 10.1080/00268976.2014.952696

 Q-Chem 5.4.1 for Intel X86 EM64T Linux

 Parts of Q-Chem use Armadillo 9.800.1 (Horizon Scraper).
 http://arma.sourceforge.net/

 Q-Chem begins on Tue May 21 14:59:08 2024  

 Host: 
0

     Scratch files written to /scratch/ari.fischer/qChem2116933.hpc-mn1/qchem161475//
 Aug1521 |scratch|qcdevops|jenkins|workspace|build_RNUM 8249   
 Processing $rem in /usr/local/qchem-5.4.1/config/preferences:
 Processing $rem in /home/ari.fischer/.qchemrc:
 Symmetry turned off for PCM/SM12/SMD calculation

 Checking the input file for inconsistencies... 	...done.

--------------------------------------------------------------
User input:
--------------------------------------------------------------
$molecule
0 2
C         0.2048308176    0.1989385979    0.9466775295
C         0.1259087446   -0.7906902606    2.0924191477
C        -3.0395165191   -2.3127851323    0.6194184976
C        -2.0395757662   -2.1716481471   -0.4547949475
C        -1.2175534998   -1.1342485154   -0.6590947610
C        -1.1199088002    0.1551411541    0.1219196032
C        -1.0761796018    1.3883896346   -0.8920377876
H         0.2724921387    1.2037541078    1.3963315799
H         1.0954210071   -1.2171453025    2.4067584509
H        -3.1410927402   -1.4980259909    1.3485108787
H        -1.9745234238   -3.0336104685   -1.1160535227
H        -0.5001956076   -1.2191947032   -1.4738600377
H        -1.9768886986    1.3490111644   -1.5091221887
O         0.0967405045    1.3877963758   -1.6762391265
H        -1.0714234550    2.2958829467   -0.2868245949
H        -0.0380105845    0.7963875460   -2.4356622457
O         1.3500187944   -0.1301934458    0.1952881826
H         1.3431303341    0.4781635703   -0.5714221550
O        -0.9115055520   -1.0914661023    2.6451122508
O        -2.1665324789    0.4613895402    0.9281457586
O        -3.7318916133   -3.3192690689    0.7089304878
$end

$rem
BASIS = 6-311++G(2df,2p)
GUI = 2
JOB_TYPE = Optimization
METHOD = wB97M-V
SCF_ALGORITHM = DIIS_GDM
MAX_SCF_CYCLES = 400
GEOM_OPT_MAX_CYCLES = 150
SCF_CONVERGENCE = 7
THRESH = 12
Solvent_method = SMD
$end
--------------------------------------------------------------
 ----------------------------------------------------------------
             Standard Nuclear Orientation (Angstroms)
    I     Atom           X                Y                Z
 ----------------------------------------------------------------
    1      C       0.2048308176     0.1989385979     0.9466775295
    2      C       0.1259087446    -0.7906902606     2.0924191477
    3      C      -3.0395165191    -2.3127851323     0.6194184976
    4      C      -2.0395757662    -2.1716481471    -0.4547949475
    5      C      -1.2175534998    -1.1342485154    -0.6590947610
    6      C      -1.1199088002     0.1551411541     0.1219196032
    7      C      -1.0761796018     1.3883896346    -0.8920377876
    8      H       0.2724921387     1.2037541078     1.3963315799
    9      H       1.0954210071    -1.2171453025     2.4067584509
   10      H      -3.1410927402    -1.4980259909     1.3485108787
   11      H      -1.9745234238    -3.0336104685    -1.1160535227
   12      H      -0.5001956076    -1.2191947032    -1.4738600377
   13      H      -1.9768886986     1.3490111644    -1.5091221887
   14      O       0.0967405045     1.3877963758    -1.6762391265
   15      H      -1.0714234550     2.2958829467    -0.2868245949
   16      H      -0.0380105845     0.7963875460    -2.4356622457
   17      O       1.3500187944    -0.1301934458     0.1952881826
   18      H       1.3431303341     0.4781635703    -0.5714221550
   19      O      -0.9115055520    -1.0914661023     2.6451122508
   20      O      -2.1665324789     0.4613895402     0.9281457586
   21      O      -3.7318916133    -3.3192690689     0.7089304878
 ----------------------------------------------------------------
 Nuclear Repulsion Energy =         736.63048949 hartrees
 There are       46 alpha and       45 beta electrons
 Requested basis set is 6-311++G(2df,2p)
 There are 150 shells and 498 basis functions

 Total QAlloc Memory Limit 288000 MB
 Mega-Array Size       188 MB
 MEM_STATIC part       192 MB
 
 Citation of the SMD model:
 Marenich, A.V.; Cramer, C.J.; Truhlar, D.G.
 J. Phys. Chem. B 2009, 113, 6378-6396.
 iSolventCode=           1
 Solvent: water                                                           
 
 vradii
            1           2           3           4           5           6
    1   1.8500000   1.8500000   1.8500000   1.8500000   1.8500000   1.8500000
            7           8           9          10          11          12
    1   1.8500000   1.2000000   1.2000000   1.2000000   1.2000000   1.2000000
           13          14          15          16          17          18
    1   1.2000000   1.5200000   1.2000000   1.2000000   1.5200000   1.2000000
           19          20          21
    1   1.5200000   1.5200000   1.5200000
 Changing PCM_VDW_RADII to SMD_RADIUS
 Discretize the solute cavity surface with Lebedev spheres
	Using 110 Lebedev grid points for each H atom
	Using 194 Lebedev grid points for other atoms
	Atomic van der Waals radii will be scaled by 1.20
 Remove points where switching function is < 1.0e-08
 Keep 1606 surface tesserae and discard 1712 interior tesserae
 Molecular Surface Area = 184.682 Angst**2
 A cutoff of  1.0D-12 yielded   9857 shell pairs
 There are    108174 function pairs (    134881 Cartesian)
 Smallest overlap matrix eigenvalue = 2.70E-06

 Scale SEOQF with 1.000000e-01/1.000000e-01/1.000000e-01

 Standard Electronic Orientation quadrupole field applied
 Nucleus-field energy     =     0.0000000100 hartrees
 Guess from superposition of atomic densities
 Warning:  Energy on first SCF cycle will be non-variational
 SAD guess density has 91.000000 electrons

 -----------------------------------------------------------------------
  General SCF calculation program by
  Eric Jon Sundstrom, Paul Horn, Yuezhi Mao, Dmitri Zuev, Alec White,
  David Stuck, Shaama M.S., Shane Yost, Joonho Lee, David Small,
  Daniel Levine, Susi Lehtola, Hugh Burton, Evgeny Epifanovsky,
  Bang C. Huynh
 -----------------------------------------------------------------------
 Exchange:     0.1500 Hartree-Fock + 1.0000 wB97M-V + LR-HF
 Correlation:  1.0000 wB97M-V
 Using SG-2 standard quadrature grid
 Nonlocal Correlation:  VV10 with C = 0.0100 and b = 6.00 and scale = 1.00000
 Grid used for NLC:  SG-1 standard quadrature
 
 Citation of the SMD model:
 Marenich, A.V.; Cramer, C.J.; Truhlar, D.G.
 J. Phys. Chem. B 2009, 113, 6378-6396.
 iSolventCode=           1
 Solvent: water                                                           
 
 vradii
            1           2           3           4           5           6
    1   1.8500000   1.8500000   1.8500000   1.8500000   1.8500000   1.8500000
            7           8           9          10          11          12
    1   1.8500000   1.2000000   1.2000000   1.2000000   1.2000000   1.2000000
           13          14          15          16          17          18
    1   1.2000000   1.5200000   1.2000000   1.2000000   1.5200000   1.2000000
           19          20          21
    1   1.5200000   1.5200000   1.5200000
 using 16 threads for integral computing
 -------------------------------------------------------
 OpenMP Integral computing Module                
 Release: version 1.0, May 2013, Q-Chem Inc. Pittsburgh 
 -------------------------------------------------------
 -------------------------------------------------------
 OpenMP BLAS3 based DFT computing Module                
 Release: version 1.0, May 2013, Q-Chem Inc. Pittsburgh 
 -------------------------------------------------------
 A unrestricted SCF calculation will be
 performed using DIIS, GDM
 SCF converges when RMS gradient is below 1.0e-07
 ---------------------------------------
  Cycle       Energy         DIIS error
 ---------------------------------------
    1    -650.8297573517      1.12e-02  
    2    -647.8937855861      1.61e-03  Done DIIS. Switching to GDM
 ---------------------------------------
  Cycle       Energy        RMS Gradient
 ---------------------------------------
    1    -647.8937855861      2.30e-01   Descent step
    2    -648.1277363817      7.59e-02   Normal BFGS step
    3    -648.1773766473      3.82e-02   Normal BFGS step
    4    -648.1838549515      9.56e-03   Normal BFGS step
    5    -648.1881029961      1.54e-02   Normal BFGS step
    6    -648.1894755900      6.68e-03   Normal BFGS step
    7    -648.1898130665      2.58e-03   Normal BFGS step
    8    -648.1899017801      1.58e-03   Normal BFGS step
    9    -648.1899230717      1.39e-03   Normal BFGS step
   10    -648.1899343320      1.21e-03   Normal BFGS step
   11    -648.1899526470      1.10e-03   Normal BFGS step
   12    -648.1899635374      1.05e-03   Normal BFGS step
   13    -648.1899769196      7.51e-04   Normal BFGS step
   14    -648.1899846003      4.59e-04   Normal BFGS step
   15    -648.1899876835      5.12e-04   Normal BFGS step
   16    -648.1899887371      2.44e-04   Normal BFGS step
   17    -648.1899891477      1.05e-04   Normal BFGS step
   18    -648.1899892997      4.99e-05   Normal BFGS step
   19    -648.1899893441      4.36e-05   Normal BFGS step
   20    -648.1899893611      1.26e-05   Normal BFGS step
   21    -648.1899893652      6.86e-06   Normal BFGS step
   22    -648.1899893659      4.41e-06   Normal BFGS step
   23    -648.1899893661      2.08e-06   Normal BFGS step
   24    -648.1899893661      1.01e-06   Normal BFGS step
   25    -648.1899893661      4.38e-07   Normal BFGS step
   26    -648.1899893661      2.07e-07   Normal BFGS step
   27    -648.1899893662      6.28e-08  Convergence criterion met
 ---------------------------------------
 SCF time:   CPU 5190.49s  wall 356.00s 
<S^2> =          0.755681588
(3)  G-ENP(liq) elect-nuc-pol free energy of system     -648.189989366 a.u.
(4)  G-CDS(liq) cavity-dispersion-solvent structure 
     free energy                                                6.2866 kcal/mol
(6)  G-S(liq) free energy of system                     -648.179971094 a.u.
 SCF   energy in the final basis set =     -648.1799710941
 Total energy in the final basis set =     -648.1799710941
 
 --------------------------------------------------------------
 
                    Orbital Energies (a.u.)
 --------------------------------------------------------------
 
 Alpha MOs
 -- Occupied --
-19.3853 -19.3650 -19.3607 -19.3493 -19.3411 -10.4515 -10.4387 -10.4322
-10.4207 -10.4181 -10.3754 -10.3584  -1.2101  -1.1920  -1.1829  -1.1736
 -1.1683  -0.9378  -0.8893  -0.8443  -0.7888  -0.7406  -0.7053  -0.6717
 -0.6564  -0.6333  -0.6237  -0.6104  -0.5872  -0.5760  -0.5690  -0.5548
 -0.5537  -0.5249  -0.5193  -0.5176  -0.5055  -0.4917  -0.4822  -0.4587
 -0.4386  -0.4101  -0.3954  -0.3838  -0.3687  -0.3565
 -- Virtual --
  0.0065   0.0240   0.0365   0.0373   0.0391   0.0411   0.0568   0.0609
  0.0676   0.0730   0.0760   0.1008   0.1013   0.1048   0.1084   0.1169
  0.1227   0.1306   0.1380   0.1454   0.1538   0.1571   0.1602   0.1637
  0.1663   0.1712   0.1751   0.1789   0.1823   0.1865   0.1872   0.1987
  0.2016   0.2072   0.2141   0.2251   0.2283   0.2340   0.2593   0.2603
  0.2704   0.2719   0.2810   0.2891   0.2903   0.2998   0.3043   0.3097
  0.3174   0.3222   0.3252   0.3300   0.3363   0.3404   0.3458   0.3529
  0.3572   0.3589   0.3684   0.3685   0.3767   0.3780   0.3891   0.3906
  0.3986   0.4047   0.4084   0.4101   0.4171   0.4332   0.4355   0.4400
  0.4610   0.4701   0.4873   0.4925   0.4983   0.5218   0.5279   0.5392
  0.5686   0.5767   0.5929   0.5948   0.6067   0.6113   0.6302   0.6334
  0.6421   0.6478   0.6501   0.6631   0.6670   0.6734   0.6779   0.6867
  0.7016   0.7036   0.7092   0.7167   0.7319   0.7360   0.7459   0.7479
  0.7563   0.7750   0.7801   0.7914   0.8066   0.8118   0.8195   0.8421
  0.8570   0.8636   0.8751   0.8854   0.9007   0.9213   0.9239   0.9325
  0.9541   0.9838   0.9961   1.0219   1.0328   1.0393   1.0534   1.0578
  1.0740   1.0846   1.0911   1.1044   1.1176   1.1269   1.1365   1.1478
  1.1517   1.1609   1.1657   1.1761   1.1918   1.1979   1.2054   1.2152
  1.2183   1.2305   1.2431   1.2537   1.2582   1.2699   1.2768   1.2835
  1.2885   1.2988   1.3054   1.3246   1.3390   1.3470   1.3533   1.3571
  1.3807   1.3963   1.4021   1.4239   1.4339   1.4379   1.4502   1.4599
  1.4696   1.4856   1.4914   1.4981   1.5142   1.5312   1.5403   1.5465
  1.5702   1.5881   1.6078   1.6126   1.6228   1.6324   1.6447   1.6646
  1.6768   1.6850   1.6971   1.7032   1.7206   1.7437   1.7611   1.7783
  1.8122   1.8352   1.8414   1.8651   1.8778   1.9069   1.9225   1.9480
  1.9677   1.9823   2.0052   2.0537   2.0770   2.0845   2.1023   2.1047
  2.1484   2.1783   2.1902   2.2431   2.2765   2.2906   2.3622   2.3782
  2.4061   2.4279   2.4606   2.4954   2.5137   2.5623   2.5977   2.6011
  2.6482   2.6731   2.6786   2.6863   2.7009   2.7125   2.7738   2.7904
  2.8118   2.8211   2.8303   2.8514   2.8609   2.8849   2.8915   2.9113
  2.9217   2.9390   2.9616   2.9674   2.9753   3.0029   3.0147   3.0256
  3.0337   3.0716   3.0857   3.0995   3.1246   3.1464   3.1556   3.1716
  3.1814   3.1939   3.2059   3.2144   3.2383   3.2439   3.2669   3.2745
  3.3016   3.3083   3.3273   3.3537   3.3623   3.3719   3.3951   3.4030
  3.4090   3.4297   3.4340   3.4730   3.4804   3.5019   3.5129   3.5170
  3.5319   3.5464   3.5734   3.5818   3.6064   3.6202   3.6235   3.6419
  3.6499   3.6670   3.6723   3.6831   3.6976   3.7045   3.7209   3.7335
  3.7758   3.7948   3.7993   3.8240   3.8392   3.8522   3.8596   3.8698
  3.8857   3.8935   3.9021   3.9256   3.9395   3.9524   3.9732   3.9885
  3.9987   4.0365   4.0640   4.0808   4.0946   4.1006   4.1226   4.1568
  4.1858   4.1865   4.1989   4.2224   4.2325   4.2418   4.2581   4.2697
  4.2881   4.3183   4.3236   4.3337   4.3639   4.3863   4.4289   4.4428
  4.4618   4.4684   4.4804   4.5095   4.5236   4.5365   4.5744   4.5964
  4.6272   4.6461   4.6824   4.7228   4.7345   4.7500   4.8606   4.8822
  4.8946   4.9714   5.0494   5.1213   5.1377   5.1434   5.1627   5.1785
  5.1827   5.1909   5.2297   5.2371   5.2513   5.2706   5.2754   5.2889
  5.3112   5.3403   5.3491   5.3513   5.3852   5.3948   5.4001   5.4196
  5.4310   5.4405   5.4546   5.4940   5.5172   5.5208   5.5537   5.5608
  5.5675   5.5802   5.6001   5.6342   5.6483   5.6525   5.6875   5.7145
  5.7264   5.7351   5.7616   5.8341   5.8922   5.9247   5.9801   6.0238
  6.0377   6.0510   6.0928   6.2461   6.3079   6.3699   6.6234   6.6640
  6.7335   6.7741   6.8778   6.9431   6.9641   6.9788   7.0067   7.0243
  7.0661   7.1095   7.1409   7.1752   7.2023   7.2590   7.2909   7.3150
  7.3383   7.3539   7.3668   7.4181   7.4720   7.4838   7.5242   7.5462
  7.5650   7.6561   7.6995   7.7535   7.7709   7.7786   7.8082   7.8611
 24.4418  24.6773  24.7065  24.8384  24.9720  24.9859  25.2088  50.6230
 50.6439  50.6515  50.7087  50.7147
 
 Beta MOs
 -- Occupied --
-19.3648 -19.3639 -19.3593 -19.3491 -19.3409 -10.4516 -10.4386 -10.4326
-10.4199 -10.4156 -10.3754 -10.3582  -1.2059  -1.1880  -1.1825  -1.1674
 -1.1363  -0.9329  -0.8833  -0.8380  -0.7868  -0.7365  -0.7035  -0.6658
 -0.6521  -0.6305  -0.6189  -0.6040  -0.5827  -0.5719  -0.5646  -0.5495
 -0.5407  -0.5205  -0.5164  -0.5136  -0.5033  -0.4843  -0.4587  -0.4299
 -0.4133  -0.3909  -0.3820  -0.3780  -0.3605
 -- Virtual --
 -0.0739   0.0085   0.0242   0.0371   0.0375   0.0392   0.0414   0.0568
  0.0613   0.0678   0.0731   0.0765   0.1008   0.1015   0.1051   0.1085
  0.1174   0.1229   0.1307   0.1384   0.1454   0.1545   0.1581   0.1606
  0.1640   0.1663   0.1713   0.1754   0.1792   0.1827   0.1871   0.1877
  0.1989   0.2022   0.2077   0.2145   0.2253   0.2288   0.2348   0.2597
  0.2620   0.2708   0.2730   0.2837   0.2901   0.2908   0.3012   0.3051
  0.3143   0.3190   0.3236   0.3293   0.3312   0.3371   0.3410   0.3465
  0.3537   0.3576   0.3598   0.3690   0.3705   0.3775   0.3799   0.3899
  0.3916   0.4000   0.4068   0.4090   0.4124   0.4187   0.4345   0.4387
  0.4419   0.4633   0.4710   0.4887   0.4930   0.5015   0.5228   0.5289
  0.5401   0.5703   0.5775   0.5938   0.5962   0.6078   0.6121   0.6311
  0.6343   0.6431   0.6485   0.6510   0.6635   0.6679   0.6742   0.6794
  0.6875   0.7020   0.7044   0.7105   0.7192   0.7330   0.7371   0.7465
  0.7489   0.7577   0.7757   0.7811   0.7919   0.8073   0.8128   0.8201
  0.8445   0.8577   0.8645   0.8759   0.8858   0.9015   0.9218   0.9248
  0.9333   0.9560   0.9846   0.9969   1.0237   1.0351   1.0404   1.0560
  1.0593   1.0753   1.0852   1.0923   1.1068   1.1210   1.1274   1.1380
  1.1510   1.1540   1.1629   1.1670   1.1777   1.1929   1.1993   1.2088
  1.2177   1.2201   1.2351   1.2442   1.2555   1.2591   1.2723   1.2792
  1.2845   1.2893   1.3044   1.3067   1.3265   1.3398   1.3485   1.3549
  1.3580   1.3826   1.3981   1.4050   1.4303   1.4352   1.4411   1.4523
  1.4610   1.4722   1.4874   1.4931   1.5004   1.5156   1.5343   1.5420
  1.5476   1.5718   1.5892   1.6102   1.6150   1.6276   1.6344   1.6477
  1.6679   1.6791   1.6865   1.6986   1.7048   1.7246   1.7490   1.7680
  1.7824   1.8141   1.8390   1.8459   1.8672   1.8853   1.9152   1.9357
  1.9558   1.9706   1.9931   2.0071   2.0607   2.0803   2.0902   2.1064
  2.1097   2.1513   2.1801   2.1922   2.2485   2.2847   2.2930   2.3642
  2.3814   2.4097   2.4292   2.4628   2.4970   2.5147   2.5640   2.5989
  2.6114   2.6503   2.6743   2.6799   2.6882   2.7023   2.7153   2.7754
  2.7930   2.8145   2.8232   2.8322   2.8528   2.8625   2.8860   2.8924
  2.9120   2.9239   2.9402   2.9630   2.9686   2.9766   3.0041   3.0158
  3.0277   3.0354   3.0728   3.0864   3.1014   3.1265   3.1484   3.1570
  3.1742   3.1830   3.1965   3.2078   3.2159   3.2398   3.2458   3.2697
  3.2769   3.3027   3.3097   3.3299   3.3552   3.3640   3.3732   3.3967
  3.4037   3.4105   3.4309   3.4351   3.4746   3.4813   3.5040   3.5147
  3.5187   3.5343   3.5475   3.5745   3.5846   3.6083   3.6225   3.6255
  3.6444   3.6531   3.6690   3.6740   3.6848   3.6999   3.7082   3.7221
  3.7367   3.7777   3.7971   3.8012   3.8256   3.8398   3.8534   3.8617
  3.8705   3.8880   3.8956   3.9046   3.9266   3.9433   3.9542   3.9761
  3.9898   4.0017   4.0378   4.0668   4.0852   4.0960   4.1020   4.1248
  4.1584   4.1880   4.1886   4.2015   4.2247   4.2346   4.2434   4.2585
  4.2708   4.2899   4.3198   4.3251   4.3352   4.3662   4.3876   4.4309
  4.4447   4.4633   4.4697   4.4825   4.5117   4.5249   4.5380   4.5757
  4.5989   4.6286   4.6498   4.6842   4.7255   4.7355   4.7524   4.8627
  4.8845   4.8973   4.9742   5.0527   5.1277   5.1498   5.1737   5.1824
  5.1913   5.1987   5.2242   5.2333   5.2406   5.2632   5.2745   5.2792
  5.2958   5.3153   5.3469   5.3564   5.3831   5.4073   5.4077   5.4134
  5.4252   5.4525   5.4563   5.4696   5.5119   5.5272   5.5309   5.5590
  5.5618   5.5760   5.5845   5.6065   5.6363   5.6544   5.6554   5.6903
  5.7208   5.7345   5.7406   5.7680   5.8371   5.8952   5.9342   5.9833
  6.0259   6.0409   6.0706   6.1211   6.2559   6.3083   6.3712   6.6273
  6.6678   6.7348   6.7770   6.8949   6.9455   6.9848   7.0195   7.0299
  7.0706   7.1127   7.1340   7.1449   7.1761   7.2054   7.2612   7.2931
  7.3167   7.3400   7.3561   7.3713   7.4193   7.4863   7.5247   7.5471
  7.5613   7.5907   7.6599   7.7012   7.7557   7.7730   7.7942   7.8309
  7.8655  24.4418  24.6795  24.7071  24.8381  24.9720  24.9859  25.2088
 50.6252  50.6496  50.6582  50.7089  50.7166
 --------------------------------------------------------------
 
          Ground-State Mulliken Net Atomic Charges

     Atom                 Charge (a.u.)    Spin (a.u.)
  --------------------------------------------------------
      1 C                    -0.009214       0.034440
      2 C                    -0.068893      -0.001471
      3 C                    -0.135509       0.001822
      4 C                    -0.263243       0.011893
      5 C                    -0.228608      -0.012196
      6 C                     0.223559       0.025337
      7 C                    -0.291482       0.090520
      8 H                     0.283055      -0.001088
      9 H                     0.218640       0.007283
     10 H                     0.243441      -0.000983
     11 H                     0.287226       0.000514
     12 H                     0.314780      -0.000765
     13 H                     0.255355      -0.000779
     14 O                    -0.337362       0.028942
     15 H                     0.262563      -0.002364
     16 H                     0.352303      -0.000426
     17 O                    -0.404475       0.006639
     18 H                     0.346264      -0.000361
     19 O                    -0.338020       0.035563
     20 O                    -0.269402       0.771809
     21 O                    -0.440977       0.005670
  --------------------------------------------------------
  Sum of atomic charges =    -0.000000
  Sum of spin   charges =     1.000000

 -----------------------------------------------------------------
                    Cartesian Multipole Moments
 -----------------------------------------------------------------
    Charge (ESU x 10^10)
                -0.0000
    Dipole Moment (Debye)
         X       5.4476      Y       5.5479      Z      -6.0832
       Tot       9.8722
    Quadrupole Moments (Debye-Ang)
        XX     -97.1374     XY     -20.8559     YY     -87.3603
        XZ      14.4870     YZ       7.8183     ZZ     -68.1222
    Octopole Moments (Debye-Ang^2)
       XXX     326.4368    XXY     125.4852    XYY     151.9971
       YYY     194.7931    XXZ     -54.5543    XYZ     -18.3439
       YYZ     -41.8709    XZZ      98.7058    YZZ      50.1283
       ZZZ    -113.0311
    Hexadecapole Moments (Debye-Ang^3)
      XXXX   -1841.1914   XXXY    -741.2594   XXYY    -741.8070
      XYYY    -704.8615   YYYY   -1361.4819   XXXZ     178.9941
      XXYZ     111.7876   XYYZ     115.9093   YYYZ     250.4234
      XXZZ    -387.2833   XYZZ    -168.6349   YYZZ    -335.1979
      XZZZ     155.5005   YZZZ     197.2333   ZZZZ    -758.2815
 -----------------------------------------------------------------
 Calculating analytic gradient of the SCF energy
 Gradient of CDS energy
            1           2           3           4           5           6
    1   0.0016796  -0.0008760  -0.0021962   0.0002748   0.0000686  -0.0032960
    2  -0.0002667  -0.0007451  -0.0018277  -0.0001066   0.0000780   0.0009945
    3  -0.0013081   0.0015466   0.0007643  -0.0004584  -0.0001588   0.0027134
            7           8           9          10          11          12
    1   0.0006645  -0.0000883   0.0002117   0.0003177   0.0000265   0.0000879
    2   0.0009691   0.0001730   0.0000372   0.0001110  -0.0001469   0.0000031
    3  -0.0010956  -0.0000198  -0.0001808  -0.0001429  -0.0001290  -0.0000052
           13          14          15          16          17          18
    1  -0.0001131  -0.0010165   0.0001557   0.0001813  -0.0017298   0.0004152
    2  -0.0002966  -0.0002661  -0.0000603   0.0000479   0.0003532   0.0001215
    3  -0.0000047   0.0008892   0.0002904  -0.0004807   0.0010769  -0.0001740
           19          20          21
    1   0.0009620   0.0032683   0.0010022
    2   0.0004192  -0.0009261   0.0013343
    3  -0.0004104  -0.0024949  -0.0002177
 Gradient of SCF Energy
            1           2           3           4           5           6
    1   0.0036774  -0.0011263  -0.0021684  -0.0175479   0.0034349  -0.0009851
    2  -0.0111392   0.0076739  -0.0002871  -0.0071351   0.0172103  -0.0056121
    3  -0.0119692  -0.0069841   0.0023431   0.0158028  -0.0004550   0.0074460
            7           8           9          10          11          12
    1   0.0236452   0.0012475   0.0098274   0.0015662   0.0020132   0.0145535
    2  -0.0217839   0.0155689  -0.0032299   0.0002296  -0.0057990   0.0006095
    3  -0.0006798   0.0051057   0.0028836  -0.0036875  -0.0064686  -0.0181904
           13          14          15          16          17          18
    1  -0.0152811   0.0026706  -0.0000432  -0.0044079   0.0053098  -0.0032598
    2  -0.0000224   0.0302248   0.0146600  -0.0241290  -0.0147793   0.0128163
    3  -0.0130801   0.0249344   0.0092689  -0.0233032   0.0155788  -0.0171073
           19          20          21
    1  -0.0131558  -0.0070532  -0.0029170
    2  -0.0030336   0.0018568  -0.0038993
    3   0.0083541   0.0081023   0.0021055
 Max gradient component =       3.022E-02
 RMS gradient           =       1.142E-02
 Computing fast CPCM-SWIG gradient
 Updating gradient with PCM contributions...
 -- total gradient after adding PCM contribution --
---------------------------------------------------
  Atom         X              Y              Z     
---------------------------------------------------
   1       0.001799       0.000415      -0.002586
   2       0.006058       0.001566      -0.004535
   3       0.000167       0.001550       0.000625
   4      -0.001563      -0.001562       0.000573
   5       0.003404       0.003266      -0.000216
   6       0.000955       0.001781      -0.001798
   7       0.001732      -0.004049      -0.000225
   8      -0.000253       0.003255       0.001248
   9       0.002695      -0.000755       0.000684
  10       0.000256       0.003088       0.001895
  11      -0.000150      -0.002580      -0.001602
  12       0.002347      -0.000125      -0.002147
  13      -0.002959       0.000336      -0.001806
  14       0.004497       0.005287       0.005400
  15       0.000097       0.002927       0.001529
  16      -0.002132      -0.004880      -0.004957
  17       0.001435      -0.006756       0.004185
  18      -0.002052       0.005514      -0.004671
  19      -0.009887      -0.002447       0.004558
  20      -0.002955      -0.000187       0.003656
  21      -0.003492      -0.005647       0.000191
---------------------------------------------------
 Number of fixed atoms: 0
 Gradient time:  CPU 545.33 s  wall 44.03 s
 Geometry Optimization Parameters
   NAtoms,    NIC,     NZ,  NCons,   NDum,   NFix, NCnnct, MaxDiis
       21     138       0       0       0       0       0       0


** GEOMETRY OPTIMIZATION IN DELOCALIZED INTERNAL COORDINATES **
   Searching for a Minimum

   Optimization Cycle:   1

                       Coordinates (Angstroms)
     ATOM                X               Y               Z
      1  C         0.2048308176    0.1989385979    0.9466775295
      2  C         0.1259087446   -0.7906902606    2.0924191477
      3  C        -3.0395165191   -2.3127851323    0.6194184976
      4  C        -2.0395757662   -2.1716481471   -0.4547949475
      5  C        -1.2175534998   -1.1342485154   -0.6590947610
      6  C        -1.1199088002    0.1551411541    0.1219196032
      7  C        -1.0761796018    1.3883896346   -0.8920377876
      8  H         0.2724921387    1.2037541078    1.3963315799
      9  H         1.0954210071   -1.2171453025    2.4067584509
     10  H        -3.1410927402   -1.4980259909    1.3485108787
     11  H        -1.9745234238   -3.0336104685   -1.1160535227
     12  H        -0.5001956076   -1.2191947032   -1.4738600377
     13  H        -1.9768886986    1.3490111644   -1.5091221887
     14  O         0.0967405045    1.3877963758   -1.6762391265
     15  H        -1.0714234550    2.2958829467   -0.2868245949
     16  H        -0.0380105845    0.7963875460   -2.4356622457
     17  O         1.3500187944   -0.1301934458    0.1952881826
     18  H         1.3431303341    0.4781635703   -0.5714221550
     19  O        -0.9115055520   -1.0914661023    2.6451122508
     20  O        -2.1665324789    0.4613895402    0.9281457586
     21  O        -3.7318916133   -3.3192690689    0.7089304878
   Point Group: c1    Number of degrees of freedom:    57


   Energy is   -648.179971094


 Attempting to generate delocalized internal coordinates
 Initial Hessian constructed with Jon Baker's OPTIMIZE code

 57 Hessian modes will be used to form the next step
  Hessian Eigenvalues:
     0.002000    0.002000    0.007060    0.007067    0.007771    0.012571
     0.012579    0.014200    0.014498    0.017126    0.021902    0.030440
     0.049156    0.050740    0.053669    0.053685    0.060490    0.065566
     0.078453    0.079019    0.113575    0.138765    0.159967    0.159968
     0.160000    0.160000    0.160000    0.160000    0.171880    0.174188
     0.188724    0.201525    0.220003    0.220003    0.220011    0.220012
     0.221771    0.240005    0.267274    0.307531    0.312859    0.331547
     0.333618    0.338981    0.345220    0.347201    0.349423    0.350057
     0.352235    0.438566    0.442123    0.516245    0.529848    0.537283
     0.573678    0.932403    0.984017

 Minimum search - taking simple RFO step
 Searching for Lamda that Minimizes Along All modes
 Value Taken    Lamda =  -0.00140622
 Step Taken.  Stepsize is  0.208103

                             Maximum     Tolerance    Cnvgd?
         Gradient           0.009972      0.000300      NO
         Displacement       0.082547      0.001200      NO
         Energy change     *********      0.000001      NO


 New Cartesian Coordinates Obtained by Inverse Iteration

 Displacement from previous Coordinates is:  0.499748
 ----------------------------------------------------------------
             Standard Nuclear Orientation (Angstroms)
    I     Atom           X                Y                Z
 ----------------------------------------------------------------
    1      C       0.2096175006     0.1858221603     0.9503476528
    2      C       0.1110363136    -0.7490187001     2.1361055226
    3      C      -3.0115508729    -2.3262698618     0.6024968980
    4      C      -2.0341960968    -2.1658178544    -0.4812493746
    5      C      -1.2208737419    -1.1283882149    -0.6768376822
    6      C      -1.1125579923     0.1473683445     0.1184940820
    7      C      -1.0855516263     1.3927047966    -0.8819489612
    8      H       0.2989971399     1.1992201432     1.3619853771
    9      H       1.0659348128    -1.1881108475     2.4616578583
   10      H      -3.1023831479    -1.5334999683     1.3488142977
   11      H      -1.9767825756    -3.0104156320    -1.1580019177
   12      H      -0.5208138680    -1.1994131677    -1.5015586162
   13      H      -2.0025815579     1.3672287957    -1.4655277428
   14      O       0.0533334080     1.3924068513    -1.7113179714
   15      H      -1.0529229951     2.2869860093    -0.2669894255
   16      H      -0.1062700771     0.8284249891    -2.4776983252
   17      O       1.3599981141    -0.1937639992     0.2315015917
   18      H       1.3975130258     0.3645613486    -0.5626620858
   19      O      -0.9236152029    -0.9988904367     2.7059749922
   20      O      -2.1578881606     0.4539447250     0.9189722555
   21      O      -3.7046983994    -3.3285019805     0.6818425748
 ----------------------------------------------------------------
 Nuclear Repulsion Energy =         735.87918322 hartrees
 There are       46 alpha and       45 beta electrons
 Discretize the solute cavity surface with Lebedev spheres
	Using 110 Lebedev grid points for each H atom
	Using 194 Lebedev grid points for other atoms
	Atomic van der Waals radii will be scaled by 1.20
 Remove points where switching function is < 1.0e-08
 Keep 1620 surface tesserae and discard 1698 interior tesserae
 Molecular Surface Area = 185.854 Angst**2
 Applying Cartesian multipole field
    Component          Value
    ---------          -----
     (2,0,0)        1.00000E-11
     (0,2,0)        2.00000E-11
     (0,0,2)       -3.00000E-11
 Nucleus-field energy     =     0.0000000093 hartrees
 Requested basis set is 6-311++G(2df,2p)
 There are 150 shells and 498 basis functions
 A cutoff of  1.0D-12 yielded   9841 shell pairs
 There are    108009 function pairs (    134650 Cartesian)
 Smallest overlap matrix eigenvalue = 2.69E-06
 Guess MOs from SCF MO coefficient file

 -----------------------------------------------------------------------
  General SCF calculation program by
  Eric Jon Sundstrom, Paul Horn, Yuezhi Mao, Dmitri Zuev, Alec White,
  David Stuck, Shaama M.S., Shane Yost, Joonho Lee, David Small,
  Daniel Levine, Susi Lehtola, Hugh Burton, Evgeny Epifanovsky,
  Bang C. Huynh
 -----------------------------------------------------------------------
 Exchange:     0.1500 Hartree-Fock + 1.0000 wB97M-V + LR-HF
 Correlation:  1.0000 wB97M-V
 Using SG-2 standard quadrature grid
 Nonlocal Correlation:  VV10 with C = 0.0100 and b = 6.00 and scale = 1.00000
 Grid used for NLC:  SG-1 standard quadrature
 
 Citation of the SMD model:
 Marenich, A.V.; Cramer, C.J.; Truhlar, D.G.
 J. Phys. Chem. B 2009, 113, 6378-6396.
 iSolventCode=           1
 Solvent: water                                                           
 
 vradii
            1           2           3           4           5           6
    1   1.8500000   1.8500000   1.8500000   1.8500000   1.8500000   1.8500000
            7           8           9          10          11          12
    1   1.8500000   1.2000000   1.2000000   1.2000000   1.2000000   1.2000000
           13          14          15          16          17          18
    1   1.2000000   1.5200000   1.2000000   1.2000000   1.5200000   1.2000000
           19          20          21
    1   1.5200000   1.5200000   1.5200000
 -------------------------------------------------------
 OpenMP BLAS3 based DFT computing Module                
 Release: version 1.0, May 2013, Q-Chem Inc. Pittsburgh 
 -------------------------------------------------------
 A unrestricted SCF calculation will be
 performed using Roothaan-Hall, DIIS, GDM
 SCF converges when RMS gradient is below 1.0e-07
 ---------------------------------------
  Cycle       Energy         DIIS error
 ---------------------------------------
    1    -648.1326274446      2.79e-04  Roothaan Step
 ---------------------------------------
  Cycle       Energy         DIIS error
 ---------------------------------------
    1    -648.1758323282      2.82e-04  
    2    -648.1806793076      3.35e-04  Done DIIS. Switching to GDM
 ---------------------------------------
  Cycle       Energy        RMS Gradient
 ---------------------------------------
    1    -648.1806793076      2.60e-02   Normal BFGS step
    2    -648.1759037504      4.33e-02  Line search: overstep
    3    -648.1900409749      4.91e-03   Normal BFGS step
    4    -648.1903952255      3.99e-03   Normal BFGS step
    5    -648.1904693203      6.65e-04   Normal BFGS step
    6    -648.1904929872      7.11e-04   Normal BFGS step
    7    -648.1904957027      3.57e-04   Normal BFGS step
    8    -648.1904968190      2.77e-04   Normal BFGS step
    9    -648.1904972463      1.83e-04   Normal BFGS step
   10    -648.1904974526      1.68e-04   Normal BFGS step
   11    -648.1904976982      1.52e-04   Normal BFGS step
   12    -648.1904979021      1.26e-04   Normal BFGS step
   13    -648.1904981218      1.15e-04   Normal BFGS step
   14    -648.1904982671      1.00e-04   Normal BFGS step
   15    -648.1904983135      2.42e-05   Normal BFGS step
   16    -648.1904983193      1.34e-05   Normal BFGS step
   17    -648.1904983220      8.16e-06   Normal BFGS step
   18    -648.1904983225      5.07e-06   Normal BFGS step
   19    -648.1904983227      3.22e-06   Normal BFGS step
   20    -648.1904983227      1.94e-06   Normal BFGS step
   21    -648.1904983228      7.29e-07   Normal BFGS step
   22    -648.1904983228      3.09e-07   Normal BFGS step
   23    -648.1904983228      1.55e-07   Normal BFGS step
   24    -648.1904983229      6.93e-08  Convergence criterion met
 ---------------------------------------
 SCF time:   CPU 4827.01s  wall 333.00s 
<S^2> =          0.755629536
(3)  G-ENP(liq) elect-nuc-pol free energy of system     -648.190498323 a.u.
(4)  G-CDS(liq) cavity-dispersion-solvent structure 
     free energy                                                6.3723 kcal/mol
(6)  G-S(liq) free energy of system                     -648.180343465 a.u.
 SCF   energy in the final basis set =     -648.1803434649
 Total energy in the final basis set =     -648.1803434649
 
 --------------------------------------------------------------
 
                    Orbital Energies (a.u.)
 --------------------------------------------------------------
 
 Alpha MOs
 -- Occupied --
-19.3841 -19.3618 -19.3601 -19.3515 -19.3405 -10.4499 -10.4370 -10.4317
-10.4202 -10.4164 -10.3735 -10.3564  -1.2124  -1.1913  -1.1847  -1.1739
 -1.1712  -0.9392  -0.8901  -0.8460  -0.7898  -0.7409  -0.7066  -0.6726
 -0.6569  -0.6351  -0.6250  -0.6106  -0.5891  -0.5768  -0.5704  -0.5551
 -0.5541  -0.5237  -0.5196  -0.5185  -0.5067  -0.4930  -0.4813  -0.4570
 -0.4391  -0.4095  -0.3955  -0.3841  -0.3687  -0.3566
 -- Virtual --
  0.0078   0.0240   0.0371   0.0374   0.0391   0.0413   0.0569   0.0611
  0.0680   0.0733   0.0754   0.1009   0.1013   0.1052   0.1091   0.1165
  0.1221   0.1307   0.1383   0.1452   0.1547   0.1578   0.1602   0.1641
  0.1670   0.1698   0.1751   0.1789   0.1828   0.1866   0.1882   0.1990
  0.2014   0.2069   0.2135   0.2260   0.2288   0.2345   0.2579   0.2607
  0.2703   0.2709   0.2826   0.2894   0.2896   0.3015   0.3068   0.3103
  0.3171   0.3215   0.3250   0.3316   0.3371   0.3407   0.3457   0.3542
  0.3575   0.3586   0.3684   0.3692   0.3770   0.3778   0.3879   0.3907
  0.3990   0.4063   0.4073   0.4108   0.4193   0.4343   0.4365   0.4410
  0.4634   0.4726   0.4856   0.4943   0.5013   0.5218   0.5341   0.5407
  0.5670   0.5776   0.5928   0.5970   0.6067   0.6126   0.6297   0.6335
  0.6449   0.6502   0.6510   0.6646   0.6684   0.6733   0.6781   0.6874
  0.7022   0.7049   0.7105   0.7183   0.7300   0.7402   0.7462   0.7478
  0.7600   0.7770   0.7802   0.7949   0.8072   0.8114   0.8231   0.8431
  0.8538   0.8648   0.8767   0.8791   0.9023   0.9163   0.9224   0.9335
  0.9556   0.9866   0.9982   1.0208   1.0351   1.0381   1.0541   1.0587
  1.0745   1.0851   1.0873   1.1000   1.1192   1.1253   1.1400   1.1440
  1.1507   1.1588   1.1642   1.1765   1.1930   1.1984   1.2068   1.2155
  1.2186   1.2290   1.2339   1.2531   1.2561   1.2699   1.2753   1.2831
  1.2885   1.2920   1.3070   1.3292   1.3379   1.3499   1.3552   1.3604
  1.3773   1.3952   1.3991   1.4275   1.4370   1.4390   1.4516   1.4587
  1.4716   1.4885   1.4968   1.4988   1.5191   1.5369   1.5421   1.5484
  1.5720   1.5938   1.6076   1.6180   1.6264   1.6361   1.6469   1.6602
  1.6758   1.6847   1.6915   1.7057   1.7209   1.7513   1.7618   1.7817
  1.8190   1.8344   1.8421   1.8697   1.8802   1.9137   1.9224   1.9401
  1.9706   1.9775   2.0000   2.0457   2.0759   2.0848   2.1055   2.1090
  2.1099   2.1769   2.1885   2.2327   2.2766   2.2836   2.3582   2.3775
  2.4011   2.4207   2.4435   2.4990   2.5076   2.5645   2.5976   2.6030
  2.6423   2.6716   2.6760   2.6829   2.7001   2.7133   2.7732   2.7929
  2.8143   2.8216   2.8320   2.8502   2.8581   2.8844   2.8872   2.9078
  2.9194   2.9368   2.9572   2.9678   2.9740   3.0003   3.0161   3.0270
  3.0362   3.0751   3.0854   3.0985   3.1289   3.1511   3.1584   3.1695
  3.1846   3.1902   3.2098   3.2149   3.2400   3.2452   3.2649   3.2777
  3.2973   3.3094   3.3278   3.3551   3.3642   3.3742   3.3920   3.3998
  3.4081   3.4277   3.4330   3.4705   3.4787   3.5050   3.5123   3.5203
  3.5344   3.5530   3.5722   3.5861   3.5991   3.6187   3.6236   3.6467
  3.6544   3.6616   3.6735   3.6889   3.6987   3.7073   3.7198   3.7302
  3.7764   3.7997   3.8031   3.8226   3.8399   3.8517   3.8637   3.8754
  3.8877   3.8941   3.9078   3.9277   3.9491   3.9599   3.9794   3.9831
  4.0017   4.0331   4.0653   4.0854   4.0991   4.1030   4.1279   4.1599
  4.1902   4.1957   4.2042   4.2263   4.2360   4.2465   4.2659   4.2787
  4.2958   4.3190   4.3345   4.3424   4.3687   4.3941   4.4301   4.4510
  4.4688   4.4757   4.4854   4.5193   4.5247   4.5455   4.5837   4.6070
  4.6348   4.6562   4.6875   4.7307   4.7476   4.7540   4.8731   4.8878
  4.9040   4.9909   5.0499   5.1250   5.1373   5.1456   5.1636   5.1812
  5.1865   5.1938   5.2341   5.2438   5.2545   5.2731   5.2758   5.2857
  5.3073   5.3455   5.3482   5.3540   5.3811   5.4007   5.4091   5.4208
  5.4384   5.4477   5.4591   5.5000   5.5199   5.5356   5.5636   5.5691
  5.5746   5.5845   5.6062   5.6421   5.6573   5.6687   5.6952   5.7074
  5.7296   5.7507   5.7788   5.8465   5.9064   5.9341   5.9847   6.0443
  6.0568   6.0690   6.1116   6.2633   6.3220   6.3913   6.6269   6.6664
  6.7554   6.7917   6.8943   6.9446   6.9662   6.9826   7.0068   7.0268
  7.0677   7.1043   7.1327   7.1863   7.2132   7.2825   7.3050   7.3159
  7.3384   7.3537   7.3624   7.4154   7.4611   7.4831   7.5295   7.5483
  7.5669   7.6611   7.7089   7.7572   7.7735   7.7781   7.8116   7.8511
 24.4530  24.6957  24.7138  24.8515  24.9930  25.0100  25.2463  50.6184
 50.6455  50.6495  50.7152  50.7225
 
 Beta MOs
 -- Occupied --
-19.3637 -19.3607 -19.3586 -19.3513 -19.3403 -10.4500 -10.4370 -10.4320
-10.4194 -10.4138 -10.3735 -10.3562  -1.2084  -1.1862  -1.1844  -1.1699
 -1.1380  -0.9345  -0.8840  -0.8393  -0.7877  -0.7369  -0.7047  -0.6666
 -0.6521  -0.6326  -0.6201  -0.6043  -0.5849  -0.5723  -0.5655  -0.5499
 -0.5425  -0.5188  -0.5169  -0.5139  -0.5047  -0.4846  -0.4575  -0.4307
 -0.4135  -0.3899  -0.3823  -0.3787  -0.3605
 -- Virtual --
 -0.0726   0.0097   0.0243   0.0374   0.0378   0.0393   0.0417   0.0569
  0.0615   0.0682   0.0733   0.0758   0.1010   0.1016   0.1054   0.1092
  0.1169   0.1223   0.1307   0.1387   0.1453   0.1553   0.1586   0.1608
  0.1644   0.1671   0.1698   0.1753   0.1793   0.1832   0.1871   0.1887
  0.1991   0.2021   0.2073   0.2139   0.2261   0.2292   0.2356   0.2585
  0.2620   0.2710   0.2717   0.2851   0.2900   0.2909   0.3027   0.3075
  0.3151   0.3180   0.3226   0.3296   0.3333   0.3377   0.3415   0.3465
  0.3552   0.3586   0.3591   0.3689   0.3710   0.3774   0.3800   0.3895
  0.3913   0.4003   0.4082   0.4093   0.4125   0.4209   0.4359   0.4391
  0.4430   0.4659   0.4737   0.4864   0.4952   0.5045   0.5230   0.5352
  0.5415   0.5685   0.5785   0.5943   0.5979   0.6079   0.6134   0.6307
  0.6344   0.6460   0.6511   0.6516   0.6651   0.6690   0.6741   0.6797
  0.6883   0.7027   0.7056   0.7119   0.7204   0.7310   0.7417   0.7470
  0.7488   0.7614   0.7777   0.7810   0.7953   0.8078   0.8127   0.8236
  0.8453   0.8545   0.8658   0.8777   0.8795   0.9033   0.9168   0.9232
  0.9344   0.9573   0.9877   0.9989   1.0231   1.0374   1.0397   1.0564
  1.0596   1.0758   1.0860   1.0891   1.1026   1.1217   1.1258   1.1415
  1.1482   1.1524   1.1616   1.1650   1.1780   1.1939   1.1999   1.2092
  1.2183   1.2210   1.2301   1.2370   1.2547   1.2577   1.2718   1.2777
  1.2848   1.2911   1.2952   1.3080   1.3312   1.3390   1.3517   1.3568
  1.3614   1.3788   1.3974   1.4030   1.4336   1.4381   1.4418   1.4538
  1.4606   1.4736   1.4902   1.4987   1.5010   1.5206   1.5395   1.5437
  1.5498   1.5734   1.5949   1.6092   1.6209   1.6308   1.6378   1.6489
  1.6649   1.6781   1.6859   1.6937   1.7071   1.7250   1.7556   1.7683
  1.7868   1.8205   1.8416   1.8441   1.8717   1.8875   1.9218   1.9316
  1.9500   1.9732   1.9899   2.0028   2.0546   2.0788   2.0878   2.1092
  2.1120   2.1166   2.1784   2.1917   2.2374   2.2811   2.2892   2.3594
  2.3812   2.4051   2.4218   2.4459   2.5007   2.5087   2.5657   2.6027
  2.6097   2.6441   2.6730   2.6782   2.6844   2.7016   2.7159   2.7750
  2.7953   2.8176   2.8237   2.8338   2.8517   2.8594   2.8860   2.8878
  2.9087   2.9209   2.9381   2.9583   2.9694   2.9753   3.0016   3.0174
  3.0288   3.0378   3.0763   3.0860   3.1007   3.1312   3.1532   3.1597
  3.1721   3.1858   3.1932   3.2119   3.2164   3.2410   3.2475   3.2678
  3.2803   3.2983   3.3107   3.3303   3.3569   3.3659   3.3756   3.3933
  3.4007   3.4096   3.4286   3.4346   3.4724   3.4797   3.5072   3.5140
  3.5221   3.5371   3.5540   3.5733   3.5892   3.6011   3.6209   3.6256
  3.6485   3.6573   3.6640   3.6759   3.6906   3.7010   3.7112   3.7208
  3.7332   3.7784   3.8024   3.8049   3.8240   3.8408   3.8532   3.8644
  3.8771   3.8904   3.8960   3.9101   3.9288   3.9529   3.9616   3.9816
  3.9854   4.0046   4.0345   4.0680   4.0897   4.1008   4.1045   4.1306
  4.1616   4.1924   4.1981   4.2069   4.2286   4.2381   4.2480   4.2664
  4.2798   4.2976   4.3202   4.3360   4.3439   4.3710   4.3953   4.4321
  4.4529   4.4704   4.4769   4.4876   4.5213   4.5260   4.5469   4.5851
  4.6097   4.6363   4.6600   4.6894   4.7333   4.7489   4.7563   4.8754
  4.8902   4.9066   4.9939   5.0531   5.1302   5.1506   5.1746   5.1858
  5.1943   5.2016   5.2260   5.2366   5.2474   5.2646   5.2769   5.2797
  5.2920   5.3103   5.3531   5.3591   5.3769   5.4110   5.4163   5.4170
  5.4266   5.4586   5.4638   5.4800   5.5193   5.5288   5.5425   5.5675
  5.5703   5.5827   5.5906   5.6124   5.6448   5.6634   5.6712   5.6985
  5.7117   5.7398   5.7570   5.7836   5.8496   5.9103   5.9435   5.9877
  6.0464   6.0610   6.0919   6.1360   6.2724   6.3223   6.3926   6.6313
  6.6700   6.7569   6.7951   6.9109   6.9476   6.9837   7.0207   7.0312
  7.0726   7.1144   7.1306   7.1390   7.1871   7.2168   7.2847   7.3075
  7.3177   7.3399   7.3560   7.3667   7.4165   7.4657   7.5308   7.5495
  7.5612   7.5996   7.6646   7.7109   7.7592   7.7761   7.7939   7.8340
  7.8562  24.4530  24.6981  24.7144  24.8512  24.9930  25.0100  25.2463
 50.6199  50.6480  50.6605  50.7154  50.7240
 --------------------------------------------------------------
 
          Ground-State Mulliken Net Atomic Charges

     Atom                 Charge (a.u.)    Spin (a.u.)
  --------------------------------------------------------
      1 C                    -0.020861       0.033387
      2 C                    -0.064776      -0.001453
      3 C                    -0.133993       0.001847
      4 C                    -0.271978       0.011813
      5 C                    -0.234251      -0.011571
      6 C                     0.234136       0.025770
      7 C                    -0.279428       0.093428
      8 H                     0.283782      -0.001061
      9 H                     0.219006       0.007363
     10 H                     0.241577      -0.000862
     11 H                     0.287375       0.000567
     12 H                     0.315277      -0.000866
     13 H                     0.257180      -0.001503
     14 O                    -0.344527       0.030757
     15 H                     0.263489      -0.002484
     16 H                     0.346730      -0.000492
     17 O                    -0.401932       0.006234
     18 H                     0.348143      -0.000316
     19 O                    -0.337464       0.035966
     20 O                    -0.266125       0.767880
     21 O                    -0.441359       0.005597
  --------------------------------------------------------
  Sum of atomic charges =     0.000000
  Sum of spin   charges =     1.000000

 -----------------------------------------------------------------
                    Cartesian Multipole Moments
 -----------------------------------------------------------------
    Charge (ESU x 10^10)
                 0.0000
    Dipole Moment (Debye)
         X       5.4847      Y       5.3554      Z      -6.0760
       Tot       9.7816
    Quadrupole Moments (Debye-Ang)
        XX     -96.6123     XY     -20.3343     YY     -87.3200
        XZ      14.4331     YZ       7.5330     ZZ     -68.2789
    Octopole Moments (Debye-Ang^2)
       XXX     325.0907    XXY     124.2391    XYY     150.8092
       YYY     193.6010    XXZ     -54.5749    XYZ     -16.9369
       YYZ     -40.0570    XZZ      98.4182    YZZ      48.4751
       ZZZ    -115.3090
    Hexadecapole Moments (Debye-Ang^3)
      XXXX   -1816.5676   XXXY    -728.4604   XXYY    -735.3096
      XYYY    -697.9193   YYYY   -1358.0828   XXXZ     168.6716
      XXYZ     106.9422   XYYZ     110.2085   YYYZ     241.2397
      XXZZ    -388.0590   XYZZ    -164.9112   YYZZ    -333.9697
      XZZZ     155.0823   YZZZ     189.6928   ZZZZ    -782.5108
 -----------------------------------------------------------------
 Calculating analytic gradient of the SCF energy
 Gradient of CDS energy
            1           2           3           4           5           6
    1   0.0016938  -0.0008493  -0.0021351   0.0002624   0.0000750  -0.0031277
    2  -0.0003451  -0.0006529  -0.0017980  -0.0000983   0.0000743   0.0009450
    3  -0.0012723   0.0015662   0.0007754  -0.0004784  -0.0001552   0.0025680
            7           8           9          10          11          12
    1   0.0009887  -0.0000851   0.0002070   0.0003157   0.0000266   0.0000775
    2   0.0009894   0.0001630   0.0000304   0.0001112  -0.0001395   0.0000016
    3  -0.0013647  -0.0000299  -0.0001885  -0.0001609  -0.0001308  -0.0000041
           13          14          15          16          17          18
    1  -0.0001111  -0.0013459   0.0001595   0.0001993  -0.0017474   0.0004171
    2  -0.0002956  -0.0002225  -0.0000772   0.0000203   0.0004330   0.0000886
    3   0.0000054   0.0011754   0.0002830  -0.0004732   0.0010393  -0.0002027
           19          20          21
    1   0.0009172   0.0030943   0.0009675
    2   0.0003653  -0.0008746   0.0012817
    3  -0.0003952  -0.0023553  -0.0002015
 Gradient of SCF Energy
            1           2           3           4           5           6
    1   0.0030395  -0.0047272  -0.0022954  -0.0155628  -0.0008278  -0.0019292
    2  -0.0124877   0.0072786  -0.0013479  -0.0059156   0.0145379  -0.0071357
    3  -0.0079637  -0.0028707   0.0023465   0.0160616  -0.0017118   0.0071684
            7           8           9          10          11          12
    1   0.0201139   0.0016705   0.0065646   0.0012973   0.0021451   0.0120566
    2  -0.0180093   0.0124663  -0.0028077  -0.0027598  -0.0033964   0.0007231
    3   0.0017460   0.0035564   0.0023708  -0.0059143  -0.0051036  -0.0160813
           13          14          15          16          17          18
    1  -0.0116682  -0.0016569  -0.0000384  -0.0026764   0.0041561  -0.0007092
    2   0.0001835   0.0258906   0.0114791  -0.0188450  -0.0105895   0.0082750
    3  -0.0109370   0.0172747   0.0076976  -0.0193903   0.0165209  -0.0156440
           19          20          21
    1  -0.0049189  -0.0044340   0.0004007
    2  -0.0002348   0.0015343   0.0011610
    3   0.0042919   0.0051142   0.0014678
 Max gradient component =       2.589E-02
 RMS gradient           =       9.427E-03
 Computing fast CPCM-SWIG gradient
 Updating gradient with PCM contributions...
 -- total gradient after adding PCM contribution --
---------------------------------------------------
  Atom         X              Y              Z     
---------------------------------------------------
   1       0.001467      -0.000446       0.000361
   2       0.001875       0.001013      -0.000144
   3      -0.000099       0.000201       0.000883
   4       0.000345       0.000655      -0.000361
   5      -0.000778      -0.000822      -0.000156
   6      -0.000473       0.001475      -0.002253
   7      -0.000806      -0.001275       0.002371
   8      -0.000107      -0.000055       0.000052
   9      -0.000388      -0.000193       0.000109
  10      -0.000167      -0.000139      -0.000484
  11       0.000000      -0.000037       0.000057
  12      -0.000139      -0.000201       0.000185
  13       0.000320       0.000337      -0.000308
  14      -0.000430       0.002037      -0.002014
  15      -0.000235       0.000175      -0.000067
  16       0.000215      -0.000499      -0.000767
  17       0.001157      -0.002535       0.003935
  18      -0.000330       0.001091      -0.002184
  19      -0.001366       0.000066       0.000271
  20      -0.000239      -0.000733       0.000901
  21       0.000177      -0.000115      -0.000386
---------------------------------------------------
 Number of fixed atoms: 0
 Gradient time:  CPU 556.13 s  wall 45.09 s
 Geometry Optimization Parameters
   NAtoms,    NIC,     NZ,  NCons,   NDum,   NFix, NCnnct, MaxDiis
       21     138       0       0       0       0       0       0

 Cartesian Hessian Update
 Hessian updated using BFGS update


** GEOMETRY OPTIMIZATION IN DELOCALIZED INTERNAL COORDINATES **
   Searching for a Minimum

   Optimization Cycle:   2

                       Coordinates (Angstroms)
     ATOM                X               Y               Z
      1  C         0.2096175006    0.1858221603    0.9503476528
      2  C         0.1110363136   -0.7490187001    2.1361055226
      3  C        -3.0115508729   -2.3262698618    0.6024968980
      4  C        -2.0341960968   -2.1658178544   -0.4812493746
      5  C        -1.2208737419   -1.1283882149   -0.6768376822
      6  C        -1.1125579923    0.1473683445    0.1184940820
      7  C        -1.0855516263    1.3927047966   -0.8819489612
      8  H         0.2989971399    1.1992201432    1.3619853771
      9  H         1.0659348128   -1.1881108475    2.4616578583
     10  H        -3.1023831479   -1.5334999683    1.3488142977
     11  H        -1.9767825756   -3.0104156320   -1.1580019177
     12  H        -0.5208138680   -1.1994131677   -1.5015586162
     13  H        -2.0025815579    1.3672287957   -1.4655277428
     14  O         0.0533334080    1.3924068513   -1.7113179714
     15  H        -1.0529229951    2.2869860093   -0.2669894255
     16  H        -0.1062700771    0.8284249891   -2.4776983252
     17  O         1.3599981141   -0.1937639992    0.2315015917
     18  H         1.3975130258    0.3645613486   -0.5626620858
     19  O        -0.9236152029   -0.9988904367    2.7059749922
     20  O        -2.1578881606    0.4539447250    0.9189722555
     21  O        -3.7046983994   -3.3285019805    0.6818425748
   Point Group: c1    Number of degrees of freedom:    57


   Energy is   -648.180343465

 Hessian updated using BFGS update

 55 Hessian modes will be used to form the next step
  Hessian Eigenvalues:
     0.001969    0.003249    0.007060    0.007122    0.007632    0.012518
     0.012599    0.014136    0.014603    0.017116    0.021900    0.030349
     0.048987    0.049478    0.053666    0.056933    0.060199    0.067101
     0.078713    0.079247    0.112650    0.138871    0.144552    0.159969
     0.159970    0.160403    0.171921    0.176996    0.195384    0.198416
     0.217545    0.220003    0.220009    0.220142    0.238394    0.244288
     0.268609    0.308490    0.311391    0.332146    0.333927    0.340977
     0.345063    0.346097    0.349499    0.350199    0.351364    0.434526
     0.442128    0.477790    0.526657    0.536114    0.574667    0.916896
     0.958305

 Minimum search - taking simple RFO step
 Searching for Lamda that Minimizes Along All modes
 Value Taken    Lamda =  -0.00135721
 Calculated Step too Large.  Step scaled by  0.681925
 Step Taken.  Stepsize is  0.300000

                             Maximum     Tolerance    Cnvgd?
         Gradient           0.006123      0.000300      NO
         Displacement       0.112052      0.001200      NO
         Energy change     -0.000372      0.000001      NO


 New Cartesian Coordinates Obtained by Inverse Iteration

 Displacement from previous Coordinates is:  0.633019
 ----------------------------------------------------------------
             Standard Nuclear Orientation (Angstroms)
    I     Atom           X                Y                Z
 ----------------------------------------------------------------
    1      C       0.1837826241     0.1964309078     0.9621937934
    2      C       0.1303370044    -0.8067850958     2.0916763547
    3      C      -3.0241933902    -2.3045222216     0.6263063824
    4      C      -2.0521307289    -2.1611810661    -0.4590610323
    5      C      -1.2368681860    -1.1320745690    -0.6631419092
    6      C      -1.1258145225     0.1506807772     0.1152664716
    7      C      -1.0694045487     1.3775392016    -0.9051472971
    8      H       0.2267929103     1.1844517900     1.4298150770
    9      H       1.1038120482    -1.2148540902     2.3922575696
   10      H      -3.1014244648    -1.5132337166     1.3710051049
   11      H      -1.9988391656    -3.0090588086    -1.1272915720
   12      H      -0.5388979884    -1.2144099657    -1.4847230146
   13      H      -1.9691521779     1.3436182162    -1.5086577591
   14      O       0.0898832599     1.3496837260    -1.7013281093
   15      H      -1.0457211840     2.2787832528    -0.3060206884
   16      H      -0.0487540280     0.7818146405    -2.4625410300
   17      O       1.3571670949    -0.0812979446     0.2343021954
   18      H       1.3918112765     0.5182978541    -0.5216851853
   19      O      -0.8840573039    -1.1374074548     2.6476823629
   20      O      -2.1803489660     0.4880034825     0.8855019791
   21      O      -3.7242355633    -3.2979014156     0.7179913063
 ----------------------------------------------------------------
 Nuclear Repulsion Energy =         737.65200949 hartrees
 There are       46 alpha and       45 beta electrons
 Discretize the solute cavity surface with Lebedev spheres
	Using 110 Lebedev grid points for each H atom
	Using 194 Lebedev grid points for other atoms
	Atomic van der Waals radii will be scaled by 1.20
 Remove points where switching function is < 1.0e-08
 Keep 1623 surface tesserae and discard 1695 interior tesserae
 Molecular Surface Area = 184.276 Angst**2
 Applying Cartesian multipole field
    Component          Value
    ---------          -----
     (2,0,0)        1.00000E-11
     (0,2,0)        2.00000E-11
     (0,0,2)       -3.00000E-11
 Nucleus-field energy     =     0.0000000097 hartrees
 Requested basis set is 6-311++G(2df,2p)
 There are 150 shells and 498 basis functions
 A cutoff of  1.0D-12 yielded   9853 shell pairs
 There are    108232 function pairs (    135003 Cartesian)
 Smallest overlap matrix eigenvalue = 2.57E-06
 Guess MOs from SCF MO coefficient file

 -----------------------------------------------------------------------
  General SCF calculation program by
  Eric Jon Sundstrom, Paul Horn, Yuezhi Mao, Dmitri Zuev, Alec White,
  David Stuck, Shaama M.S., Shane Yost, Joonho Lee, David Small,
  Daniel Levine, Susi Lehtola, Hugh Burton, Evgeny Epifanovsky,
  Bang C. Huynh
 -----------------------------------------------------------------------
 Exchange:     0.1500 Hartree-Fock + 1.0000 wB97M-V + LR-HF
 Correlation:  1.0000 wB97M-V
 Using SG-2 standard quadrature grid
 Nonlocal Correlation:  VV10 with C = 0.0100 and b = 6.00 and scale = 1.00000
 Grid used for NLC:  SG-1 standard quadrature
 
 Citation of the SMD model:
 Marenich, A.V.; Cramer, C.J.; Truhlar, D.G.
 J. Phys. Chem. B 2009, 113, 6378-6396.
 iSolventCode=           1
 Solvent: water                                                           
 
 vradii
            1           2           3           4           5           6
    1   1.8500000   1.8500000   1.8500000   1.8500000   1.8500000   1.8500000
            7           8           9          10          11          12
    1   1.8500000   1.2000000   1.2000000   1.2000000   1.2000000   1.2000000
           13          14          15          16          17          18
    1   1.2000000   1.5200000   1.2000000   1.2000000   1.5200000   1.2000000
           19          20          21
    1   1.5200000   1.5200000   1.5200000
 -------------------------------------------------------
 OpenMP BLAS3 based DFT computing Module                
 Release: version 1.0, May 2013, Q-Chem Inc. Pittsburgh 
 -------------------------------------------------------
 A unrestricted SCF calculation will be
 performed using Roothaan-Hall, DIIS, GDM
 SCF converges when RMS gradient is below 1.0e-07
 ---------------------------------------
  Cycle       Energy         DIIS error
 ---------------------------------------
    1    -648.1296116316      3.14e-04  Roothaan Step
 ---------------------------------------
  Cycle       Energy         DIIS error
 ---------------------------------------
    1    -648.1752408729      2.90e-04  
    2    -648.1798110070      3.50e-04  Done DIIS. Switching to GDM
 ---------------------------------------
  Cycle       Energy        RMS Gradient
 ---------------------------------------
    1    -648.1798110070      2.24e-02   Normal BFGS step
    2    -648.1744186882      3.65e-02  Line search: overstep
    3    -648.1899162947      4.41e-03   Normal BFGS step
    4    -648.1902912160      3.53e-03   Normal BFGS step
    5    -648.1903725766      1.05e-03   Normal BFGS step
    6    -648.1903984418      8.82e-04   Normal BFGS step
    7    -648.1904037067      7.56e-04   Normal BFGS step
    8    -648.1904080025      6.47e-04   Normal BFGS step
    9    -648.1904121266      5.95e-04   Normal BFGS step
   10    -648.1904155816      5.95e-04   Normal BFGS step
   11    -648.1904196983      6.94e-04   Normal BFGS step
   12    -648.1904219965      3.10e-04   Normal BFGS step
   13    -648.1904229711      1.76e-04   Normal BFGS step
   14    -648.1904232576      1.27e-04   Normal BFGS step
   15    -648.1904233398      4.06e-05   Normal BFGS step
   16    -648.1904233517      2.20e-05   Normal BFGS step
   17    -648.1904233569      1.36e-05   Normal BFGS step
   18    -648.1904233581      8.23e-06   Normal BFGS step
   19    -648.1904233586      4.40e-06   Normal BFGS step
   20    -648.1904233587      2.63e-06   Normal BFGS step
   21    -648.1904233588      1.39e-06   Normal BFGS step
   22    -648.1904233588      3.61e-07   Normal BFGS step
   23    -648.1904233588      1.75e-07   Normal BFGS step
   24    -648.1904233589      8.78e-08  Convergence criterion met
 ---------------------------------------
 SCF time:   CPU 4983.41s  wall 346.00s 
<S^2> =          0.755611006
(3)  G-ENP(liq) elect-nuc-pol free energy of system     -648.190423359 a.u.
(4)  G-CDS(liq) cavity-dispersion-solvent structure 
     free energy                                                6.3498 kcal/mol
(6)  G-S(liq) free energy of system                     -648.180304247 a.u.
 SCF   energy in the final basis set =     -648.1803042469
 Total energy in the final basis set =     -648.1803042469
 
 --------------------------------------------------------------
 
                    Orbital Energies (a.u.)
 --------------------------------------------------------------
 
 Alpha MOs
 -- Occupied --
-19.3848 -19.3628 -19.3583 -19.3478 -19.3403 -10.4481 -10.4362 -10.4319
-10.4184 -10.4174 -10.3730 -10.3556  -1.2128  -1.1946  -1.1861  -1.1766
 -1.1697  -0.9413  -0.8911  -0.8474  -0.7910  -0.7423  -0.7073  -0.6734
 -0.6605  -0.6353  -0.6260  -0.6116  -0.5900  -0.5775  -0.5700  -0.5573
 -0.5565  -0.5253  -0.5206  -0.5195  -0.5074  -0.4913  -0.4813  -0.4574
 -0.4386  -0.4099  -0.3963  -0.3833  -0.3693  -0.3569
 -- Virtual --
  0.0079   0.0244   0.0371   0.0385   0.0395   0.0415   0.0569   0.0609
  0.0671   0.0735   0.0763   0.1009   0.1012   0.1056   0.1088   0.1174
  0.1232   0.1304   0.1389   0.1460   0.1546   0.1570   0.1606   0.1644
  0.1662   0.1721   0.1755   0.1793   0.1830   0.1869   0.1875   0.1984
  0.2016   0.2084   0.2140   0.2253   0.2286   0.2339   0.2596   0.2611
  0.2696   0.2736   0.2836   0.2909   0.2923   0.3006   0.3055   0.3104
  0.3178   0.3237   0.3257   0.3334   0.3367   0.3422   0.3472   0.3541
  0.3594   0.3605   0.3696   0.3714   0.3755   0.3793   0.3888   0.3919
  0.4013   0.4055   0.4091   0.4118   0.4171   0.4344   0.4352   0.4430
  0.4616   0.4711   0.4889   0.4942   0.4969   0.5206   0.5326   0.5424
  0.5680   0.5789   0.5944   0.5985   0.6103   0.6120   0.6317   0.6334
  0.6436   0.6479   0.6514   0.6637   0.6699   0.6756   0.6850   0.6892
  0.7033   0.7042   0.7108   0.7199   0.7312   0.7389   0.7482   0.7498
  0.7586   0.7781   0.7794   0.7948   0.8105   0.8134   0.8256   0.8446
  0.8594   0.8653   0.8746   0.8877   0.9027   0.9169   0.9209   0.9347
  0.9570   0.9846   1.0012   1.0265   1.0343   1.0426   1.0526   1.0615
  1.0721   1.0860   1.0871   1.1062   1.1199   1.1284   1.1427   1.1520
  1.1555   1.1623   1.1665   1.1766   1.1915   1.1972   1.2085   1.2129
  1.2198   1.2334   1.2423   1.2579   1.2589   1.2696   1.2750   1.2827
  1.2926   1.2967   1.3075   1.3241   1.3410   1.3517   1.3564   1.3626
  1.3875   1.3967   1.4006   1.4192   1.4378   1.4426   1.4567   1.4633
  1.4671   1.4899   1.5003   1.5025   1.5167   1.5301   1.5431   1.5503
  1.5801   1.5945   1.6093   1.6134   1.6192   1.6351   1.6455   1.6622
  1.6742   1.6864   1.6968   1.7048   1.7321   1.7483   1.7659   1.7856
  1.8121   1.8421   1.8468   1.8667   1.8830   1.9096   1.9277   1.9490
  1.9728   1.9930   2.0011   2.0664   2.0838   2.0922   2.1108   2.1149
  2.1531   2.1835   2.2001   2.2323   2.2733   2.2937   2.3669   2.3820
  2.4072   2.4207   2.4494   2.4972   2.5105   2.5693   2.6000   2.6102
  2.6495   2.6746   2.6773   2.6879   2.6957   2.7138   2.7738   2.7967
  2.8172   2.8185   2.8338   2.8524   2.8586   2.8878   2.8958   2.9098
  2.9201   2.9403   2.9647   2.9712   2.9781   2.9987   3.0157   3.0301
  3.0407   3.0755   3.0871   3.0992   3.1322   3.1502   3.1562   3.1725
  3.1846   3.1965   3.2105   3.2195   3.2422   3.2515   3.2674   3.2771
  3.3047   3.3118   3.3304   3.3576   3.3636   3.3799   3.3943   3.4031
  3.4150   3.4307   3.4330   3.4761   3.4773   3.5032   3.5152   3.5196
  3.5365   3.5549   3.5777   3.5836   3.6081   3.6193   3.6270   3.6474
  3.6559   3.6692   3.6726   3.6873   3.7047   3.7105   3.7263   3.7344
  3.7776   3.8006   3.8075   3.8255   3.8480   3.8516   3.8676   3.8799
  3.8956   3.8977   3.9123   3.9358   3.9512   3.9669   3.9793   3.9925
  4.0064   4.0399   4.0739   4.0946   4.1045   4.1077   4.1302   4.1589
  4.1917   4.1940   4.2141   4.2343   4.2409   4.2497   4.2748   4.2864
  4.3058   4.3200   4.3400   4.3473   4.3803   4.4019   4.4447   4.4539
  4.4765   4.4912   4.4946   4.5305   4.5344   4.5545   4.5872   4.6118
  4.6396   4.6573   4.7082   4.7388   4.7549   4.7608   4.8801   4.8902
  4.9126   5.0010   5.0588   5.1306   5.1438   5.1501   5.1670   5.1805
  5.1883   5.1955   5.2346   5.2490   5.2571   5.2754   5.2790   5.2903
  5.3134   5.3446   5.3514   5.3539   5.3887   5.4089   5.4138   5.4241
  5.4428   5.4515   5.4623   5.5028   5.5190   5.5466   5.5686   5.5747
  5.5813   5.5909   5.6152   5.6499   5.6615   5.6864   5.6995   5.7243
  5.7306   5.7640   5.7914   5.8544   5.9158   5.9392   5.9897   6.0598
  6.0695   6.0792   6.1257   6.2768   6.3321   6.4081   6.6369   6.6785
  6.7697   6.8072   6.9012   6.9454   6.9668   6.9882   7.0118   7.0307
  7.0705   7.1266   7.1416   7.1991   7.2393   7.3043   7.3154   7.3209
  7.3418   7.3597   7.3819   7.4221   7.4774   7.4946   7.5271   7.5501
  7.5717   7.6744   7.7260   7.7609   7.7755   7.7805   7.8088   7.8558
 24.4581  24.7074  24.7224  24.8663  25.0097  25.0237  25.2691  50.6263
 50.6511  50.6591  50.7203  50.7326
 
 Beta MOs
 -- Occupied --
-19.3645 -19.3616 -19.3572 -19.3476 -19.3401 -10.4482 -10.4361 -10.4322
-10.4176 -10.4147 -10.3730 -10.3554  -1.2095  -1.1894  -1.1858  -1.1688
 -1.1404  -0.9366  -0.8849  -0.8406  -0.7888  -0.7383  -0.7055  -0.6675
 -0.6557  -0.6330  -0.6211  -0.6053  -0.5861  -0.5730  -0.5657  -0.5517
 -0.5432  -0.5206  -0.5186  -0.5142  -0.5054  -0.4842  -0.4583  -0.4295
 -0.4135  -0.3900  -0.3830  -0.3792  -0.3606
 -- Virtual --
 -0.0745   0.0098   0.0246   0.0373   0.0387   0.0398   0.0419   0.0570
  0.0614   0.0673   0.0735   0.0767   0.1009   0.1015   0.1058   0.1089
  0.1179   0.1234   0.1305   0.1394   0.1461   0.1552   0.1580   0.1611
  0.1647   0.1662   0.1721   0.1757   0.1796   0.1834   0.1873   0.1882
  0.1986   0.2022   0.2089   0.2144   0.2255   0.2292   0.2347   0.2600
  0.2627   0.2702   0.2749   0.2863   0.2919   0.2927   0.3023   0.3064
  0.3131   0.3203   0.3250   0.3311   0.3346   0.3375   0.3427   0.3479
  0.3550   0.3600   0.3611   0.3717   0.3721   0.3774   0.3803   0.3895
  0.3929   0.4026   0.4078   0.4098   0.4144   0.4185   0.4357   0.4384
  0.4446   0.4640   0.4727   0.4899   0.4953   0.4998   0.5213   0.5335
  0.5432   0.5697   0.5798   0.5958   0.5995   0.6114   0.6128   0.6323
  0.6345   0.6448   0.6486   0.6522   0.6643   0.6709   0.6764   0.6864
  0.6901   0.7040   0.7046   0.7122   0.7220   0.7321   0.7406   0.7490
  0.7508   0.7600   0.7791   0.7802   0.7953   0.8113   0.8145   0.8263
  0.8466   0.8600   0.8663   0.8754   0.8882   0.9034   0.9175   0.9213
  0.9357   0.9590   0.9853   1.0019   1.0289   1.0363   1.0435   1.0550
  1.0625   1.0734   1.0869   1.0884   1.1087   1.1231   1.1289   1.1440
  1.1540   1.1585   1.1645   1.1679   1.1781   1.1927   1.1985   1.2118
  1.2159   1.2217   1.2376   1.2437   1.2596   1.2603   1.2727   1.2773
  1.2838   1.2938   1.3013   1.3092   1.3257   1.3424   1.3526   1.3582
  1.3636   1.3899   1.3999   1.4045   1.4244   1.4391   1.4451   1.4590
  1.4645   1.4696   1.4917   1.5025   1.5043   1.5182   1.5326   1.5450
  1.5524   1.5817   1.5961   1.6116   1.6166   1.6231   1.6373   1.6473
  1.6647   1.6764   1.6879   1.6985   1.7067   1.7368   1.7527   1.7719
  1.7904   1.8135   1.8461   1.8506   1.8688   1.8900   1.9164   1.9411
  1.9574   1.9748   2.0015   2.0046   2.0701   2.0886   2.0983   2.1173
  2.1202   2.1559   2.1855   2.2027   2.2382   2.2786   2.2987   2.3684
  2.3856   2.4108   2.4221   2.4513   2.4990   2.5114   2.5709   2.6041
  2.6166   2.6518   2.6756   2.6783   2.6909   2.6975   2.7165   2.7754
  2.7991   2.8204   2.8205   2.8356   2.8539   2.8601   2.8882   2.8973
  2.9111   2.9220   2.9417   2.9663   2.9726   2.9796   3.0000   3.0168
  3.0320   3.0425   3.0769   3.0879   3.1012   3.1344   3.1518   3.1584
  3.1748   3.1863   3.1999   3.2127   3.2211   3.2434   3.2540   3.2699
  3.2796   3.3062   3.3130   3.3330   3.3585   3.3661   3.3814   3.3961
  3.4042   3.4165   3.4320   3.4342   3.4779   3.4783   3.5056   3.5169
  3.5215   3.5387   3.5562   3.5793   3.5867   3.6097   3.6222   3.6294
  3.6494   3.6593   3.6715   3.6750   3.6889   3.7059   3.7152   3.7273
  3.7379   3.7796   3.8034   3.8094   3.8270   3.8487   3.8533   3.8685
  3.8815   3.8980   3.8997   3.9148   3.9370   3.9547   3.9689   3.9818
  3.9944   4.0096   4.0412   4.0768   4.0985   4.1065   4.1097   4.1327
  4.1606   4.1940   4.1965   4.2171   4.2362   4.2431   4.2514   4.2753
  4.2876   4.3074   4.3213   4.3416   4.3490   4.3826   4.4033   4.4471
  4.4557   4.4779   4.4933   4.4961   4.5323   4.5357   4.5560   4.5886
  4.6144   4.6411   4.6613   4.7102   4.7417   4.7571   4.7623   4.8825
  4.8922   4.9154   5.0042   5.0621   5.1370   5.1546   5.1769   5.1874
  5.1959   5.2054   5.2289   5.2369   5.2531   5.2658   5.2801   5.2827
  5.2969   5.3166   5.3512   5.3598   5.3840   5.4140   5.4207   5.4266
  5.4298   5.4623   5.4697   5.4847   5.5205   5.5257   5.5516   5.5729
  5.5764   5.5907   5.5937   5.6218   5.6526   5.6668   5.6887   5.7032
  5.7275   5.7418   5.7702   5.7957   5.8569   5.9208   5.9478   5.9921
  6.0630   6.0734   6.1003   6.1507   6.2861   6.3325   6.4091   6.6411
  6.6819   6.7711   6.8097   6.9172   6.9490   6.9868   7.0294   7.0356
  7.0777   7.1212   7.1387   7.1480   7.2000   7.2426   7.3069   7.3175
  7.3237   7.3432   7.3621   7.3864   7.4230   7.4955   7.5252   7.5514
  7.5665   7.5984   7.6780   7.7280   7.7618   7.7812   7.7945   7.8286
  7.8620  24.4582  24.7096  24.7232  24.8661  25.0097  25.0237  25.2693
 50.6288  50.6548  50.6676  50.7204  50.7342
 --------------------------------------------------------------
 
          Ground-State Mulliken Net Atomic Charges

     Atom                 Charge (a.u.)    Spin (a.u.)
  --------------------------------------------------------
      1 C                    -0.007403       0.027810
      2 C                    -0.071223       0.000170
      3 C                    -0.134780       0.002797
      4 C                    -0.285417       0.013262
      5 C                    -0.197224      -0.008984
      6 C                     0.213234       0.029525
      7 C                    -0.294656       0.098007
      8 H                     0.284725      -0.000717
      9 H                     0.215427       0.006190
     10 H                     0.242395      -0.001233
     11 H                     0.289452       0.000755
     12 H                     0.316445      -0.000739
     13 H                     0.261709      -0.001512
     14 O                    -0.339811       0.033588
     15 H                     0.270109      -0.002517
     16 H                     0.351925      -0.000440
     17 O                    -0.408272       0.005501
     18 H                     0.346728      -0.000300
     19 O                    -0.341955       0.025997
     20 O                    -0.270215       0.766688
     21 O                    -0.441194       0.006151
  --------------------------------------------------------
  Sum of atomic charges =     0.000000
  Sum of spin   charges =     1.000000

 -----------------------------------------------------------------
                    Cartesian Multipole Moments
 -----------------------------------------------------------------
    Charge (ESU x 10^10)
                 0.0000
    Dipole Moment (Debye)
         X       5.3738      Y       5.5069      Z      -6.1684
       Tot       9.8616
    Quadrupole Moments (Debye-Ang)
        XX     -96.9341     XY     -20.3187     YY     -86.6839
        XZ      14.2874     YZ       8.0458     ZZ     -68.0293
    Octopole Moments (Debye-Ang^2)
       XXX     326.8070    XXY     123.7126    XYY     150.5397
       YYY     193.1681    XXZ     -54.8080    XYZ     -18.5448
       YYZ     -42.6956    XZZ      97.2247    YZZ      50.8758
       ZZZ    -113.5822
    Hexadecapole Moments (Debye-Ang^3)
      XXXX   -1837.0082   XXXY    -731.8268   XXYY    -732.7667
      XYYY    -694.2031   YYYY   -1341.4701   XXXZ     174.6026
      XXYZ     112.4654   XYYZ     114.5950   YYYZ     252.0164
      XXZZ    -386.5485   XYZZ    -167.6913   YYZZ    -335.1851
      XZZZ     151.0271   YZZZ     202.5138   ZZZZ    -759.5944
 -----------------------------------------------------------------
 Calculating analytic gradient of the SCF energy
 Gradient of CDS energy
            1           2           3           4           5           6
    1   0.0017374  -0.0007705  -0.0021260   0.0002567   0.0000684  -0.0031756
    2  -0.0002057  -0.0007666  -0.0017361  -0.0001008   0.0000749   0.0010422
    3  -0.0012821   0.0015012   0.0007676  -0.0004516  -0.0001573   0.0024920
            7           8           9          10          11          12
    1   0.0013266  -0.0000903   0.0002016   0.0003185   0.0000265   0.0000862
    2   0.0009598   0.0001649   0.0000549   0.0001033  -0.0001381   0.0000055
    3  -0.0015578  -0.0000291  -0.0001892  -0.0001616  -0.0001285  -0.0000076
[...]
    3  -0.0003987   0.0035473   0.0015205  -0.0056176  -0.0053956  -0.0166464
           13          14          15          16          17          18
    1  -0.0122214  -0.0013357   0.0001416  -0.0026489   0.0034493  -0.0006726
    2  -0.0005040   0.0238114   0.0118320  -0.0185164  -0.0077361   0.0073017
    3  -0.0113648   0.0203870   0.0078550  -0.0193963   0.0117935  -0.0128941
           19          20          21
    1  -0.0034016  -0.0044971   0.0000703
    2  -0.0000640   0.0022699   0.0014108
    3   0.0042091   0.0042438   0.0017232
 Max gradient component =       2.381E-02
 RMS gradient           =       9.322E-03
 Computing fast CPCM-SWIG gradient
 Updating gradient with PCM contributions...
 -- total gradient after adding PCM contribution --
---------------------------------------------------
  Atom         X              Y              Z     
---------------------------------------------------
   1      -0.000045       0.000005      -0.000047
   2      -0.000030       0.000031       0.000010
   3       0.000045      -0.000023       0.000024
   4      -0.000013       0.000025      -0.000005
   5       0.000018       0.000001      -0.000037
   6      -0.000145      -0.000103       0.000311
   7       0.000054       0.000169      -0.000176
   8       0.000011       0.000009       0.000010
   9       0.000000       0.000022       0.000012
  10      -0.000019       0.000027      -0.000008
  11      -0.000000      -0.000003       0.000008
  12       0.000009       0.000005      -0.000003
  13       0.000008      -0.000039       0.000007
  14      -0.000027      -0.000041       0.000032
  15       0.000013      -0.000019      -0.000000
  16      -0.000001      -0.000014      -0.000014
  17       0.000020      -0.000041       0.000005
  18       0.000013       0.000020      -0.000005
  19      -0.000008      -0.000009       0.000001
  20       0.000123      -0.000044      -0.000124
  21      -0.000025       0.000022      -0.000001
---------------------------------------------------
 Number of fixed atoms: 0
 Gradient time:  CPU 559.37 s  wall 45.71 s
 Geometry Optimization Parameters
   NAtoms,    NIC,     NZ,  NCons,   NDum,   NFix, NCnnct, MaxDiis
       21     138       0       0       0       0       0       0

 Cartesian Hessian Update
 Hessian updated using BFGS update


** GEOMETRY OPTIMIZATION IN DELOCALIZED INTERNAL COORDINATES **
   Searching for a Minimum

   Optimization Cycle:  14

                       Coordinates (Angstroms)
     ATOM                X               Y               Z
      1  C         0.1820095448    0.1967824709    0.9647302636
      2  C         0.1091753528   -0.7875720745    2.1131807251
      3  C        -2.9971311863   -2.3126923535    0.6259978300
      4  C        -2.0311187984   -2.1694014829   -0.4700838162
      5  C        -1.2192718630   -1.1321237432   -0.6752667940
      6  C        -1.1264999023    0.1443024723    0.1212513599
      7  C        -1.0748141209    1.3880910072   -0.9047279387
      8  H         0.2375455186    1.1976884914    1.4105677157
      9  H         1.0645196291   -1.2754610146    2.3613575231
     10  H        -3.0190059254   -1.5440535483    1.4041165463
     11  H        -1.9853446744   -3.0157684345   -1.1452526057
     12  H        -0.5219090528   -1.1996165851   -1.5025525809
     13  H        -1.9785980889    1.3455357024   -1.5068567737
     14  O         0.0858609549    1.3666779324   -1.6952974414
     15  H        -1.0550814279    2.2866214554   -0.2965176627
     16  H        -0.0595791536    0.8075142747   -2.4671841923
     17  O         1.3452997799   -0.1220921546    0.2369161777
     18  H         1.3653102779    0.4553101464   -0.5413076926
     19  O        -0.9000546356   -1.0229367183    2.7308095731
     20  O        -2.1904719771    0.4633868272    0.8786925911
     21  O        -3.7470962514   -3.2736151707    0.6918281927
   Point Group: c1    Number of degrees of freedom:    57


   Energy is   -648.180736252

 Hessian updated using BFGS update

 57 Hessian modes will be used to form the next step
  Hessian Eigenvalues:
     0.000856    0.004480    0.007240    0.010069    0.011450    0.013614
     0.017728    0.018150    0.022566    0.032829    0.047250    0.050630
     0.054842    0.057897    0.059214    0.062186    0.068481    0.078045
     0.080859    0.082311    0.108015    0.139216    0.158564    0.159005
     0.159992    0.160207    0.162171    0.165843    0.177815    0.184473
     0.187606    0.210342    0.217601    0.218658    0.220190    0.223414
     0.249602    0.285473    0.308206    0.326823    0.332020    0.333483
     0.344313    0.346080    0.347764    0.349701    0.352837    0.359849
     0.392154    0.447561    0.449278    0.491510    0.501761    0.528986
     0.591649    0.932201    0.969322

 Minimum search - taking simple RFO step
 Searching for Lamda that Minimizes Along All modes
 Value Taken    Lamda =  -0.00000081
 Step Taken.  Stepsize is  0.010423

                             Maximum     Tolerance    Cnvgd?
         Gradient           0.000094      0.000300     YES
         Displacement       0.006220      0.001200      NO
         Energy change     -0.000001      0.000001     YES

 Final energy is   -648.180736251864     


 ******************************
 **  OPTIMIZATION CONVERGED  **
 ******************************

                       Coordinates (Angstroms)
     ATOM                X               Y               Z
      1  C         0.1820095448    0.1967824709    0.9647302636
      2  C         0.1091753528   -0.7875720745    2.1131807251
      3  C        -2.9971311863   -2.3126923535    0.6259978300
      4  C        -2.0311187984   -2.1694014829   -0.4700838162
      5  C        -1.2192718630   -1.1321237432   -0.6752667940
      6  C        -1.1264999023    0.1443024723    0.1212513599
      7  C        -1.0748141209    1.3880910072   -0.9047279387
      8  H         0.2375455186    1.1976884914    1.4105677157
      9  H         1.0645196291   -1.2754610146    2.3613575231
     10  H        -3.0190059254   -1.5440535483    1.4041165463
     11  H        -1.9853446744   -3.0157684345   -1.1452526057
     12  H        -0.5219090528   -1.1996165851   -1.5025525809
     13  H        -1.9785980889    1.3455357024   -1.5068567737
     14  O         0.0858609549    1.3666779324   -1.6952974414
     15  H        -1.0550814279    2.2866214554   -0.2965176627
     16  H        -0.0595791536    0.8075142747   -2.4671841923
     17  O         1.3452997799   -0.1220921546    0.2369161777
     18  H         1.3653102779    0.4553101464   -0.5413076926
     19  O        -0.9000546356   -1.0229367183    2.7308095731
     20  O        -2.1904719771    0.4633868272    0.8786925911
     21  O        -3.7470962514   -3.2736151707    0.6918281927

Z-matrix Print:
$molecule
0 2
O 
C  1 1.344458
C  2 1.507419 1 116.740474
H  3 1.084100 2 114.604598 1 160.718474 0
C  3 1.333094 2 127.953049 1 -20.237656 0
H  5 1.083644 3 119.084689 2 179.180624 0
C  5 1.468028 3 126.271020 2 -2.280009 0
H  7 1.093962 5 118.401505 3 -5.037731 0
O  7 1.220719 5 121.424254 3 176.242902 0
C  2 1.557693 1 110.592418 3 -128.867698 0
H  10 1.097118 2 107.055959 1 -55.370453 0
O  10 1.408772 2 113.971109 1 -179.792160 0
H  12 0.969240 10 107.278657 2 53.578144 0
C  10 1.514331 2 110.386968 1 60.388302 0
H  14 1.101050 10 114.660700 2 144.167778 0
O  14 1.206403 10 123.732571 2 -36.636376 0
C  2 1.613169 1 101.576596 3 117.877106 0
H  17 1.085203 2 106.410884 1 53.834354 0
H  17 1.086828 2 107.189143 1 -64.969593 0
O  17 1.404502 2 111.883292 1 171.868923 0
H  20 0.964171 17 109.561065 2 85.565538 0
$end

 
 --------------------------------------------------------------
 
                    Orbital Energies (a.u.)
 --------------------------------------------------------------
 
 Alpha MOs
 -- Occupied --
-19.3827 -19.3650 -19.3584 -19.3486 -19.3409 -10.4490 -10.4376 -10.4326
-10.4197 -10.4186 -10.3744 -10.3572  -1.2113  -1.1945  -1.1853  -1.1768
 -1.1701  -0.9401  -0.8899  -0.8455  -0.7904  -0.7415  -0.7071  -0.6723
 -0.6598  -0.6345  -0.6248  -0.6107  -0.5897  -0.5779  -0.5697  -0.5575
 -0.5555  -0.5250  -0.5201  -0.5188  -0.5068  -0.4926  -0.4813  -0.4582
 -0.4385  -0.4099  -0.3949  -0.3833  -0.3690  -0.3557
 -- Virtual --
  0.0075   0.0243   0.0370   0.0375   0.0395   0.0415   0.0572   0.0611
  0.0672   0.0732   0.0760   0.1010   0.1019   0.1059   0.1090   0.1169
  0.1227   0.1300   0.1381   0.1454   0.1547   0.1572   0.1605   0.1651
  0.1673   0.1708   0.1756   0.1789   0.1830   0.1872   0.1876   0.1970
  0.2012   0.2082   0.2137   0.2255   0.2274   0.2340   0.2584   0.2604
  0.2695   0.2724   0.2837   0.2896   0.2903   0.3018   0.3068   0.3096
  0.3193   0.3216   0.3242   0.3350   0.3373   0.3403   0.3461   0.3544
  0.3592   0.3602   0.3691   0.3701   0.3762   0.3769   0.3867   0.3906
  0.3999   0.4061   0.4078   0.4106   0.4163   0.4336   0.4364   0.4433
  0.4634   0.4722   0.4842   0.4928   0.4960   0.5204   0.5337   0.5403
  0.5666   0.5786   0.5912   0.5974   0.6086   0.6116   0.6286   0.6301
  0.6428   0.6490   0.6505   0.6664   0.6691   0.6738   0.6832   0.6869
  0.7014   0.7027   0.7097   0.7175   0.7293   0.7417   0.7439   0.7464
  0.7617   0.7767   0.7805   0.7946   0.8114   0.8127   0.8265   0.8428
  0.8552   0.8599   0.8759   0.8818   0.9011   0.9198   0.9237   0.9323
  0.9573   0.9825   0.9986   1.0239   1.0337   1.0402   1.0489   1.0552
  1.0772   1.0817   1.0891   1.1023   1.1216   1.1330   1.1407   1.1492
  1.1527   1.1638   1.1671   1.1766   1.1909   1.1963   1.2104   1.2150
  1.2197   1.2311   1.2390   1.2555   1.2569   1.2714   1.2762   1.2814
  1.2895   1.2962   1.3067   1.3268   1.3377   1.3502   1.3556   1.3622
  1.3865   1.3917   1.3993   1.4215   1.4332   1.4408   1.4541   1.4619
  1.4692   1.4887   1.5012   1.5036   1.5151   1.5306   1.5452   1.5491
  1.5743   1.5933   1.6022   1.6072   1.6197   1.6348   1.6419   1.6597
  1.6719   1.6859   1.6949   1.7054   1.7241   1.7480   1.7589   1.7843
  1.8192   1.8364   1.8430   1.8735   1.8823   1.9172   1.9259   1.9420
  1.9658   1.9832   2.0009   2.0529   2.0700   2.0876   2.1036   2.1176
  2.1469   2.1813   2.1891   2.2333   2.2721   2.2895   2.3658   2.3838
  2.4054   2.4230   2.4492   2.5060   2.5101   2.5676   2.5963   2.6106
  2.6551   2.6681   2.6764   2.6827   2.7026   2.7141   2.7720   2.7899
  2.8148   2.8175   2.8334   2.8510   2.8579   2.8812   2.8883   2.9072
  2.9221   2.9372   2.9542   2.9658   2.9764   3.0037   3.0155   3.0302
  3.0401   3.0751   3.0845   3.1020   3.1310   3.1520   3.1528   3.1784
  3.1838   3.1974   3.2032   3.2200   3.2429   3.2484   3.2725   3.2806
  3.2959   3.3074   3.3263   3.3530   3.3665   3.3684   3.3906   3.3963
  3.4127   3.4280   3.4359   3.4715   3.4755   3.5025   3.5128   3.5169
  3.5341   3.5512   3.5700   3.5813   3.6052   3.6184   3.6297   3.6437
  3.6507   3.6591   3.6740   3.6884   3.6996   3.7100   3.7263   3.7303
  3.7759   3.7988   3.8075   3.8211   3.8425   3.8514   3.8658   3.8755
  3.8836   3.8943   3.9150   3.9276   3.9489   3.9681   3.9732   3.9893
  3.9980   4.0294   4.0683   4.0843   4.0974   4.1092   4.1240   4.1498
  4.1873   4.1978   4.2037   4.2279   4.2371   4.2452   4.2701   4.2774
  4.2990   4.3147   4.3330   4.3393   4.3692   4.3906   4.4380   4.4462
  4.4715   4.4863   4.4891   4.5189   4.5300   4.5485   4.5829   4.6088
  4.6346   4.6520   4.6896   4.7262   4.7431   4.7530   4.8625   4.8874
  4.8999   4.9830   5.0440   5.1273   5.1422   5.1510   5.1643   5.1837
  5.1860   5.1924   5.2359   5.2434   5.2543   5.2727   5.2765   5.2889
  5.3118   5.3414   5.3485   5.3528   5.3836   5.4045   5.4102   5.4197
  5.4398   5.4447   5.4615   5.4969   5.5169   5.5360   5.5672   5.5714
  5.5779   5.5878   5.6100   5.6386   5.6599   5.6738   5.6933   5.7167
  5.7275   5.7513   5.7830   5.8525   5.9095   5.9367   5.9835   6.0547
  6.0599   6.0807   6.1162   6.2708   6.3257   6.3912   6.6311   6.6747
  6.7579   6.8016   6.9066   6.9430   6.9698   6.9885   7.0105   7.0227
  7.0713   7.1147   7.1419   7.1930   7.2191   7.2942   7.3067   7.3177
  7.3425   7.3539   7.3750   7.4192   7.4747   7.4889   7.5306   7.5485
  7.5690   7.6678   7.7215   7.7592   7.7738   7.7756   7.8095   7.8582
 24.4503  24.6920  24.7154  24.8653  24.9957  25.0085  25.2448  50.6231
 50.6524  50.6572  50.7151  50.7251
 
 Beta MOs
 -- Occupied --
-19.3637 -19.3628 -19.3573 -19.3485 -19.3407 -10.4491 -10.4376 -10.4329
-10.4179 -10.4168 -10.3743 -10.3570  -1.2078  -1.1897  -1.1849  -1.1695
 -1.1410  -0.9355  -0.8838  -0.8386  -0.7880  -0.7375  -0.7052  -0.6662
 -0.6550  -0.6323  -0.6193  -0.6044  -0.5859  -0.5728  -0.5659  -0.5520
 -0.5428  -0.5212  -0.5176  -0.5129  -0.5050  -0.4853  -0.4588  -0.4297
 -0.4142  -0.3890  -0.3833  -0.3791  -0.3602
 -- Virtual --
 -0.0743   0.0093   0.0247   0.0375   0.0378   0.0398   0.0418   0.0573
  0.0616   0.0674   0.0732   0.0764   0.1013   0.1020   0.1062   0.1091
  0.1174   0.1231   0.1301   0.1386   0.1456   0.1553   0.1582   0.1610
  0.1655   0.1674   0.1708   0.1759   0.1791   0.1835   0.1876   0.1884
  0.1972   0.2018   0.2088   0.2141   0.2257   0.2280   0.2348   0.2588
  0.2619   0.2699   0.2741   0.2862   0.2907   0.2912   0.3033   0.3076
  0.3134   0.3203   0.3228   0.3301   0.3369   0.3376   0.3410   0.3469
  0.3552   0.3599   0.3608   0.3707   0.3715   0.3774   0.3781   0.3877
  0.3916   0.4011   0.4079   0.4103   0.4126   0.4177   0.4355   0.4384
  0.4451   0.4661   0.4736   0.4850   0.4940   0.4989   0.5218   0.5348
  0.5409   0.5681   0.5796   0.5928   0.5984   0.6097   0.6124   0.6296
  0.6310   0.6440   0.6499   0.6511   0.6669   0.6701   0.6748   0.6848
  0.6880   0.7022   0.7032   0.7110   0.7198   0.7302   0.7429   0.7461
  0.7472   0.7628   0.7774   0.7814   0.7951   0.8120   0.8145   0.8269
  0.8446   0.8558   0.8611   0.8766   0.8827   0.9020   0.9201   0.9243
  0.9333   0.9594   0.9833   0.9993   1.0262   1.0356   1.0406   1.0504
  1.0570   1.0784   1.0826   1.0917   1.1050   1.1245   1.1335   1.1419
  1.1511   1.1557   1.1661   1.1687   1.1782   1.1920   1.1976   1.2143
  1.2179   1.2215   1.2328   1.2415   1.2562   1.2588   1.2737   1.2779
  1.2832   1.2931   1.2987   1.3083   1.3286   1.3389   1.3519   1.3572
  1.3633   1.3880   1.3952   1.4028   1.4271   1.4345   1.4447   1.4562
  1.4630   1.4714   1.4906   1.5030   1.5059   1.5168   1.5329   1.5471
  1.5511   1.5760   1.5945   1.6047   1.6104   1.6233   1.6367   1.6439
  1.6625   1.6748   1.6871   1.6968   1.7069   1.7289   1.7524   1.7647
  1.7899   1.8206   1.8409   1.8462   1.8768   1.8894   1.9229   1.9353
  1.9516   1.9701   1.9918   2.0038   2.0577   2.0775   2.0910   2.1115
  2.1200   2.1499   2.1837   2.1924   2.2386   2.2771   2.2948   2.3674
  2.3875   2.4094   2.4242   2.4510   2.5069   2.5121   2.5689   2.6013
  2.6163   2.6568   2.6688   2.6778   2.6866   2.7041   2.7174   2.7739
  2.7921   2.8186   2.8199   2.8352   2.8526   2.8595   2.8818   2.8900
  2.9084   2.9243   2.9387   2.9556   2.9674   2.9782   3.0053   3.0168
  3.0317   3.0420   3.0764   3.0852   3.1047   3.1335   3.1542   3.1545
  3.1803   3.1855   3.2013   3.2055   3.2215   3.2443   3.2510   3.2748
  3.2835   3.2978   3.3087   3.3283   3.3548   3.3687   3.3700   3.3922
  3.3979   3.4142   3.4291   3.4377   3.4739   3.4765   3.5049   3.5142
  3.5189   3.5371   3.5522   3.5717   3.5848   3.6068   3.6210   3.6330
  3.6456   3.6542   3.6617   3.6771   3.6906   3.7005   3.7147   3.7276
  3.7340   3.7782   3.8015   3.8096   3.8229   3.8433   3.8530   3.8666
  3.8775   3.8859   3.8967   3.9177   3.9290   3.9524   3.9700   3.9757
  3.9913   4.0013   4.0306   4.0712   4.0890   4.0992   4.1107   4.1272
  4.1519   4.1899   4.2000   4.2067   4.2300   4.2394   4.2471   4.2709
  4.2785   4.3005   4.3159   4.3348   4.3411   4.3718   4.3920   4.4404
  4.4483   4.4731   4.4877   4.4915   4.5209   4.5313   4.5502   4.5843
  4.6115   4.6363   4.6563   4.6916   4.7286   4.7454   4.7549   4.8649
  4.8901   4.9025   4.9859   5.0474   5.1316   5.1541   5.1758   5.1856
  5.1925   5.2062   5.2268   5.2387   5.2477   5.2629   5.2770   5.2814
  5.2954   5.3150   5.3491   5.3551   5.3798   5.4072   5.4159   5.4217
  5.4266   5.4568   5.4650   5.4843   5.5156   5.5252   5.5427   5.5704
  5.5745   5.5886   5.5906   5.6167   5.6409   5.6657   5.6762   5.6965
  5.7199   5.7388   5.7583   5.7875   5.8549   5.9127   5.9467   5.9859
  6.0568   6.0638   6.0950   6.1482   6.2810   6.3261   6.3922   6.6348
  6.6786   6.7592   6.8044   6.9217   6.9480   6.9856   7.0263   7.0279
  7.0730   7.1223   7.1359   7.1453   7.1940   7.2226   7.2968   7.3097
  7.3195   7.3442   7.3565   7.3795   7.4201   7.4904   7.5216   7.5485
  7.5648   7.6010   7.6719   7.7232   7.7601   7.7756   7.7926   7.8312
  7.8633  24.4505  24.6947  24.7159  24.8651  24.9957  25.0085  25.2449
 50.6250  50.6553  50.6670  50.7153  50.7266
 --------------------------------------------------------------
 
          Ground-State Mulliken Net Atomic Charges

     Atom                 Charge (a.u.)    Spin (a.u.)
  --------------------------------------------------------
      1 C                    -0.018142       0.028504
      2 C                    -0.076859       0.000181
      3 C                    -0.130191       0.003521
      4 C                    -0.283827       0.014482
      5 C                    -0.202321      -0.007832
      6 C                     0.221024       0.027877
      7 C                    -0.277376       0.107534
      8 H                     0.284883      -0.000746
      9 H                     0.214485       0.006202
     10 H                     0.237549      -0.001241
     11 H                     0.288871       0.000885
     12 H                     0.316195      -0.000789
     13 H                     0.260051      -0.001593
     14 O                    -0.331223       0.035991
     15 H                     0.267518      -0.002558
     16 H                     0.350572      -0.000538
     17 O                    -0.407128       0.005677
     18 H                     0.345322      -0.000261
     19 O                    -0.341182       0.026374
     20 O                    -0.275238       0.752360
     21 O                    -0.442985       0.005968
  --------------------------------------------------------
  Sum of atomic charges =     0.000000
  Sum of spin   charges =     1.000000

 -----------------------------------------------------------------
                    Cartesian Multipole Moments
 -----------------------------------------------------------------
    Charge (ESU x 10^10)
                 0.0000
    Dipole Moment (Debye)
         X       5.5446      Y       5.2552      Z      -6.4349
       Tot       9.9884
    Quadrupole Moments (Debye-Ang)
        XX     -98.2259     XY     -20.2305     YY     -85.6047
        XZ      14.3651     YZ       7.1855     ZZ     -68.6530
    Octopole Moments (Debye-Ang^2)
       XXX     332.8765    XXY     124.4222    XYY     148.7715
       YYY     187.9244    XXZ     -55.4208    XYZ     -16.9461
       YYZ     -40.5093    XZZ      98.1431    YZZ      49.6411
       ZZZ    -119.6394
    Hexadecapole Moments (Debye-Ang^3)
      XXXX   -1858.7560   XXXY    -737.8590   XXYY    -730.2211
      XYYY    -683.1380   YYYY   -1317.2895   XXXZ     175.7401
      XXYZ     107.7805   XYYZ     109.8898   YYYZ     239.9913
      XXZZ    -389.8616   XYZZ    -164.7307   YYZZ    -330.9848
      XZZZ     155.9921   YZZZ     195.1737   ZZZZ    -791.0188
 -----------------------------------------------------------------
 Total job time:  5359.20s(wall), 75821.75s(cpu) 
 Tue May 21 16:28:28 2024

        *************************************************************
        *                                                           *
        *  Thank you very much for using Q-Chem.  Have a nice day.  *
        *                                                           *
        *************************************************************


