
Running Job 1 of 1 Q_in.in
qchem Q_in.in_248816.0 /scratch/ari.fischer/qChem2187294.hpc-mn1/qchem248816/ 0
/usr/local/qchem-5.4.1/exe/qcprog.exe_s Q_in.in_248816.0 /scratch/ari.fischer/qChem2187294.hpc-mn1/qchem248816/
                  Welcome to Q-Chem
     A Quantum Leap Into The Future Of Chemistry


 Q-Chem 5.4, Q-Chem, Inc., Pleasanton, CA (2021)

 License issued to: Nanyang Technological University (site)

 E. Epifanovsky,  A. T. B. Gilbert,  Xintian Feng,  Joonho Lee,  Yuezhi Mao,  
 N. Mardirossian,  P. Pokhilko,  A. White,  M. Wormit,  M. P. Coons,  
 A. L. Dempwolff,  Zhengting Gan,  D. Hait,  P. R. Horn,  L. D. Jacobson,  
 I. Kaliman,  J. Kussmann,  A. W. Lange,  Ka Un Lao,  D. S. Levine,  Jie Liu,  
 S. C. McKenzie,  A. F. Morrison,  K. Nanda,  F. Plasser,  D. R. Rehn,  
 M. L. Vidal,  Zhi-Qiang You,  Ying Zhu,  B. Alam,  B. Albrecht,  
 A. Aldossary,  E. Alguire,  J. H. Andersen,  D. Barton,  K. Begam,  A. Behn,  
 Y. A. Bernard,  E. J. Berquist,  H. Burton,  A. Carreras,  K. Carter-Fenk,  
 R. Chakraborty,  A. D. Chien,  K. D. Closser,  V. Cofer-Shabica,  
 S. Dasgupta,  Jia Deng,  M. de Wergifosse,  M. Diedenhofen,  Hainam Do,  
 S. Ehlert,  Po-Tung Fang,  S. Fatehi,  Qingguo Feng,  T. Friedhoff,  
 J. Gayvert,  Qinghui Ge,  G. Gidofalvi,  M. Goldey,  J. Gomes,  
 C. Gonzalez-Espinoza,  S. Gulania,  A. Gunina,  M. W. D. Hanson-Heine,  
 P. H. P. Harbach,  A. W. Hauser,  M. F. Herbst,  M. Hernandez Vera,  
 M. Hodecker,  Z. C. Holden,  S. Houck,  Xunkun Huang,  Kerwin Hui,  
 B. C. Huynh,  M. Ivanov,  Hyunjun Ji,  Hanjie Jiang,  B. Kaduk,  S. Kaehler,  
 K. Khistyaev,  Jaehoon Kim,  P. Klunzinger,  Z. Koczor-Benda,  
 Joong Hoon Koh,  D. Kosenkov,  L. Koulias,  T. Kowalczyk,  C. M. Krauter,  
 K. Kue,  A. Kunitsa,  T. Kus,  A. Landau,  K. V. Lawler,  D. Lefrancois,  
 S. Lehtola,  Rain Li,  Yi-Pei Li,  Jiashu Liang,  M. Liebenthal,  
 Hung-Hsuan Lin,  You-Sheng Lin,  Fenglai Liu,  Kuan-Yu Liu,  
 M. Loipersberger,  A. Luenser,  A. Manjanath,  P. Manohar,  E. Mansoor,  
 S. F. Manzer,  Shan-Ping Mao,  A. V. Marenich,  T. Markovich,  S. Mason,  
 S. A. Maurer,  P. F. McLaughlin,  M. F. S. J. Menger,  J.-M. Mewes,  
 S. A. Mewes,  P. Morgante,  J. W. Mullinax,  K. J. Oosterbaan,  G. Paran,  
 Alexander C. Paul,  Suranjan K. Paul,  F. Pavosevic,  Zheng Pei,  S. Prager,  
 E. I. Proynov,  E. Ramos,  B. Rana,  A. E. Rask,  A. Rettig,  R. M. Richard,  
 F. Rob,  E. Rossomme,  T. Scheele,  M. Scheurer,  M. Schneider,  
 N. Sergueev,  S. M. Sharada,  W. Skomorowski,  D. W. Small,  C. J. Stein,  
 Yu-Chuan Su,  E. J. Sundstrom,  Zhen Tao,  J. Thirman,  T. Tsuchimochi,  
 N. M. Tubman,  S. P. Veccham,  O. Vydrov,  J. Wenzel,  J. Witte,  A. Yamada,  
 Kun Yao,  S. Yeganeh,  S. R. Yost,  A. Zech,  Igor Ying Zhang,  Xing Zhang,  
 Yu Zhang,  D. Zuev,  A. Aspuru-Guzik,  A. T. Bell,  N. A. Besley,  
 K. B. Bravaya,  B. R. Brooks,  D. Casanova,  Jeng-Da Chai,  S. Coriani,  
 C. J. Cramer,  A. E. DePrince, III,  R. A. DiStasio Jr.,  A. Dreuw,  
 B. D. Dunietz,  T. R. Furlani,  W. A. Goddard III,  S. Grimme,  
 S. Hammes-Schiffer,  T. Head-Gordon,  W. J. Hehre,  Chao-Ping Hsu,  
 T.-C. Jagau,  Yousung Jung,  A. Klamt,  Jing Kong,  D. S. Lambrecht,  
 WanZhen Liang,  N. J. Mayhall,  C. W. McCurdy,  J. B. Neaton,  
 C. Ochsenfeld,  J. A. Parkhill,  R. Peverati,  V. A. Rassolov,  Yihan Shao,  
 L. V. Slipchenko,  T. Stauch,  R. P. Steele,  J. E. Subotnik,  
 A. J. W. Thom,  A. Tkatchenko,  D. G. Truhlar,  T. Van Voorhis,  
 T. A. Wesolowski,  K. B. Whaley,  H. L. Woodcock III,  P. M. Zimmerman,  
 S. Faraji,  P. M. W. Gill,  M. Head-Gordon,  J. M. Herbert,  A. I. Krylov

 Additional authors for Version 5.4.1: 
 S. Kotaru,  Shaozhi Li,  Xiangyuan Li,  F. Matz,  A. Molle,  Haisheng Ren,  
 Yingli Su,  Hung-Yi Tsai,  C. Utku,  Fang Wang

 Contributors to earlier versions of Q-Chem not listed above: 
 R. D. Adamson,  B. Austin,  R. Baer,  J. Baker,  G. J. O. Beran,  
 K. Brandhorst,  S. T. Brown,  E. F. C. Byrd,  A. K. Chakraborty,  
 G. K. L. Chan,  Chun-Min Chang,  Yunqing Chen,  C.-L. Cheng,  
 Siu Hung Chien,  D. M. Chipman,  D. L. Crittenden,  H. Dachsel,  
 R. J. Doerksen,  A. D. Dutoi,  R. G. Edgar,  J. Fosso-Tande,  
 L. Fusti-Molnar,  D. Ghosh,  A. Ghysels,  A. Golubeva-Zadorozhnaya,  
 J. Gonthier,  M. S. Gordon,  S. R. Gwaltney,  G. Hawkins,  J. E. Herr,  
 A. Heyden,  S. Hirata,  E. G. Hohenstein,  G. Kedziora,  F. J. Keil,  
 C. Kelley,  Jihan Kim,  R. A. King,  R. Z. Khaliullin,  P. P. Korambath,  
 W. Kurlancheek,  A. Laurent,  A. M. Lee,  M. S. Lee,  S. V. Levchenko,  
 Ching Yeh Lin,  D. Liotard,  E. Livshits,  R. C. Lochan,  I. Lotan,  
 L. A. Martinez-Martinez,  P. E. Maslen,  N. Nair,  D. P. O'Neill,  
 D. Neuhauser,  E. Neuscamman,  C. M. Oana,  R. Olivares-Amaya,  R. Olson,  
 T. M. Perrine,  B. Peters,  P. A. Pieniazek,  A. Prociuk,  Y. M. Rhee,  
 J. Ritchie,  M. A. Rohrdanz,  E. Rosta,  N. J. Russ,  H. F. Schaefer III,  
 M. W. Schmidt,  N. E. Schultz,  S. Sharma,  N. Shenvi,  C. D. Sherrill,  
 A. C. Simmonett,  A. Sodt,  T. Stein,  D. Stuck,  K. S. Thanthiriwatte,  
 V. Vanovschi,  L. Vogt,  Tao Wang,  A. Warshel,  M. A. Watson,  
 C. F. Williams,  Q. Wu,  X. Xu,  Jun Yang,  W. Zhang,  Yan Zhao

 Please cite Q-Chem as follows:
 Y. Shao et al., Mol. Phys. 113, 184-215 (2015)
 DOI: 10.1080/00268976.2014.952696

 Q-Chem 5.4.1 for Intel X86 EM64T Linux

 Parts of Q-Chem use Armadillo 9.800.1 (Horizon Scraper).
 http://arma.sourceforge.net/

 Q-Chem begins on Tue Jun 25 21:17:17 2024  

 Host: 
0

     Scratch files written to /scratch/ari.fischer/qChem2187294.hpc-mn1/qchem248816//
 Aug1521 |scratch|qcdevops|jenkins|workspace|build_RNUM 8249   
 Processing $rem in /usr/local/qchem-5.4.1/config/preferences:
 Processing $rem in /home/ari.fischer/.qchemrc:
 Symmetry turned off for PCM/SM12/SMD calculation


!!********************************************.
!!******************Warning*******************.
!!Desired Analytical derivatives not available.
!!Finite difference job might take a long time.
!!********************************************.
!!********************************************.


 2-order derivative to be evaluated numerically with 1-order analytical derivatives

 Checking the input file for inconsistencies... 	...done.

--------------------------------------------------------------
User input:
--------------------------------------------------------------
$molecule
0 2
C         2.4200687798   -0.9790920545   -0.9215201904
O         1.1894954774   -0.6310284867   -0.3364635883
C         3.5099240149   -0.5590161174    0.0731646840
O         3.4691958427   -1.4388063794    1.1486151357
C         3.3288892639    0.9015954964    0.4763969840
O         4.5315944667    1.4205087648    1.0903126444
O         4.7949987196    0.8225013447    2.2203492668
H         2.5653014436   -0.4572620950   -1.8647448283
H         0.5134035831   -0.6553808589   -1.0232298307
H         2.5131001386    1.0010085408    1.1855068429
H         3.1676008269    1.5391252468   -0.3870791947
O         2.5035408365   -2.3493948663   -1.2096186970
H         2.4917489919   -2.8365485078   -0.3745673766
O         4.8053734977   -0.7846505609   -0.5022874195
O         4.9755281516    0.0808429593   -1.6235385318
H         3.9212700478   -1.0301944876    1.9016960222
H         5.5669974174    0.7618857620   -1.2691441228
$end

$rem
BASIS = 6-311++G(2df,2p)
GUI = 2
JOB_TYPE = Frequency
METHOD = wB97M-V
SOLVENT_METHOD = SMD
SCF_ALGORITHM = DIIS_GDM
MAX_SCF_CYCLES = 400
SCF_CONVERGENCE = 7
THRESH = 12
$end
--------------------------------------------------------------
 ----------------------------------------------------------------
             Standard Nuclear Orientation (Angstroms)
    I     Atom           X                Y                Z
 ----------------------------------------------------------------
    1      C       2.4200687798    -0.9790920545    -0.9215201904
    2      O       1.1894954774    -0.6310284867    -0.3364635883
    3      C       3.5099240149    -0.5590161174     0.0731646840
    4      O       3.4691958427    -1.4388063794     1.1486151357
    5      C       3.3288892639     0.9015954964     0.4763969840
    6      O       4.5315944667     1.4205087648     1.0903126444
    7      O       4.7949987196     0.8225013447     2.2203492668
    8      H       2.5653014436    -0.4572620950    -1.8647448283
    9      H       0.5134035831    -0.6553808589    -1.0232298307
   10      H       2.5131001386     1.0010085408     1.1855068429
   11      H       3.1676008269     1.5391252468    -0.3870791947
   12      O       2.5035408365    -2.3493948663    -1.2096186970
   13      H       2.4917489919    -2.8365485078    -0.3745673766
   14      O       4.8053734977    -0.7846505609    -0.5022874195
   15      O       4.9755281516     0.0808429593    -1.6235385318
   16      H       3.9212700478    -1.0301944876     1.9016960222
   17      H       5.5669974174     0.7618857620    -1.2691441228
 ----------------------------------------------------------------
 Nuclear Repulsion Energy =         634.52373615 hartrees
 There are       41 alpha and       40 beta electrons
 Requested basis set is 6-311++G(2df,2p)
 There are 122 shells and 410 basis functions

 Total QAlloc Memory Limit 288000 MB
 Mega-Array Size       188 MB
 MEM_STATIC part       192 MB
 
 Citation of the SMD model:
 Marenich, A.V.; Cramer, C.J.; Truhlar, D.G.
 J. Phys. Chem. B 2009, 113, 6378-6396.
 iSolventCode=           1
 Solvent: water                                                           
 
 vradii
            1           2           3           4           5           6
    1   1.8500000   1.5200000   1.8500000   1.5200000   1.8500000   1.5200000
            7           8           9          10          11          12
    1   1.5200000   1.2000000   1.2000000   1.2000000   1.2000000   1.5200000
           13          14          15          16          17
    1   1.2000000   1.5200000   1.5200000   1.2000000   1.2000000
 Changing PCM_VDW_RADII to SMD_RADIUS
 Discretize the solute cavity surface with Lebedev spheres
	Using 110 Lebedev grid points for each H atom
	Using 194 Lebedev grid points for other atoms
	Atomic van der Waals radii will be scaled by 1.20
 Remove points where switching function is < 1.0e-08
 Keep 1363 surface tesserae and discard 1347 interior tesserae
 Molecular Surface Area = 152.684 Angst**2
 A cutoff of  1.0D-12 yielded   6744 shell pairs
 There are     75775 function pairs (     94823 Cartesian)
 Smallest overlap matrix eigenvalue = 1.08E-05
 Guess from superposition of atomic densities
 Warning:  Energy on first SCF cycle will be non-variational
 SAD guess density has 81.000000 electrons

 -----------------------------------------------------------------------
  General SCF calculation program by
  Eric Jon Sundstrom, Paul Horn, Yuezhi Mao, Dmitri Zuev, Alec White,
  David Stuck, Shaama M.S., Shane Yost, Joonho Lee, David Small,
  Daniel Levine, Susi Lehtola, Hugh Burton, Evgeny Epifanovsky,
  Bang C. Huynh
 -----------------------------------------------------------------------
 Exchange:     0.1500 Hartree-Fock + 1.0000 wB97M-V + LR-HF
 Correlation:  1.0000 wB97M-V
 Using SG-2 standard quadrature grid
 Nonlocal Correlation:  VV10 with C = 0.0100 and b = 6.00 and scale = 1.00000
 Grid used for NLC:  SG-1 standard quadrature
 using 16 threads for integral computing
 -------------------------------------------------------
 OpenMP Integral computing Module                
 Release: version 1.0, May 2013, Q-Chem Inc. Pittsburgh 
 -------------------------------------------------------
 
 Citation of the SMD model:
 Marenich, A.V.; Cramer, C.J.; Truhlar, D.G.
 J. Phys. Chem. B 2009, 113, 6378-6396.
 iSolventCode=           1
 Solvent: water                                                           
 
 vradii
            1           2           3           4           5           6
    1   1.8500000   1.5200000   1.8500000   1.5200000   1.8500000   1.5200000
            7           8           9          10          11          12
    1   1.5200000   1.2000000   1.2000000   1.2000000   1.2000000   1.5200000
           13          14          15          16          17
    1   1.2000000   1.5200000   1.5200000   1.2000000   1.2000000
 -------------------------------------------------------
 OpenMP BLAS3 based DFT computing Module                
 Release: version 1.0, May 2013, Q-Chem Inc. Pittsburgh 
 -------------------------------------------------------
 A unrestricted SCF calculation will be
 performed using DIIS, GDM
 SCF converges when RMS gradient is below 1.0e-07
 ---------------------------------------
  Cycle       Energy         DIIS error
 ---------------------------------------
    1    -646.6816699988      1.20e-02  
    2    -644.7533619390      1.66e-03  Done DIIS. Switching to GDM
 ---------------------------------------
  Cycle       Energy        RMS Gradient
 ---------------------------------------
    1    -644.7533619390      1.16e-01   Descent step
    2    -644.9100077887      4.74e-02   Normal BFGS step
    3    -644.9355135016      3.12e-02   Normal BFGS step
    4    -644.9383855313      1.56e-02   Normal BFGS step
    5    -644.9403946727      6.59e-03   Normal BFGS step
    6    -644.9406444945      4.44e-03   Normal BFGS step
    7    -644.9407429747      2.64e-03   Normal BFGS step
    8    -644.9407745861      2.32e-03   Normal BFGS step
    9    -644.9407867615      1.58e-03   Normal BFGS step
   10    -644.9407955152      1.18e-03   Normal BFGS step
   11    -644.9408000140      1.05e-03   Normal BFGS step
   12    -644.9408042625      4.95e-04   Normal BFGS step
   13    -644.9408054008      1.73e-04   Normal BFGS step
   14    -644.9408056223      3.01e-05   Normal BFGS step
   15    -644.9408056509      1.03e-05   Normal BFGS step
   16    -644.9408056546      7.38e-06   Normal BFGS step
   17    -644.9408056552      2.52e-06   Normal BFGS step
   18    -644.9408056553      1.27e-06   Normal BFGS step
   19    -644.9408056554      4.66e-07   Normal BFGS step
   20    -644.9408056554      2.29e-07   Normal BFGS step
   21    -644.9408056554      1.01e-07   Normal BFGS step
   22    -644.9408056553      3.34e-08  Convergence criterion met
 ---------------------------------------
 SCF time:   CPU 2519.28s  wall 174.00s 
<S^2> =          0.753945686
(3)  G-ENP(liq) elect-nuc-pol free energy of system     -644.940805655 a.u.
(4)  G-CDS(liq) cavity-dispersion-solvent structure 
     free energy                                                2.7703 kcal/mol
(6)  G-S(liq) free energy of system                     -644.936390906 a.u.
 SCF   energy in the final basis set =     -644.9363909057
 Total energy in the final basis set =     -644.9363909057
 
 --------------------------------------------------------------
 
                    Orbital Energies (a.u.)
 --------------------------------------------------------------
 
 Alpha MOs
 -- Occupied --
-19.4746 -19.4257 -19.4106 -19.4018 -19.3634 -19.3515 -19.3498 -10.4744
-10.4533 -10.4098  -1.3544  -1.2846  -1.2161  -1.1875  -1.1414  -1.0477
 -1.0273  -0.8846  -0.8109  -0.7458  -0.7003  -0.6732  -0.6615  -0.6516
 -0.6353  -0.6227  -0.5871  -0.5814  -0.5746  -0.5600  -0.5332  -0.5096
 -0.4902  -0.4667  -0.4547  -0.4379  -0.4212  -0.4181  -0.4136  -0.4054
 -0.3858
 -- Virtual --
  0.0274   0.0377   0.0441   0.0480   0.0657   0.0702   0.0784   0.0936
  0.0973   0.1186   0.1278   0.1304   0.1366   0.1397   0.1475   0.1512
  0.1554   0.1712   0.1764   0.1890   0.1957   0.2053   0.2155   0.2267
  0.2416   0.2485   0.2513   0.2546   0.2623   0.2688   0.2701   0.2853
  0.2889   0.2969   0.3024   0.3074   0.3188   0.3213   0.3287   0.3373
  0.3403   0.3486   0.3593   0.3646   0.3685   0.3744   0.3771   0.3809
  0.3908   0.3964   0.4027   0.4116   0.4163   0.4255   0.4334   0.4432
  0.4518   0.4578   0.4642   0.4718   0.4922   0.4947   0.5395   0.5662
  0.5792   0.5944   0.6140   0.6263   0.6463   0.6534   0.6606   0.6765
  0.6813   0.6925   0.7144   0.7402   0.7537   0.7576   0.7702   0.7839
  0.8069   0.8291   0.8548   0.8739   0.8957   0.9165   0.9385   0.9545
  0.9614   1.0021   1.0268   1.0470   1.0575   1.0671   1.0870   1.0950
  1.1168   1.1210   1.1292   1.1413   1.1525   1.1566   1.1760   1.1825
  1.1899   1.1964   1.2007   1.2033   1.2140   1.2294   1.2369   1.2521
  1.2609   1.2749   1.2827   1.2984   1.3029   1.3249   1.3420   1.3558
  1.3628   1.3860   1.4007   1.4130   1.4262   1.4528   1.4672   1.4761
  1.4836   1.5025   1.5177   1.5342   1.5538   1.5627   1.5709   1.5971
  1.6260   1.6405   1.6579   1.6774   1.6916   1.7027   1.7269   1.7347
  1.7594   1.7841   1.7950   1.8373   1.8485   1.8840   1.9333   1.9366
  1.9605   1.9678   1.9875   2.0094   2.0514   2.0715   2.0965   2.1236
  2.1556   2.1704   2.1966   2.2251   2.2458   2.2661   2.3129   2.3370
  2.3505   2.3577   2.3929   2.4029   2.4547   2.4620   2.4872   2.4987
  2.5286   2.5511   2.5868   2.6598   2.7017   2.7101   2.7984   2.8049
  2.8184   2.8478   2.8767   2.8985   2.9429   3.0156   3.0715   3.1134
  3.1514   3.1766   3.2174   3.2445   3.2642   3.3008   3.3252   3.3603
  3.3790   3.4171   3.4221   3.4522   3.5075   3.5351   3.5587   3.5998
  3.6243   3.6570   3.6599   3.6869   3.7043   3.7269   3.7400   3.7606
  3.8083   3.8259   3.8310   3.8440   3.8656   3.8805   3.8995   3.9269
  3.9395   3.9584   3.9821   4.0142   4.0384   4.0686   4.1141   4.1555
  4.1673   4.1871   4.2062   4.2411   4.2580   4.3022   4.3117   4.3561
  4.3684   4.3778   4.4116   4.4335   4.4641   4.4843   4.5574   4.5749
  4.5827   4.6149   4.6568   4.7133   4.7176   4.7833   4.8447   4.8771
  4.8899   4.9681   5.0222   5.0387   5.0493   5.0789   5.0898   5.1143
  5.1977   5.2044   5.2102   5.2232   5.2299   5.2506   5.2589   5.2743
  5.2922   5.2963   5.3122   5.3195   5.3268   5.3437   5.3581   5.3738
  5.3957   5.4001   5.4220   5.4405   5.4609   5.4925   5.5080   5.5177
  5.5397   5.5671   5.5873   5.6022   5.6197   5.6325   5.6551   5.6726
  5.7046   5.7099   5.7305   5.7726   5.7988   5.8255   5.8550   5.9227
  5.9835   6.0302   6.0654   6.0882   6.1450   6.1724   6.2504   6.4540
  6.4889   6.4980   6.5843   6.5888   6.7544   6.8188   6.8550   6.8750
  6.9135   6.9635   7.0171   7.0423   7.0856   7.0921   7.0996   7.1179
  7.1470   7.2011   7.2355   7.2657   7.2723   7.2907   7.3030   7.3174
  7.3314   7.3716   7.4050   7.4159   7.4245   7.4288   7.4468   7.4914
  7.5036   7.5820   7.6025   7.6636   7.6915   7.7663   7.7805   7.8385
  7.8584   7.8683   7.9116   8.0111   8.0278   8.0684   8.2012  24.6356
 24.7915  24.8588  50.4273  50.4936  50.5297  50.5901  50.6215  50.6422
 50.6867
 
 Beta MOs
 -- Occupied --
-19.4640 -19.4106 -19.4072 -19.4017 -19.3633 -19.3515 -19.3498 -10.4741
-10.4533 -10.4102  -1.3286  -1.2840  -1.2160  -1.1873  -1.1413  -1.0460
 -0.9980  -0.8790  -0.8035  -0.7444  -0.6976  -0.6614  -0.6589  -0.6423
 -0.6218  -0.6091  -0.5820  -0.5751  -0.5573  -0.5455  -0.5323  -0.4914
 -0.4861  -0.4618  -0.4528  -0.4371  -0.4179  -0.4127  -0.4018  -0.3877
 -- Virtual --
 -0.0410   0.0275   0.0377   0.0443   0.0482   0.0660   0.0704   0.0790
  0.0939   0.0982   0.1192   0.1292   0.1310   0.1371   0.1399   0.1484
  0.1534   0.1562   0.1724   0.1767   0.1901   0.1994   0.2066   0.2171
  0.2275   0.2420   0.2503   0.2530   0.2552   0.2631   0.2705   0.2741
  0.2870   0.2925   0.2982   0.3029   0.3104   0.3196   0.3216   0.3302
  0.3386   0.3413   0.3503   0.3599   0.3661   0.3691   0.3750   0.3790
  0.3815   0.3916   0.3975   0.4037   0.4119   0.4181   0.4260   0.4336
  0.4440   0.4522   0.4584   0.4654   0.4724   0.4925   0.4950   0.5404
  0.5665   0.5799   0.5954   0.6142   0.6269   0.6465   0.6537   0.6606
  0.6768   0.6816   0.6929   0.7146   0.7410   0.7540   0.7578   0.7706
  0.7854   0.8075   0.8293   0.8560   0.8743   0.8963   0.9173   0.9388
  0.9550   0.9623   1.0032   1.0293   1.0479   1.0585   1.0689   1.0902
  1.0965   1.1184   1.1257   1.1317   1.1517   1.1571   1.1589   1.1789
  1.1859   1.1935   1.1987   1.2062   1.2152   1.2192   1.2325   1.2402
  1.2534   1.2655   1.2780   1.2839   1.3001   1.3066   1.3264   1.3452
  1.3594   1.3647   1.3879   1.4016   1.4152   1.4308   1.4559   1.4721
  1.4773   1.4849   1.5036   1.5194   1.5375   1.5575   1.5667   1.5736
  1.6001   1.6309   1.6459   1.6597   1.6805   1.6921   1.7181   1.7340
  1.7420   1.7629   1.7865   1.7989   1.8395   1.8554   1.8918   1.9368
  1.9396   1.9623   1.9699   1.9893   2.0099   2.0558   2.0729   2.1009
  2.1248   2.1629   2.1771   2.2052   2.2294   2.2470   2.2697   2.3224
  2.3426   2.3554   2.3613   2.3935   2.4037   2.4554   2.4641   2.4879
  2.5002   2.5318   2.5515   2.5876   2.6635   2.7024   2.7153   2.7990
  2.8062   2.8191   2.8480   2.8770   2.8995   2.9439   3.0161   3.0722
  3.1140   3.1519   3.1774   3.2179   3.2455   3.2646   3.3011   3.3262
  3.3605   3.3792   3.4176   3.4224   3.4527   3.5080   3.5357   3.5591
  3.5998   3.6242   3.6571   3.6597   3.6870   3.7044   3.7271   3.7412
  3.7615   3.8089   3.8259   3.8313   3.8444   3.8659   3.8808   3.9000
  3.9274   3.9397   3.9586   3.9822   4.0144   4.0384   4.0694   4.1144
  4.1558   4.1680   4.1875   4.2072   4.2416   4.2586   4.3025   4.3122
  4.3583   4.3688   4.3793   4.4132   4.4348   4.4650   4.4862   4.5589
  4.5773   4.6004   4.6217   4.6681   4.7171   4.7246   4.7919   4.8466
  4.8884   4.9085   4.9745   5.0296   5.0469   5.0539   5.1302   5.1438
  5.1685   5.2106   5.2171   5.2355   5.2426   5.2517   5.2574   5.2783
  5.2837   5.2959   5.3003   5.3193   5.3266   5.3357   5.3453   5.3638
  5.3806   5.4022   5.4067   5.4259   5.4452   5.4653   5.4931   5.5118
  5.5299   5.5405   5.5698   5.5909   5.6029   5.6209   5.6345   5.6577
  5.6729   5.7082   5.7151   5.7360   5.7752   5.8044   5.8273   5.8673
  5.9271   5.9844   6.0305   6.0663   6.0885   6.1454   6.1725   6.2506
  6.4953   6.5018   6.5052   6.5877   6.5990   6.7548   6.8231   6.8589
  6.9513   6.9771   7.0084   7.0291   7.0515   7.0864   7.0995   7.1210
  7.1365   7.1483   7.2173   7.2501   7.2723   7.2760   7.3010   7.3114
  7.3234   7.3377   7.3772   7.4080   7.4227   7.4356   7.4512   7.4682
  7.4954   7.5113   7.5828   7.6028   7.6637   7.6919   7.7700   7.7860
  7.8415   7.8600   7.8687   7.9117   8.0113   8.0395   8.0889   8.2022
 24.6354  24.7915  24.8589  50.4395  50.4944  50.5376  50.5913  50.6216
 50.6423  50.6869
 --------------------------------------------------------------
 
          Ground-State Mulliken Net Atomic Charges

     Atom                 Charge (a.u.)    Spin (a.u.)
  --------------------------------------------------------
      1 C                    -0.111835       0.004030
      2 O                    -0.415108       0.000247
      3 C                     0.180168      -0.002201
      4 O                    -0.379675       0.003454
      5 C                    -0.511346       0.005040
      6 O                     0.082295       0.318591
      7 O                    -0.217545       0.661330
      8 H                     0.299454       0.000191
      9 H                     0.341126      -0.000024
     10 H                     0.298820       0.008631
     11 H                     0.307359       0.000870
     12 O                    -0.448208       0.000461
     13 H                     0.351435       0.000065
     14 O                    -0.167724      -0.001646
     15 O                    -0.277819       0.001696
     16 H                     0.326452      -0.001371
     17 H                     0.342148       0.000637
  --------------------------------------------------------
  Sum of atomic charges =     0.000000
  Sum of spin   charges =     1.000000

 -----------------------------------------------------------------
                    Cartesian Multipole Moments
 -----------------------------------------------------------------
    Charge (ESU x 10^10)
                 0.0000
    Dipole Moment (Debye)
         X      -2.4036      Y       3.9970      Z      -0.6841
       Tot       4.7139
    Quadrupole Moments (Debye-Ang)
        XX     -72.1593     XY      15.3446     YY     -61.1794
        XZ      -0.4446     YZ      -7.8459     ZZ     -61.7369
    Octopole Moments (Debye-Ang^2)
       XXX    -685.8253    XXY      84.9448    XYY    -216.8359
       YYY      68.1343    XXZ     -17.9560    XYZ     -37.7113
       YYZ       7.2839    XZZ    -229.6664    YZZ      26.2058
       ZZZ       0.6810
    Hexadecapole Moments (Debye-Ang^3)
      XXXX   -5193.8908   XXXY     409.7396   XXYY    -960.4711
      XYYY     130.3041   YYYY    -527.4218   XXXZ    -237.2563
      XXYZ    -215.1219   XYYZ     -14.6383   YYYZ    -142.0062
      XXZZ   -1030.0062   XYZZ      41.4611   YYZZ    -205.3031
      XZZZ     -61.3569   YZZZ    -140.5693   ZZZZ    -539.7291
 -----------------------------------------------------------------
 Calculating analytic gradient of the SCF energy
 Gradient of CDS energy
            1           2           3           4           5           6
    1  -0.0018801   0.0021936  -0.0000832   0.0000807  -0.0003596   0.0000953
    2  -0.0029269  -0.0007227  -0.0025740   0.0026443   0.0008241  -0.0002080
    3  -0.0001440  -0.0007858   0.0030483  -0.0032910   0.0001448   0.0000738
            7           8           9          10          11          12
    1   0.0000422   0.0002209  -0.0005028  -0.0000587   0.0002233  -0.0001255
    2   0.0001494   0.0000873   0.0001099  -0.0003006  -0.0001005   0.0036522
    3  -0.0000611  -0.0000621  -0.0000508   0.0001861  -0.0002569   0.0008020
           13          14          15          16          17
    1  -0.0000629  -0.0000623  -0.0001903   0.0000760   0.0003932
    2  -0.0004795  -0.0000139  -0.0001859  -0.0002117   0.0002564
    3   0.0000969  -0.0000309   0.0001302   0.0003890  -0.0001886
 Gradient of SCF Energy
            1           2           3           4           5           6
    1  -0.0007912   0.0087284  -0.0001931  -0.0024449   0.0130814  -0.0012157
    2  -0.0026221  -0.0021190   0.0059433  -0.0044790  -0.0143933   0.0006527
    3   0.0085504   0.0137536  -0.0037091  -0.0053106   0.0073611   0.0004803
            7           8           9          10          11          12
    1   0.0010517  -0.0026289  -0.0098122  -0.0074975  -0.0023642   0.0042066
    2   0.0010129   0.0064698   0.0020742   0.0021157   0.0089682  -0.0017566
    3   0.0005151  -0.0052584  -0.0120363   0.0067282  -0.0121050  -0.0052949
           13          14          15          16          17
    1  -0.0022379   0.0001554  -0.0071617   0.0021201   0.0070037
    2  -0.0013760  -0.0048155  -0.0124067   0.0032700   0.0134617
    3   0.0026587   0.0005349  -0.0073996   0.0059896   0.0045421
 Max gradient component =       1.439E-02
 RMS gradient           =       6.567E-03
 Computing fast CPCM-SWIG gradient
 Updating gradient with PCM contributions...
 -- total gradient after adding PCM contribution --
---------------------------------------------------
  Atom         X              Y              Z     
---------------------------------------------------
   1       0.000007       0.000019      -0.000020
   2      -0.000028      -0.000012      -0.000009
   3      -0.000057      -0.000054       0.000018
   4       0.000040       0.000051      -0.000020
   5       0.000003       0.000011       0.000025
   6       0.000012      -0.000011      -0.000035
   7      -0.000003      -0.000001      -0.000009
   8      -0.000012      -0.000011       0.000015
   9       0.000002      -0.000002       0.000016
  10       0.000003      -0.000011      -0.000006
  11       0.000010      -0.000004      -0.000003
  12      -0.000015       0.000005       0.000018
  13       0.000009      -0.000003      -0.000003
  14       0.000027       0.000029      -0.000034
  15       0.000003      -0.000003       0.000053
  16       0.000001      -0.000005       0.000015
  17      -0.000002       0.000003      -0.000020
---------------------------------------------------
 Number of fixed atoms: 0
 Gradient time:  CPU 324.66 s  wall 26.58 s
 ######################################################
 ######################################################
 # Starting finite difference calculation for IDERIV  #
 Finite diff step size:  1.88973e-03 a.u.
 ----------------------------------------------------------------
             Standard Nuclear Orientation (Angstroms)
    I     Atom           X                Y                Z
 ----------------------------------------------------------------
    1      C       2.4210687798    -0.9790920545    -0.9215201904
    2      O       1.1894954774    -0.6310284867    -0.3364635883
    3      C       3.5099240149    -0.5590161174     0.0731646840
    4      O       3.4691958427    -1.4388063794     1.1486151357
    5      C       3.3288892639     0.9015954964     0.4763969840
    6      O       4.5315944667     1.4205087648     1.0903126444
    7      O       4.7949987196     0.8225013447     2.2203492668
    8      H       2.5653014436    -0.4572620950    -1.8647448283
    9      H       0.5134035831    -0.6553808589    -1.0232298307
   10      H       2.5131001386     1.0010085408     1.1855068429
   11      H       3.1676008269     1.5391252468    -0.3870791947
   12      O       2.5035408365    -2.3493948663    -1.2096186970
   13      H       2.4917489919    -2.8365485078    -0.3745673766
   14      O       4.8053734977    -0.7846505609    -0.5022874195
   15      O       4.9755281516     0.0808429593    -1.6235385318
   16      H       3.9212700478    -1.0301944876     1.9016960222
   17      H       5.5669974174     0.7618857620    -1.2691441228
 ----------------------------------------------------------------
 Nuclear Repulsion Energy =         634.53092517 hartrees
 There are       41 alpha and       40 beta electrons
 Discretize the solute cavity surface with Lebedev spheres
	Using 110 Lebedev grid points for each H atom
	Using 194 Lebedev grid points for other atoms
	Atomic van der Waals radii will be scaled by 1.20
 Remove points where switching function is < 1.0e-08
 Keep 1363 surface tesserae and discard 1347 interior tesserae
 Molecular Surface Area = 152.685 Angst**2
 Requested basis set is 6-311++G(2df,2p)
 There are 122 shells and 410 basis functions
 A cutoff of  1.0D-12 yielded   6744 shell pairs
 There are     75775 function pairs (     94823 Cartesian)
 Smallest overlap matrix eigenvalue = 1.08E-05
 Guess MOs from SCF MO coefficient file

 -----------------------------------------------------------------------
  General SCF calculation program by
  Eric Jon Sundstrom, Paul Horn, Yuezhi Mao, Dmitri Zuev, Alec White,
  David Stuck, Shaama M.S., Shane Yost, Joonho Lee, David Small,
  Daniel Levine, Susi Lehtola, Hugh Burton, Evgeny Epifanovsky,
  Bang C. Huynh
 -----------------------------------------------------------------------
 Exchange:     0.1500 Hartree-Fock + 1.0000 wB97M-V + LR-HF
 Correlation:  1.0000 wB97M-V
 Using SG-2 standard quadrature grid
 Nonlocal Correlation:  VV10 with C = 0.0100 and b = 6.00 and scale = 1.00000
 Grid used for NLC:  SG-1 standard quadrature
 
 Citation of the SMD model:
 Marenich, A.V.; Cramer, C.J.; Truhlar, D.G.
 J. Phys. Chem. B 2009, 113, 6378-6396.
 iSolventCode=           1
 Solvent: water                                                           
 
 vradii
            1           2           3           4           5           6
    1   1.8500000   1.5200000   1.8500000   1.5200000   1.8500000   1.5200000
            7           8           9          10          11          12
    1   1.5200000   1.2000000   1.2000000   1.2000000   1.2000000   1.5200000
           13          14          15          16          17
    1   1.2000000   1.5200000   1.5200000   1.2000000   1.2000000
 -------------------------------------------------------
 OpenMP BLAS3 based DFT computing Module                
 Release: version 1.0, May 2013, Q-Chem Inc. Pittsburgh 
 -------------------------------------------------------
 A unrestricted SCF calculation will be
 performed using Roothaan-Hall, DIIS, GDM
 SCF converges when RMS gradient is below 1.0e-07
 ---------------------------------------
  Cycle       Energy         DIIS error
 ---------------------------------------
    1    -644.8973343728      2.25e-04  Roothaan Step
 ---------------------------------------
  Cycle       Energy         DIIS error
 ---------------------------------------
    1    -644.9333058321      2.50e-04  
    2    -644.9383049453      2.05e-04  Done DIIS. Switching to GDM
 ---------------------------------------
  Cycle       Energy        RMS Gradient
 ---------------------------------------
    1    -644.9383049453      1.55e-02   Normal BFGS step
    2    -644.9376416527      2.39e-02  Line search: overstep
    3    -644.9406038825      3.11e-03   Normal BFGS step
    4    -644.9407489928      1.30e-03   Normal BFGS step
    5    -644.9407946276      8.11e-04   Normal BFGS step
    6    -644.9407997687      1.54e-04   Normal BFGS step
    7    -644.9408008420      1.95e-04   Normal BFGS step
    8    -644.9408010865      9.70e-05   Normal BFGS step
    9    -644.9408011774      6.41e-05   Normal BFGS step
   10    -644.9408012156      2.20e-05   Normal BFGS step
   11    -644.9408012201      1.75e-05   Normal BFGS step
   12    -644.9408012215      1.55e-05   Normal BFGS step
   13    -644.9408012223      1.36e-05   Normal BFGS step
   14    -644.9408012232      8.51e-06   Normal BFGS step
   15    -644.9408012236      3.51e-06   Normal BFGS step
   16    -644.9408012237      1.17e-06   Normal BFGS step
   17    -644.9408012238      3.14e-07   Normal BFGS step
   18    -644.9408012238      1.20e-07   Normal BFGS step
   19    -644.9408012238      6.00e-08  Convergence criterion met
 ---------------------------------------
 SCF time:   CPU 2333.74s  wall 161.00s 
<S^2> =          0.753945538
(3)  G-ENP(liq) elect-nuc-pol free energy of system     -644.940801224 a.u.
(4)  G-CDS(liq) cavity-dispersion-solvent structure 
     free energy                                                2.7682 kcal/mol
(6)  G-S(liq) free energy of system                     -644.936389878 a.u.
 SCF   energy in the final basis set =     -644.9363898778
 Total energy in the final basis set =     -644.9363898778
 
 --------------------------------------------------------------
 
                    Orbital Energies (a.u.)
 --------------------------------------------------------------
 
 Alpha MOs
 -- Occupied --
-19.4746 -19.4257 -19.4106 -19.4018 -19.3635 -19.3514 -19.3499 -10.4745
-10.4533 -10.4098  -1.3544  -1.2846  -1.2160  -1.1875  -1.1412  -1.0477
 -1.0273  -0.8847  -0.8109  -0.7458  -0.7003  -0.6733  -0.6614  -0.6517
 -0.6353  -0.6227  -0.5871  -0.5814  -0.5746  -0.5600  -0.5332  -0.5096
 -0.4902  -0.4667  -0.4547  -0.4379  -0.4212  -0.4180  -0.4136  -0.4054
 -0.3859
 -- Virtual --
  0.0274   0.0377   0.0441   0.0480   0.0657   0.0702   0.0784   0.0936
  0.0973   0.1186   0.1278   0.1304   0.1366   0.1397   0.1475   0.1512
  0.1555   0.1712   0.1764   0.1890   0.1957   0.2053   0.2155   0.2267
  0.2416   0.2485   0.2513   0.2546   0.2623   0.2688   0.2701   0.2852
  0.2888   0.2968   0.3023   0.3074   0.3188   0.3214   0.3287   0.3374
  0.3403   0.3486   0.3593   0.3646   0.3685   0.3744   0.3771   0.3810
  0.3908   0.3965   0.4026   0.4116   0.4163   0.4255   0.4334   0.4433
  0.4519   0.4578   0.4642   0.4718   0.4922   0.4947   0.5395   0.5663
  0.5793   0.5944   0.6140   0.6263   0.6462   0.6534   0.6606   0.6766
  0.6813   0.6925   0.7144   0.7402   0.7537   0.7576   0.7702   0.7839
  0.8069   0.8291   0.8549   0.8739   0.8957   0.9165   0.9385   0.9544
  0.9614   1.0021   1.0268   1.0470   1.0575   1.0671   1.0870   1.0950
  1.1168   1.1210   1.1292   1.1413   1.1525   1.1566   1.1760   1.1825
  1.1899   1.1964   1.2007   1.2033   1.2140   1.2294   1.2370   1.2521
  1.2608   1.2750   1.2827   1.2984   1.3029   1.3249   1.3421   1.3558
  1.3628   1.3861   1.4006   1.4130   1.4262   1.4528   1.4672   1.4761
  1.4836   1.5025   1.5178   1.5343   1.5538   1.5628   1.5709   1.5971
  1.6261   1.6405   1.6580   1.6775   1.6916   1.7028   1.7270   1.7346
  1.7594   1.7842   1.7950   1.8374   1.8485   1.8840   1.9333   1.9366
  1.9605   1.9677   1.9874   2.0095   2.0514   2.0715   2.0964   2.1236
  2.1556   2.1703   2.1965   2.2251   2.2457   2.2660   2.3129   2.3369
  2.3503   2.3577   2.3927   2.4028   2.4548   2.4620   2.4872   2.4987
  2.5286   2.5511   2.5868   2.6598   2.7017   2.7101   2.7984   2.8050
  2.8184   2.8478   2.8765   2.8984   2.9430   3.0158   3.0716   3.1134
  3.1514   3.1767   3.2175   3.2446   3.2642   3.3008   3.3251   3.3599
  3.3789   3.4173   3.4222   3.4520   3.5074   3.5351   3.5585   3.5998
  3.6244   3.6567   3.6599   3.6869   3.7047   3.7267   3.7399   3.7606
  3.8084   3.8259   3.8310   3.8442   3.8656   3.8805   3.8995   3.9268
  3.9394   3.9583   3.9821   4.0143   4.0386   4.0688   4.1141   4.1558
  4.1674   4.1872   4.2063   4.2413   4.2581   4.3023   4.3119   4.3563
  4.3686   4.3779   4.4116   4.4336   4.4641   4.4845   4.5578   4.5750
  4.5828   4.6150   4.6569   4.7133   4.7177   4.7833   4.8447   4.8771
  4.8899   4.9683   5.0223   5.0387   5.0494   5.0789   5.0898   5.1143
  5.1977   5.2044   5.2102   5.2232   5.2300   5.2505   5.2589   5.2742
  5.2922   5.2963   5.3123   5.3194   5.3268   5.3437   5.3582   5.3739
  5.3957   5.4001   5.4221   5.4407   5.4608   5.4925   5.5080   5.5176
  5.5396   5.5671   5.5874   5.6022   5.6197   5.6324   5.6551   5.6725
  5.7047   5.7096   5.7305   5.7725   5.7988   5.8255   5.8549   5.9225
  5.9834   6.0300   6.0654   6.0881   6.1448   6.1706   6.2503   6.4540
  6.4889   6.4979   6.5840   6.5885   6.7536   6.8188   6.8550   6.8750
  6.9135   6.9635   7.0171   7.0423   7.0856   7.0921   7.0996   7.1179
  7.1470   7.2011   7.2355   7.2656   7.2722   7.2906   7.3030   7.3174
  7.3313   7.3716   7.4050   7.4159   7.4245   7.4288   7.4467   7.4914
  7.5036   7.5820   7.6025   7.6635   7.6914   7.7663   7.7805   7.8385
  7.8584   7.8683   7.9115   8.0111   8.0278   8.0684   8.2013  24.6355
 24.7910  24.8593  50.4273  50.4936  50.5297  50.5901  50.6213  50.6422
 50.6866
 
 Beta MOs
 -- Occupied --
-19.4640 -19.4106 -19.4073 -19.4017 -19.3634 -19.3514 -19.3499 -10.4741
-10.4533 -10.4102  -1.3286  -1.2840  -1.2159  -1.1872  -1.1412  -1.0461
 -0.9980  -0.8791  -0.8036  -0.7444  -0.6976  -0.6614  -0.6588  -0.6423
 -0.6218  -0.6091  -0.5819  -0.5751  -0.5573  -0.5455  -0.5323  -0.4914
 -0.4861  -0.4618  -0.4528  -0.4371  -0.4179  -0.4127  -0.4018  -0.3878
 -- Virtual --
 -0.0411   0.0275   0.0377   0.0443   0.0482   0.0660   0.0704   0.0790
  0.0939   0.0982   0.1192   0.1292   0.1310   0.1371   0.1399   0.1484
  0.1534   0.1562   0.1724   0.1767   0.1901   0.1994   0.2066   0.2170
  0.2275   0.2420   0.2503   0.2529   0.2551   0.2631   0.2705   0.2741
  0.2869   0.2925   0.2981   0.3029   0.3104   0.3196   0.3217   0.3302
  0.3387   0.3413   0.3503   0.3599   0.3661   0.3691   0.3750   0.3790
  0.3815   0.3916   0.3975   0.4036   0.4119   0.4181   0.4260   0.4336
  0.4440   0.4522   0.4584   0.4653   0.4724   0.4924   0.4951   0.5404
  0.5666   0.5800   0.5954   0.6142   0.6269   0.6465   0.6537   0.6606
  0.6768   0.6815   0.6929   0.7146   0.7411   0.7540   0.7578   0.7706
  0.7854   0.8075   0.8293   0.8561   0.8743   0.8963   0.9173   0.9388
  0.9550   0.9623   1.0032   1.0293   1.0479   1.0585   1.0689   1.0902
  1.0965   1.1185   1.1257   1.1317   1.1517   1.1571   1.1589   1.1788
  1.1859   1.1934   1.1986   1.2062   1.2152   1.2192   1.2325   1.2402
  1.2534   1.2654   1.2780   1.2839   1.3001   1.3066   1.3264   1.3453
  1.3594   1.3647   1.3880   1.4016   1.4152   1.4308   1.4559   1.4720
  1.4774   1.4849   1.5036   1.5194   1.5376   1.5575   1.5668   1.5736
  1.6000   1.6310   1.6459   1.6598   1.6806   1.6921   1.7182   1.7339
  1.7420   1.7629   1.7867   1.7988   1.8395   1.8554   1.8918   1.9369
  1.9396   1.9623   1.9698   1.9892   2.0100   2.0558   2.0729   2.1008
  2.1249   2.1629   2.1770   2.2051   2.2294   2.2470   2.2697   2.3224
  2.3425   2.3552   2.3614   2.3933   2.4037   2.4555   2.4642   2.4878
  2.5001   2.5318   2.5514   2.5876   2.6635   2.7025   2.7153   2.7990
  2.8063   2.8191   2.8480   2.8769   2.8995   2.9440   3.0163   3.0724
  3.1140   3.1519   3.1774   3.2181   3.2455   3.2646   3.3011   3.3260
  3.3602   3.3792   3.4178   3.4226   3.4526   3.5079   3.5357   3.5589
  3.5997   3.6243   3.6569   3.6597   3.6870   3.7047   3.7269   3.7411
  3.7614   3.8091   3.8260   3.8313   3.8446   3.8659   3.8809   3.8999
  3.9273   3.9397   3.9586   3.9822   4.0145   4.0386   4.0695   4.1144
  4.1560   4.1681   4.1876   4.2072   4.2417   4.2586   4.3027   4.3124
  4.3586   4.3690   4.3794   4.4133   4.4349   4.4649   4.4864   4.5593
  4.5775   4.6005   4.6217   4.6682   4.7172   4.7246   4.7919   4.8466
  4.8884   4.9085   4.9747   5.0296   5.0470   5.0540   5.1302   5.1438
  5.1685   5.2106   5.2171   5.2355   5.2426   5.2516   5.2574   5.2783
  5.2837   5.2959   5.3003   5.3194   5.3265   5.3357   5.3453   5.3639
  5.3807   5.4022   5.4067   5.4260   5.4453   5.4653   5.4931   5.5118
  5.5298   5.5403   5.5698   5.5910   5.6029   5.6209   5.6344   5.6577
  5.6727   5.7081   5.7150   5.7359   5.7750   5.8043   5.8274   5.8673
  5.9269   5.9842   6.0303   6.0662   6.0884   6.1452   6.1708   6.2506
  6.4952   6.5018   6.5053   6.5872   6.5989   6.7540   6.8230   6.8589
  6.9513   6.9771   7.0084   7.0291   7.0515   7.0863   7.0995   7.1210
  7.1365   7.1483   7.2173   7.2500   7.2723   7.2760   7.3010   7.3113
  7.3234   7.3376   7.3772   7.4079   7.4227   7.4356   7.4512   7.4682
  7.4954   7.5113   7.5828   7.6028   7.6636   7.6918   7.7700   7.7860
  7.8414   7.8600   7.8687   7.9115   8.0113   8.0395   8.0889   8.2023
 24.6353  24.7910  24.8594  50.4395  50.4944  50.5376  50.5913  50.6213
 50.6423  50.6868
 --------------------------------------------------------------
 
          Ground-State Mulliken Net Atomic Charges

     Atom                 Charge (a.u.)    Spin (a.u.)
  --------------------------------------------------------
      1 C                    -0.111992       0.004035
      2 O                    -0.415622       0.000246
      3 C                     0.180213      -0.002211
      4 O                    -0.379671       0.003452
      5 C                    -0.511185       0.005039
      6 O                     0.082315       0.318568
      7 O                    -0.217518       0.661363
      8 H                     0.299663       0.000191
      9 H                     0.341092      -0.000025
     10 H                     0.298837       0.008629
     11 H                     0.307358       0.000871
     12 O                    -0.448120       0.000461
     13 H                     0.351467       0.000065
     14 O                    -0.167703      -0.001646
     15 O                    -0.277750       0.001695
     16 H                     0.326464      -0.001370
     17 H                     0.342151       0.000637
  --------------------------------------------------------
  Sum of atomic charges =     0.000000
  Sum of spin   charges =     1.000000

 -----------------------------------------------------------------
                    Cartesian Multipole Moments
 -----------------------------------------------------------------
    Charge (ESU x 10^10)
                 0.0000
    Dipole Moment (Debye)
         X      -2.3970      Y       3.9959      Z      -0.6848
       Tot       4.7098
    Quadrupole Moments (Debye-Ang)
        XX     -72.1302     XY      15.3386     YY     -61.1736
        XZ      -0.4478     YZ      -7.8434     ZZ     -61.7310
    Octopole Moments (Debye-Ang^2)
       XXX    -685.7225    XXY      84.9251    XYY    -216.8194
       YYY      68.1183    XXZ     -17.9625    XYZ     -37.7032
       YYZ       7.2785    XZZ    -229.6478    YZZ      26.2009
       ZZZ       0.6754
    Hexadecapole Moments (Debye-Ang^3)
      XXXX   -5193.5434   XXXY     409.6978   XXYY    -960.4234
      XYYY     130.2804   YYYY    -527.3587   XXXZ    -237.2451
      XXYZ    -215.0967   XYYZ     -14.6447   YYYZ    -141.9861
      XXZZ   -1029.9423   XYZZ      41.4526   YYZZ    -205.2857
      XZZZ     -61.3526   YZZZ    -140.5581   ZZZZ    -539.6871
 -----------------------------------------------------------------
 Calculating analytic gradient of the SCF energy
 Gradient of CDS energy
            1           2           3           4           5           6
    1  -0.0017216   0.0020375  -0.0000833   0.0000805  -0.0003597   0.0000953
    2  -0.0029870  -0.0006769  -0.0025741   0.0026443   0.0008241  -0.0002080
    3  -0.0002206  -0.0007119   0.0030482  -0.0032909   0.0001447   0.0000738
            7           8           9          10          11          12
    1   0.0000422   0.0002186  -0.0005033  -0.0000590   0.0002232  -0.0001243
    2   0.0001494   0.0000889   0.0001100  -0.0003007  -0.0001005   0.0036647
    3  -0.0000611  -0.0000622  -0.0000507   0.0001861  -0.0002569   0.0008047
           13          14          15          16          17
    1  -0.0000630  -0.0000622  -0.0001902   0.0000760   0.0003932
    2  -0.0004794  -0.0000138  -0.0001858  -0.0002117   0.0002564
    3   0.0000971  -0.0000308   0.0001302   0.0003890  -0.0001886
 Gradient of SCF Energy
            1           2           3           4           5           6
    1   0.0002982   0.0081905  -0.0004219  -0.0024462   0.0130923  -0.0012122
    2  -0.0025962  -0.0020527   0.0059025  -0.0044773  -0.0144099   0.0006621
    3   0.0085002   0.0138607  -0.0038348  -0.0053118   0.0073620   0.0004851
            7           8           9          10          11          12
    1   0.0010516  -0.0027443  -0.0098609  -0.0074929  -0.0023605   0.0040855
    2   0.0010138   0.0064371   0.0020914   0.0021174   0.0089695  -0.0017740
    3   0.0005164  -0.0052273  -0.0119874   0.0067286  -0.0121076  -0.0052956
           13          14          15          16          17
    1  -0.0022351   0.0000903  -0.0071661   0.0021260   0.0070057
    2  -0.0013821  -0.0048227  -0.0124109   0.0032675   0.0134647
    3   0.0026563   0.0005188  -0.0074024   0.0059947   0.0045440
 Max gradient component =       1.441E-02
 RMS gradient           =       6.556E-03
 Computing fast CPCM-SWIG gradient
 Updating gradient with PCM contributions...
 -- total gradient after adding PCM contribution --
---------------------------------------------------
  Atom         X              Y              Z     
---------------------------------------------------
   1       0.001081       0.000041      -0.000079
   2      -0.000539       0.000056       0.000109
   3      -0.000278      -0.000087      -0.000104
   4       0.000045       0.000052      -0.000018
   5       0.000015      -0.000004       0.000023
   6       0.000015      -0.000003      -0.000030
   7      -0.000003      -0.000001      -0.000009
   8      -0.000120      -0.000043       0.000053
   9      -0.000066       0.000016       0.000055
  10       0.000001      -0.000011      -0.000005
  11       0.000011      -0.000004      -0.000004
  12      -0.000127      -0.000020       0.000014
  13       0.000005      -0.000005      -0.000004
  14      -0.000041       0.000020      -0.000047
  15       0.000000      -0.000004       0.000051
  16       0.000003      -0.000008       0.000016
  17      -0.000002       0.000002      -0.000020
---------------------------------------------------
 Number of fixed atoms: 0
 Gradient time:  CPU 326.61 s  wall 26.80 s
 ----------------------------------------------------------------
             Standard Nuclear Orientation (Angstroms)
    I     Atom           X                Y                Z
 ----------------------------------------------------------------
    1      C       2.4190687798    -0.9790920545    -0.9215201904
    2      O       1.1894954774    -0.6310284867    -0.3364635883
    3      C       3.5099240149    -0.5590161174     0.0731646840
    4      O       3.4691958427    -1.4388063794     1.1486151357
    5      C       3.3288892639     0.9015954964     0.4763969840
    6      O       4.5315944667     1.4205087648     1.0903126444
    7      O       4.7949987196     0.8225013447     2.2203492668
    8      H       2.5653014436    -0.4572620950    -1.8647448283
    9      H       0.5134035831    -0.6553808589    -1.0232298307
   10      H       2.5131001386     1.0010085408     1.1855068429
   11      H       3.1676008269     1.5391252468    -0.3870791947
   12      O       2.5035408365    -2.3493948663    -1.2096186970
   13      H       2.4917489919    -2.8365485078    -0.3745673766
   14      O       4.8053734977    -0.7846505609    -0.5022874195
   15      O       4.9755281516     0.0808429593    -1.6235385318
   16      H       3.9212700478    -1.0301944876     1.9016960222
   17      H       5.5669974174     0.7618857620    -1.2691441228
 ----------------------------------------------------------------
 Nuclear Repulsion Energy =         634.51655375 hartrees
 There are       41 alpha and       40 beta electrons
 Discretize the solute cavity surface with Lebedev spheres
	Using 110 Lebedev grid points for each H atom
	Using 194 Lebedev grid points for other atoms
	Atomic van der Waals radii will be scaled by 1.20
 Remove points where switching function is < 1.0e-08
 Keep 1363 surface tesserae and discard 1347 interior tesserae
 Molecular Surface Area = 152.682 Angst**2
 Requested basis set is 6-311++G(2df,2p)
 There are 122 shells and 410 basis functions
 A cutoff of  1.0D-12 yielded   6744 shell pairs
 There are     75775 function pairs (     94823 Cartesian)
 Smallest overlap matrix eigenvalue = 1.08E-05
 Guess MOs from SCF MO coefficient file

 -----------------------------------------------------------------------
  General SCF calculation program by
  Eric Jon Sundstrom, Paul Horn, Yuezhi Mao, Dmitri Zuev, Alec White,
  David Stuck, Shaama M.S., Shane Yost, Joonho Lee, David Small,
  Daniel Levine, Susi Lehtola, Hugh Burton, Evgeny Epifanovsky,
  Bang C. Huynh
 -----------------------------------------------------------------------
 Exchange:     0.1500 Hartree-Fock + 1.0000 wB97M-V + LR-HF
 Correlation:  1.0000 wB97M-V
 Using SG-2 standard quadrature grid
 Nonlocal Correlation:  VV10 with C = 0.0100 and b = 6.00 and scale = 1.00000
 Grid used for NLC:  SG-1 standard quadrature
 
 Citation of the SMD model:
 Marenich, A.V.; Cramer, C.J.; Truhlar, D.G.
 J. Phys. Chem. B 2009, 113, 6378-6396.
 iSolventCode=           1
 Solvent: water                                                           
 
 vradii
            1           2           3           4           5           6
    1   1.8500000   1.5200000   1.8500000   1.5200000   1.8500000   1.5200000
            7           8           9          10          11          12
    1   1.5200000   1.2000000   1.2000000   1.2000000   1.2000000   1.5200000
           13          14          15          16          17
    1   1.2000000   1.5200000   1.5200000   1.2000000   1.2000000
 -------------------------------------------------------
 OpenMP BLAS3 based DFT computing Module                
 Release: version 1.0, May 2013, Q-Chem Inc. Pittsburgh 
 -------------------------------------------------------
 A unrestricted SCF calculation will be
 performed using Roothaan-Hall, DIIS, GDM
 SCF converges when RMS gradient is below 1.0e-07
 ---------------------------------------
  Cycle       Energy         DIIS error
 ---------------------------------------
    1    -644.8973386641      2.25e-04  Roothaan Step
 ---------------------------------------
  Cycle       Energy         DIIS error
 ---------------------------------------
    1    -644.9333183776      2.50e-04  
    2    -644.9383200667      2.05e-04  Done DIIS. Switching to GDM
 ---------------------------------------
  Cycle       Energy        RMS Gradient
 ---------------------------------------
    1    -644.9383200667      1.55e-02   Normal BFGS step
    2    -644.9376557507      2.40e-02  Line search: overstep
    3    -644.9406108369      3.11e-03   Normal BFGS step
    4    -644.9407562521      1.28e-03   Normal BFGS step
    5    -644.9408017503      8.13e-04   Normal BFGS step
    6    -644.9408068947      1.55e-04   Normal BFGS step
    7    -644.9408079730      1.96e-04   Normal BFGS step
    8    -644.9408082195      9.82e-05   Normal BFGS step
    9    -644.9408083109      6.45e-05   Normal BFGS step
   10    -644.9408083488      2.04e-05   Normal BFGS step
   11    -644.9408083531      1.47e-05   Normal BFGS step
   12    -644.9408083543      1.30e-05   Normal BFGS step
   13    -644.9408083548      1.17e-05   Normal BFGS step
   14    -644.9408083555      8.21e-06   Normal BFGS step
   15    -644.9408083558      3.83e-06   Normal BFGS step
   16    -644.9408083560      1.15e-06   Normal BFGS step
   17    -644.9408083560      3.62e-07   Normal BFGS step
   18    -644.9408083560      1.21e-07   Normal BFGS step
   19    -644.9408083560      6.01e-08  Convergence criterion met
 ---------------------------------------
 SCF time:   CPU 2337.51s  wall 162.00s 
<S^2> =          0.753945834
(3)  G-ENP(liq) elect-nuc-pol free energy of system     -644.940808356 a.u.
(4)  G-CDS(liq) cavity-dispersion-solvent structure 
     free energy                                                2.7726 kcal/mol
(6)  G-S(liq) free energy of system                     -644.936389906 a.u.
 SCF   energy in the final basis set =     -644.9363899064
 Total energy in the final basis set =     -644.9363899064
 
 --------------------------------------------------------------
 
                    Orbital Energies (a.u.)
 --------------------------------------------------------------
 
 Alpha MOs
 -- Occupied --
-19.4746 -19.4257 -19.4106 -19.4017 -19.3634 -19.3516 -19.3498 -10.4744
-10.4533 -10.4098  -1.3543  -1.2845  -1.2162  -1.1875  -1.1415  -1.0477
 -1.0273  -0.8845  -0.8108  -0.7458  -0.7004  -0.6732  -0.6615  -0.6516
 -0.6353  -0.6227  -0.5871  -0.5815  -0.5746  -0.5600  -0.5333  -0.5096
 -0.4901  -0.4667  -0.4547  -0.4379  -0.4212  -0.4181  -0.4136  -0.4054
 -0.3857
 -- Virtual --
  0.0274   0.0377   0.0441   0.0480   0.0657   0.0702   0.0784   0.0936
  0.0973   0.1186   0.1278   0.1304   0.1366   0.1397   0.1475   0.1512
  0.1554   0.1712   0.1764   0.1890   0.1958   0.2053   0.2156   0.2267
  0.2416   0.2485   0.2513   0.2546   0.2623   0.2688   0.2701   0.2853
  0.2890   0.2969   0.3024   0.3074   0.3188   0.3212   0.3287   0.3373
  0.3403   0.3486   0.3593   0.3646   0.3686   0.3744   0.3771   0.3809
  0.3908   0.3964   0.4027   0.4116   0.4163   0.4255   0.4334   0.4432
  0.4518   0.4578   0.4642   0.4719   0.4923   0.4947   0.5395   0.5661
  0.5791   0.5944   0.6140   0.6263   0.6463   0.6534   0.6606   0.6765
  0.6814   0.6925   0.7143   0.7402   0.7536   0.7576   0.7702   0.7839
  0.8069   0.8291   0.8548   0.8739   0.8957   0.9165   0.9384   0.9545
  0.9614   1.0021   1.0267   1.0470   1.0575   1.0671   1.0870   1.0949
  1.1167   1.1210   1.1292   1.1413   1.1525   1.1566   1.1760   1.1825
  1.1900   1.1964   1.2007   1.2034   1.2140   1.2294   1.2369   1.2521
  1.2610   1.2749   1.2828   1.2985   1.3029   1.3250   1.3420   1.3557
  1.3628   1.3859   1.4007   1.4129   1.4262   1.4528   1.4673   1.4761
  1.4836   1.5025   1.5177   1.5341   1.5538   1.5626   1.5709   1.5972
  1.6259   1.6405   1.6579   1.6773   1.6916   1.7027   1.7269   1.7347
  1.7593   1.7839   1.7950   1.8373   1.8484   1.8840   1.9333   1.9365
  1.9604   1.9678   1.9876   2.0093   2.0515   2.0716   2.0966   2.1236
  2.1557   2.1705   2.1966   2.2251   2.2458   2.2662   2.3129   2.3370
  2.3506   2.3578   2.3931   2.4030   2.4546   2.4619   2.4873   2.4988
  2.5286   2.5512   2.5867   2.6597   2.7016   2.7102   2.7984   2.8049
  2.8185   2.8478   2.8768   2.8986   2.9428   3.0154   3.0713   3.1134
  3.1515   3.1766   3.2173   3.2444   3.2641   3.3008   3.3253   3.3607
  3.3790   3.4169   3.4219   3.4523   3.5076   3.5352   3.5589   3.5999
  3.6242   3.6572   3.6599   3.6868   3.7040   3.7270   3.7400   3.7607
  3.8081   3.8258   3.8310   3.8438   3.8655   3.8804   3.8996   3.9269
  3.9396   3.9584   3.9822   4.0141   4.0382   4.0685   4.1141   4.1553
  4.1672   4.1870   4.2062   4.2409   4.2579   4.3021   4.3114   4.3559
  4.3682   4.3778   4.4115   4.4334   4.4642   4.4841   4.5570   4.5747
  4.5826   4.6149   4.6567   4.7132   4.7176   4.7832   4.8446   4.8771
  4.8899   4.9678   5.0222   5.0386   5.0493   5.0789   5.0898   5.1143
  5.1977   5.2044   5.2103   5.2232   5.2298   5.2507   5.2589   5.2743
  5.2922   5.2963   5.3121   5.3195   5.3268   5.3437   5.3580   5.3737
  5.3956   5.4000   5.4219   5.4404   5.4609   5.4926   5.5080   5.5177
  5.5399   5.5671   5.5872   5.6022   5.6197   5.6326   5.6551   5.6727
  5.7046   5.7102   5.7305   5.7727   5.7989   5.8254   5.8550   5.9228
  5.9837   6.0304   6.0655   6.0883   6.1453   6.1741   6.2504   6.4540
  6.4889   6.4980   6.5846   6.5890   6.7552   6.8189   6.8550   6.8750
  6.9135   6.9635   7.0171   7.0422   7.0857   7.0921   7.0996   7.1179
  7.1470   7.2011   7.2355   7.2657   7.2724   7.2907   7.3030   7.3175
  7.3314   7.3716   7.4051   7.4160   7.4245   7.4288   7.4469   7.4915
  7.5036   7.5819   7.6025   7.6636   7.6915   7.7664   7.7805   7.8385
  7.8584   7.8683   7.9117   8.0111   8.0278   8.0684   8.2012  24.6356
 24.7920  24.8583  50.4273  50.4935  50.5297  50.5901  50.6217  50.6422
 50.6868
 
 Beta MOs
 -- Occupied --
-19.4640 -19.4106 -19.4072 -19.4017 -19.3633 -19.3516 -19.3498 -10.4741
-10.4533 -10.4102  -1.3286  -1.2840  -1.2161  -1.1873  -1.1415  -1.0460
 -0.9980  -0.8789  -0.8035  -0.7443  -0.6976  -0.6614  -0.6589  -0.6423
 -0.6218  -0.6091  -0.5820  -0.5751  -0.5573  -0.5454  -0.5323  -0.4914
 -0.4861  -0.4618  -0.4527  -0.4371  -0.4180  -0.4127  -0.4018  -0.3876
 -- Virtual --
 -0.0410   0.0275   0.0377   0.0443   0.0482   0.0660   0.0704   0.0790
  0.0939   0.0982   0.1192   0.1292   0.1310   0.1371   0.1399   0.1483
  0.1534   0.1561   0.1724   0.1767   0.1901   0.1994   0.2067   0.2171
  0.2275   0.2420   0.2503   0.2530   0.2552   0.2631   0.2705   0.2741
  0.2870   0.2926   0.2983   0.3029   0.3104   0.3196   0.3215   0.3302
  0.3386   0.3413   0.3504   0.3599   0.3661   0.3692   0.3750   0.3790
  0.3815   0.3916   0.3975   0.4037   0.4119   0.4181   0.4260   0.4336
  0.4439   0.4521   0.4585   0.4654   0.4725   0.4925   0.4950   0.5404
  0.5665   0.5798   0.5954   0.6142   0.6269   0.6466   0.6537   0.6606
  0.6768   0.6816   0.6929   0.7146   0.7410   0.7540   0.7578   0.7706
  0.7855   0.8075   0.8293   0.8560   0.8743   0.8963   0.9173   0.9388
  0.9551   0.9623   1.0031   1.0293   1.0479   1.0585   1.0689   1.0901
  1.0964   1.1184   1.1257   1.1317   1.1517   1.1571   1.1589   1.1789
  1.1859   1.1935   1.1987   1.2063   1.2152   1.2192   1.2325   1.2402
  1.2534   1.2656   1.2780   1.2840   1.3002   1.3066   1.3264   1.3452
  1.3594   1.3647   1.3878   1.4017   1.4152   1.4308   1.4559   1.4721
  1.4773   1.4849   1.5036   1.5193   1.5374   1.5575   1.5667   1.5736
  1.6001   1.6308   1.6459   1.6597   1.6804   1.6921   1.7181   1.7340
  1.7420   1.7629   1.7864   1.7989   1.8394   1.8553   1.8919   1.9368
  1.9396   1.9622   1.9699   1.9894   2.0098   2.0559   2.0730   2.1009
  2.1248   2.1629   2.1771   2.2053   2.2294   2.2471   2.2698   2.3224
  2.3426   2.3556   2.3613   2.3937   2.4038   2.4553   2.4641   2.4879
  2.5002   2.5317   2.5515   2.5876   2.6635   2.7023   2.7153   2.7990
  2.8061   2.8191   2.8480   2.8771   2.8996   2.9438   3.0159   3.0720
  3.1140   3.1520   3.1773   3.2178   3.2454   3.2645   3.3011   3.3263
  3.3609   3.3793   3.4173   3.4223   3.4529   3.5081   3.5358   3.5593
  3.5998   3.6242   3.6574   3.6596   3.6869   3.7040   3.7272   3.7413
  3.7615   3.8087   3.8259   3.8313   3.8442   3.8658   3.8808   3.9001
  3.9274   3.9398   3.9586   3.9822   4.0143   4.0382   4.0692   4.1144
  4.1555   4.1679   4.1874   4.2071   4.2414   4.2585   4.3024   4.3119
  4.3581   4.3686   4.3793   4.4132   4.4347   4.4651   4.4861   4.5585
  4.5772   4.6004   4.6217   4.6681   4.7171   4.7246   4.7918   4.8465
  4.8883   4.9085   4.9743   5.0296   5.0469   5.0539   5.1302   5.1438
  5.1685   5.2107   5.2171   5.2354   5.2426   5.2517   5.2574   5.2783
  5.2837   5.2959   5.3004   5.3192   5.3266   5.3356   5.3453   5.3636
  5.3805   5.4021   5.4067   5.4258   5.4451   5.4654   5.4932   5.5118
  5.5300   5.5406   5.5698   5.5908   5.6029   5.6209   5.6345   5.6576
  5.6730   5.7083   5.7151   5.7360   5.7753   5.8044   5.8273   5.8674
  5.9272   5.9845   6.0307   6.0663   6.0886   6.1456   6.1742   6.2507
  6.4953   6.5018   6.5052   6.5882   6.5990   6.7556   6.8232   6.8589
  6.9513   6.9771   7.0084   7.0291   7.0515   7.0865   7.0995   7.1210
  7.1365   7.1483   7.2173   7.2501   7.2724   7.2761   7.3011   7.3115
  7.3234   7.3377   7.3772   7.4081   7.4228   7.4356   7.4512   7.4683
  7.4954   7.5113   7.5827   7.6028   7.6637   7.6919   7.7701   7.7860
  7.8415   7.8600   7.8687   7.9118   8.0113   8.0395   8.0889   8.2022
 24.6355  24.7920  24.8584  50.4395  50.4944  50.5376  50.5913  50.6218
 50.6423  50.6870
 --------------------------------------------------------------
 
          Ground-State Mulliken Net Atomic Charges

     Atom                 Charge (a.u.)    Spin (a.u.)
  --------------------------------------------------------
      1 C                    -0.111679       0.004025
      2 O                    -0.414593       0.000247
      3 C                     0.180125      -0.002190
      4 O                    -0.379678       0.003457
      5 C                    -0.511507       0.005040
      6 O                     0.082275       0.318614
      7 O                    -0.217572       0.661296
      8 H                     0.299246       0.000191
      9 H                     0.341160      -0.000024
     10 H                     0.298802       0.008632
     11 H                     0.307360       0.000869
     12 O                    -0.448296       0.000462
     13 H                     0.351404       0.000065
     14 O                    -0.167745      -0.001646
     15 O                    -0.277888       0.001697
     16 H                     0.326440      -0.001371
     17 H                     0.342145       0.000636
  --------------------------------------------------------
  Sum of atomic charges =     0.000000
  Sum of spin   charges =     1.000000

 -----------------------------------------------------------------
                    Cartesian Multipole Moments
 -----------------------------------------------------------------
    Charge (ESU x 10^10)
                 0.0000
    Dipole Moment (Debye)
         X      -2.4102      Y       3.9980      Z      -0.6833
       Tot       4.7181
    Quadrupole Moments (Debye-Ang)
        XX     -72.1885     XY      15.3507     YY     -61.1853
        XZ      -0.4414     YZ      -7.8485     ZZ     -61.7428
    Octopole Moments (Debye-Ang^2)
       XXX    -685.9281    XXY      84.9645    XYY    -216.8523
       YYY      68.1503    XXZ     -17.9494    XYZ     -37.7194
       YYZ       7.2893    XZZ    -229.6851    YZZ      26.2106
       ZZZ       0.6866
    Hexadecapole Moments (Debye-Ang^3)
      XXXX   -5194.2382   XXXY     409.7814   XXYY    -960.5190
      XYYY     130.3278   YYYY    -527.4850   XXXZ    -237.2677
      XXYZ    -215.1471   XYYZ     -14.6319   YYYZ    -142.0263
      XXZZ   -1030.0702   XYZZ      41.4696   YYZZ    -205.3206
      XZZZ     -61.3611   YZZZ    -140.5805   ZZZZ    -539.7712
 -----------------------------------------------------------------
 Calculating analytic gradient of the SCF energy
 Gradient of CDS energy
            1           2           3           4           5           6
    1  -0.0020350   0.0023455  -0.0000831   0.0000810  -0.0003595   0.0000953
    2  -0.0028673  -0.0007675  -0.0025740   0.0026443   0.0008241  -0.0002080
    3  -0.0000694  -0.0008575   0.0030484  -0.0032910   0.0001448   0.0000738
            7           8           9          10          11          12
    1   0.0000422   0.0002235  -0.0005022  -0.0000584   0.0002234  -0.0001267
    2   0.0001494   0.0000856   0.0001097  -0.0003005  -0.0001004   0.0036395
    3  -0.0000611  -0.0000620  -0.0000510   0.0001862  -0.0002568   0.0007993
           13          14          15          16          17
    1  -0.0000627  -0.0000623  -0.0001903   0.0000760   0.0003932
    2  -0.0004796  -0.0000139  -0.0001860  -0.0002117   0.0002564
    3   0.0000968  -0.0000309   0.0001301   0.0003890  -0.0001886
 Gradient of SCF Energy
            1           2           3           4           5           6
    1  -0.0018787   0.0092644   0.0000349  -0.0024435   0.0130706  -0.0012192
    2  -0.0026475  -0.0021851   0.0059838  -0.0044807  -0.0143766   0.0006432
    3   0.0086008   0.0136475  -0.0035843  -0.0053095   0.0073602   0.0004754
            7           8           9          10          11          12
    1   0.0010518  -0.0025131  -0.0097633  -0.0075021  -0.0023678   0.0043277
    2   0.0010120   0.0065024   0.0020569   0.0021140   0.0089669  -0.0017396
    3   0.0005137  -0.0052898  -0.0120852   0.0067278  -0.0121025  -0.0052944
           13          14          15          16          17
    1  -0.0022407   0.0002202  -0.0071574   0.0021141   0.0070018
    2  -0.0013699  -0.0048083  -0.0124025   0.0032724   0.0134586
    3   0.0026611   0.0005510  -0.0073968   0.0059845   0.0045403
 Max gradient component =       1.438E-02
 RMS gradient           =       6.583E-03
 Computing fast CPCM-SWIG gradient
 Updating gradient with PCM contributions...
 -- total gradient after adding PCM contribution --
---------------------------------------------------
  Atom         X              Y              Z     
---------------------------------------------------
   1      -0.001065      -0.000003       0.000039
   2       0.000482      -0.000080      -0.000126
   3       0.000163      -0.000022       0.000139
   4       0.000034       0.000050      -0.000022
   5      -0.000009       0.000026       0.000026
   6       0.000010      -0.000019      -0.000040
   7      -0.000003      -0.000001      -0.000009
   8       0.000097       0.000022      -0.000023
   9       0.000069      -0.000021      -0.000023
  10       0.000004      -0.000012      -0.000007
  11       0.000010      -0.000005      -0.000002
  12       0.000096       0.000030       0.000021
  13       0.000013      -0.000002      -0.000002
  14       0.000095       0.000038      -0.000021
  15       0.000005      -0.000003       0.000056
  16      -0.000000      -0.000002       0.000014
  17      -0.000001       0.000003      -0.000020
---------------------------------------------------
 Number of fixed atoms: 0
 Gradient time:  CPU 339.62 s  wall 27.48 s
 ----------------------------------------------------------------
             Standard Nuclear Orientation (Angstroms)
    I     Atom           X                Y                Z
 ----------------------------------------------------------------
    1      C       2.4200687798    -0.9780920545    -0.9215201904
    2      O       1.1894954774    -0.6310284867    -0.3364635883
    3      C       3.5099240149    -0.5590161174     0.0731646840
    4      O       3.4691958427    -1.4388063794     1.1486151357
    5      C       3.3288892639     0.9015954964     0.4763969840
    6      O       4.5315944667     1.4205087648     1.0903126444
    7      O       4.7949987196     0.8225013447     2.2203492668
    8      H       2.5653014436    -0.4572620950    -1.8647448283
    9      H       0.5134035831    -0.6553808589    -1.0232298307
   10      H       2.5131001386     1.0010085408     1.1855068429
   11      H       3.1676008269     1.5391252468    -0.3870791947
   12      O       2.5035408365    -2.3493948663    -1.2096186970
   13      H       2.4917489919    -2.8365485078    -0.3745673766
   14      O       4.8053734977    -0.7846505609    -0.5022874195
   15      O       4.9755281516     0.0808429593    -1.6235385318
   16      H       3.9212700478    -1.0301944876     1.9016960222
   17      H       5.5669974174     0.7618857620    -1.2691441228
 ----------------------------------------------------------------
 Nuclear Repulsion Energy =         634.52249895 hartrees
 There are       41 alpha and       40 beta electrons
 Discretize the solute cavity surface with Lebedev spheres
	Using 110 Lebedev grid points for each H atom
	Using 194 Lebedev grid points for other atoms
	Atomic van der Waals radii will be scaled by 1.20
 Remove points where switching function is < 1.0e-08
 Keep 1363 surface tesserae and discard 1347 interior tesserae
 Molecular Surface Area = 152.684 Angst**2
 Requested basis set is 6-311++G(2df,2p)
 There are 122 shells and 410 basis functions
 A cutoff of  1.0D-12 yielded   6744 shell pairs
 There are     75775 function pairs (     94823 Cartesian)
 Smallest overlap matrix eigenvalue = 1.08E-05
 Guess MOs from SCF MO coefficient file

 -----------------------------------------------------------------------
  General SCF calculation program by
  Eric Jon Sundstrom, Paul Horn, Yuezhi Mao, Dmitri Zuev, Alec White,
  David Stuck, Shaama M.S., Shane Yost, Joonho Lee, David Small,
  Daniel Levine, Susi Lehtola, Hugh Burton, Evgeny Epifanovsky,
  Bang C. Huynh
 -----------------------------------------------------------------------
 Exchange:     0.1500 Hartree-Fock + 1.0000 wB97M-V + LR-HF
 Correlation:  1.0000 wB97M-V
 Using SG-2 standard quadrature grid
 Nonlocal Correlation:  VV10 with C = 0.0100 and b = 6.00 and scale = 1.00000
 Grid used for NLC:  SG-1 standard quadrature
 
 Citation of the SMD model:
 Marenich, A.V.; Cramer, C.J.; Truhlar, D.G.
 J. Phys. Chem. B 2009, 113, 6378-6396.
 iSolventCode=           1
 Solvent: water                                                           
 
 vradii
            1           2           3           4           5           6
    1   1.8500000   1.5200000   1.8500000   1.5200000   1.8500000   1.5200000
            7           8           9          10          11          12
    1   1.5200000   1.2000000   1.2000000   1.2000000   1.2000000   1.5200000
           13          14          15          16          17
    1   1.2000000   1.5200000   1.5200000   1.2000000   1.2000000
 -------------------------------------------------------
 OpenMP BLAS3 based DFT computing Module                
 Release: version 1.0, May 2013, Q-Chem Inc. Pittsburgh 
 -------------------------------------------------------
 A unrestricted SCF calculation will be
 performed using Roothaan-Hall, DIIS, GDM
 SCF converges when RMS gradient is below 1.0e-07
 ---------------------------------------
  Cycle       Energy         DIIS error
 ---------------------------------------
    1    -644.8973143144      2.25e-04  Roothaan Step
 ---------------------------------------
  Cycle       Energy         DIIS error
 ---------------------------------------
    1    -644.9332890287      2.50e-04  
    2    -644.9382944679      2.05e-04  Done DIIS. Switching to GDM
 ---------------------------------------
  Cycle       Energy        RMS Gradient
 ---------------------------------------
    1    -644.9382944679      1.55e-02   Normal BFGS step
    2    -644.9376293924      2.39e-02  Line search: overstep
    3    -644.9406014806      3.11e-03   Normal BFGS step
    4    -644.9407468697      1.30e-03   Normal BFGS step
    5    -644.9407925614      8.15e-04   Normal BFGS step
    6    -644.9407977323      1.54e-04   Normal BFGS step
    7    -644.9407988079      1.95e-04   Normal BFGS step
    8    -644.9407990533      9.73e-05   Normal BFGS step
    9    -644.9407991443      6.43e-05   Normal BFGS step
   10    -644.9407991825      2.19e-05   Normal BFGS step
   11    -644.9407991870      1.71e-05   Normal BFGS step
   12    -644.9407991884      1.51e-05   Normal BFGS step
   13    -644.9407991891      1.33e-05   Normal BFGS step
   14    -644.9407991900      8.50e-06   Normal BFGS step
   15    -644.9407991904      3.58e-06   Normal BFGS step
   16    -644.9407991906      1.17e-06   Normal BFGS step
   17    -644.9407991906      3.21e-07   Normal BFGS step
   18    -644.9407991906      1.21e-07   Normal BFGS step
   19    -644.9407991906      6.03e-08  Convergence criterion met
 ---------------------------------------
 SCF time:   CPU 2324.81s  wall 161.00s 
<S^2> =          0.753945729
(3)  G-ENP(liq) elect-nuc-pol free energy of system     -644.940799191 a.u.
(4)  G-CDS(liq) cavity-dispersion-solvent structure 
     free energy                                                2.7670 kcal/mol
(6)  G-S(liq) free energy of system                     -644.936389759 a.u.
 SCF   energy in the final basis set =     -644.9363897590
 Total energy in the final basis set =     -644.9363897590
 
 --------------------------------------------------------------
 
                    Orbital Energies (a.u.)
 --------------------------------------------------------------
 
 Alpha MOs
 -- Occupied --
-19.4746 -19.4257 -19.4106 -19.4018 -19.3634 -19.3516 -19.3497 -10.4745
-10.4533 -10.4098  -1.3544  -1.2846  -1.2160  -1.1875  -1.1412  -1.0477
 -1.0273  -0.8847  -0.8109  -0.7458  -0.7003  -0.6732  -0.6615  -0.6516
 -0.6353  -0.6227  -0.5871  -0.5814  -0.5746  -0.5600  -0.5332  -0.5096
 -0.4902  -0.4667  -0.4547  -0.4380  -0.4212  -0.4180  -0.4136  -0.4054
 -0.3858
 -- Virtual --
  0.0274   0.0377   0.0441   0.0480   0.0657   0.0702   0.0784   0.0936
  0.0973   0.1186   0.1278   0.1304   0.1366   0.1397   0.1475   0.1512
  0.1555   0.1712   0.1763   0.1890   0.1957   0.2053   0.2155   0.2267
  0.2416   0.2485   0.2513   0.2546   0.2623   0.2688   0.2701   0.2853
  0.2887   0.2969   0.3023   0.3074   0.3188   0.3213   0.3287   0.3373
  0.3403   0.3486   0.3593   0.3646   0.3685   0.3744   0.3771   0.3809
  0.3909   0.3964   0.4027   0.4116   0.4163   0.4254   0.4334   0.4432
  0.4518   0.4578   0.4641   0.4719   0.4922   0.4947   0.5395   0.5662
  0.5792   0.5945   0.6140   0.6263   0.6462   0.6534   0.6606   0.6765
  0.6814   0.6925   0.7144   0.7402   0.7536   0.7576   0.7702   0.7839
  0.8070   0.8291   0.8548   0.8740   0.8957   0.9165   0.9385   0.9545
  0.9614   1.0021   1.0268   1.0470   1.0574   1.0671   1.0870   1.0950
  1.1167   1.1210   1.1293   1.1413   1.1525   1.1566   1.1760   1.1825
  1.1900   1.1964   1.2007   1.2034   1.2140   1.2294   1.2370   1.2520
  1.2609   1.2749   1.2827   1.2985   1.3029   1.3250   1.3421   1.3558
  1.3628   1.3860   1.4007   1.4129   1.4262   1.4528   1.4671   1.4761
  1.4836   1.5025   1.5177   1.5342   1.5539   1.5627   1.5709   1.5972
  1.6260   1.6405   1.6580   1.6774   1.6917   1.7027   1.7269   1.7347
  1.7593   1.7841   1.7949   1.8374   1.8484   1.8839   1.9333   1.9366
  1.9604   1.9678   1.9875   2.0094   2.0514   2.0716   2.0965   2.1236
  2.1556   2.1705   2.1965   2.2249   2.2456   2.2660   2.3129   2.3371
  2.3506   2.3577   2.3927   2.4028   2.4546   2.4618   2.4871   2.4987
  2.5285   2.5511   2.5867   2.6597   2.7016   2.7101   2.7983   2.8049
  2.8184   2.8477   2.8766   2.8984   2.9428   3.0158   3.0715   3.1132
  3.1513   3.1767   3.2177   3.2444   3.2640   3.3007   3.3252   3.3600
  3.3788   3.4173   3.4219   3.4520   3.5076   3.5352   3.5588   3.5997
  3.6242   3.6570   3.6600   3.6868   3.7043   3.7269   3.7399   3.7606
  3.8083   3.8259   3.8311   3.8439   3.8656   3.8805   3.8996   3.9269
  3.9395   3.9584   3.9821   4.0145   4.0385   4.0688   4.1140   4.1556
  4.1673   4.1872   4.2063   4.2412   4.2582   4.3024   4.3117   4.3562
  4.3684   4.3778   4.4115   4.4336   4.4647   4.4846   4.5579   4.5750
  4.5828   4.6150   4.6569   4.7133   4.7177   4.7833   4.8447   4.8771
  4.8899   4.9681   5.0223   5.0387   5.0494   5.0789   5.0898   5.1143
  5.1977   5.2044   5.2102   5.2232   5.2299   5.2505   5.2589   5.2742
  5.2922   5.2962   5.3123   5.3194   5.3268   5.3437   5.3580   5.3737
  5.3956   5.4001   5.4221   5.4406   5.4609   5.4924   5.5081   5.5177
  5.5396   5.5670   5.5876   5.6023   5.6197   5.6325   5.6551   5.6725
  5.7047   5.7100   5.7305   5.7726   5.7989   5.8251   5.8550   5.9227
  5.9833   6.0303   6.0651   6.0875   6.1451   6.1706   6.2503   6.4540
  6.4889   6.4982   6.5843   6.5888   6.7530   6.8189   6.8550   6.8750
  6.9135   6.9635   7.0171   7.0423   7.0856   7.0921   7.0996   7.1179
  7.1470   7.2011   7.2355   7.2656   7.2723   7.2906   7.3030   7.3174
  7.3313   7.3716   7.4049   7.4159   7.4245   7.4288   7.4468   7.4914
  7.5036   7.5818   7.6025   7.6633   7.6914   7.7663   7.7805   7.8386
  7.8584   7.8683   7.9115   8.0111   8.0278   8.0684   8.2012  24.6354
 24.7914  24.8589  50.4273  50.4935  50.5297  50.5900  50.6215  50.6421
 50.6866
 
 Beta MOs
 -- Occupied --
-19.4640 -19.4106 -19.4072 -19.4017 -19.3633 -19.3516 -19.3497 -10.4741
-10.4533 -10.4102  -1.3286  -1.2840  -1.2159  -1.1872  -1.1412  -1.0461
 -0.9980  -0.8791  -0.8035  -0.7444  -0.6976  -0.6614  -0.6589  -0.6423
 -0.6218  -0.6091  -0.5820  -0.5751  -0.5573  -0.5455  -0.5322  -0.4914
 -0.4861  -0.4618  -0.4528  -0.4372  -0.4179  -0.4127  -0.4018  -0.3877
 -- Virtual --
 -0.0410   0.0275   0.0377   0.0443   0.0482   0.0660   0.0703   0.0790
  0.0939   0.0982   0.1192   0.1292   0.1310   0.1371   0.1399   0.1484
  0.1534   0.1562   0.1724   0.1767   0.1901   0.1994   0.2066   0.2170
  0.2275   0.2420   0.2503   0.2530   0.2552   0.2631   0.2705   0.2741
  0.2870   0.2924   0.2982   0.3029   0.3104   0.3196   0.3216   0.3302
  0.3386   0.3413   0.3503   0.3600   0.3661   0.3691   0.3750   0.3790
  0.3815   0.3916   0.3975   0.4037   0.4119   0.4181   0.4259   0.4336
  0.4440   0.4521   0.4585   0.4653   0.4725   0.4924   0.4950   0.5404
  0.5665   0.5799   0.5955   0.6142   0.6269   0.6465   0.6537   0.6606
  0.6768   0.6816   0.6929   0.7146   0.7411   0.7540   0.7578   0.7706
  0.7855   0.8075   0.8293   0.8560   0.8744   0.8963   0.9173   0.9388
  0.9550   0.9622   1.0031   1.0293   1.0479   1.0585   1.0689   1.0902
  1.0965   1.1184   1.1257   1.1317   1.1517   1.1571   1.1589   1.1789
  1.1859   1.1934   1.1987   1.2063   1.2152   1.2192   1.2325   1.2403
  1.2533   1.2655   1.2780   1.2839   1.3002   1.3065   1.3265   1.3453
  1.3594   1.3647   1.3879   1.4016   1.4152   1.4308   1.4559   1.4720
  1.4773   1.4849   1.5037   1.5194   1.5375   1.5576   1.5668   1.5736
  1.6002   1.6309   1.6459   1.6598   1.6805   1.6922   1.7181   1.7340
  1.7420   1.7629   1.7866   1.7988   1.8395   1.8553   1.8918   1.9369
  1.9396   1.9622   1.9700   1.9893   2.0099   2.0558   2.0729   2.1008
  2.1248   2.1629   2.1772   2.2051   2.2292   2.2469   2.2697   2.3223
  2.3426   2.3555   2.3614   2.3933   2.4037   2.4552   2.4640   2.4877
  2.5002   2.5317   2.5514   2.5875   2.6635   2.7024   2.7152   2.7989
  2.8062   2.8191   2.8479   2.8770   2.8994   2.9438   3.0163   3.0723
  3.1138   3.1518   3.1774   3.2182   3.2454   3.2645   3.3010   3.3261
  3.3603   3.3790   3.4177   3.4222   3.4526   3.5081   3.5357   3.5592
  3.5996   3.6242   3.6572   3.6597   3.6869   3.7043   3.7271   3.7411
  3.7614   3.8089   3.8260   3.8313   3.8443   3.8659   3.8808   3.9001
  3.9274   3.9398   3.9587   3.9822   4.0147   4.0385   4.0696   4.1143
  4.1558   4.1680   4.1876   4.2073   4.2416   4.2587   4.3027   4.3122
  4.3584   4.3688   4.3793   4.4132   4.4349   4.4656   4.4865   4.5593
  4.5775   4.6005   4.6218   4.6682   4.7172   4.7247   4.7919   4.8465
  4.8884   4.9085   4.9745   5.0296   5.0469   5.0539   5.1302   5.1438
  5.1685   5.2106   5.2171   5.2355   5.2426   5.2516   5.2573   5.2782
  5.2837   5.2959   5.3003   5.3193   5.3265   5.3357   5.3454   5.3636
  5.3805   5.4022   5.4067   5.4260   5.4453   5.4653   5.4930   5.5119
  5.5299   5.5404   5.5697   5.5911   5.6030   5.6209   5.6345   5.6577
[...]
 Frequency:       742.51                 817.91                 920.12
 Force Cnst:      1.4628                 1.6969                 1.7638
 Red. Mass:       4.5033                 4.3053                 3.5360
 IR Active:          YES                    YES                    YES
 IR Intens:       31.859                 82.071                 47.698
 Raman Active:       YES                    YES                    YES
               X      Y      Z        X      Y      Z        X      Y      Z
 C          0.069 -0.072  0.278    0.098 -0.033  0.242   -0.024  0.010 -0.057
 O         -0.084  0.047 -0.001    0.012 -0.000 -0.011   -0.003  0.002  0.000
 C          0.108  0.114  0.038    0.028  0.023 -0.045    0.008  0.080  0.097
 O         -0.021  0.044 -0.163   -0.020  0.111 -0.152    0.009  0.084 -0.068
 C         -0.150  0.207 -0.015    0.170 -0.230 -0.050    0.210 -0.034  0.285
 O         -0.056 -0.115 -0.019   -0.012  0.035  0.007   -0.155 -0.083 -0.051
 O          0.052  0.017  0.026   -0.016 -0.003 -0.011   -0.035  0.035 -0.092
 H          0.119 -0.054  0.300    0.214  0.008  0.283   -0.067 -0.053 -0.097
 H          0.197 -0.115 -0.276    0.281 -0.102 -0.273   -0.099  0.049  0.095
 H         -0.212  0.151 -0.071    0.196 -0.478  0.007   -0.086  0.436 -0.117
 H         -0.023  0.289  0.017   -0.054 -0.203  0.020    0.651 -0.335 -0.022
 O         -0.006 -0.036 -0.048   -0.024  0.021 -0.009   -0.001 -0.058 -0.020
 H         -0.014 -0.394 -0.261    0.024 -0.280 -0.187   -0.002 -0.003  0.015
 O          0.148 -0.113 -0.044   -0.207  0.132  0.032    0.023 -0.022 -0.018
 O         -0.042 -0.009  0.037    0.009 -0.050  0.045   -0.006 -0.003  0.013
 H         -0.210 -0.224  0.083   -0.086  0.056 -0.090   -0.012 -0.070  0.021
 H         -0.042  0.007  0.002   -0.020 -0.029  0.054   -0.013  0.009 -0.004
 TransDip   0.037 -0.102  0.145    0.228 -0.179  0.011    0.068  0.049  0.205

 Mode:                22                     23                     24
 Frequency:       980.06                1022.61                1056.51
 Force Cnst:      1.7871                 5.0105                 1.8895
 Red. Mass:       3.1579                 8.1322                 2.8731
 IR Active:          YES                    YES                    YES
 IR Intens:       57.424                  6.461                 47.453
 Raman Active:       YES                    YES                    YES
               X      Y      Z        X      Y      Z        X      Y      Z
 C         -0.010  0.014 -0.024    0.008 -0.024  0.073   -0.003  0.032 -0.078
 O         -0.016  0.003 -0.001    0.042 -0.010 -0.006   -0.036  0.008  0.004
 C          0.147  0.088 -0.064   -0.206 -0.063 -0.050    0.155  0.189  0.155
 O         -0.006 -0.106  0.126    0.037 -0.004 -0.062    0.022  0.052 -0.026
 C          0.183  0.144 -0.073    0.151  0.063 -0.024   -0.069 -0.092 -0.062
 O         -0.146 -0.107 -0.015   -0.091 -0.038  0.004    0.054  0.019 -0.007
 O          0.018  0.026 -0.018    0.006  0.019 -0.016    0.006 -0.022  0.030
 H         -0.130 -0.053 -0.082    0.149  0.032  0.128   -0.074 -0.035 -0.127
 H         -0.025  0.009  0.007    0.134 -0.043 -0.094   -0.202  0.076  0.166
 H          0.188 -0.477  0.029    0.252 -0.105  0.126   -0.121 -0.286 -0.105
 H         -0.090  0.579  0.298   -0.017  0.339  0.214   -0.196 -0.312 -0.197
 O          0.000 -0.029 -0.013   -0.003  0.048  0.021   -0.001 -0.078 -0.033
 H         -0.015  0.015  0.013    0.024 -0.114 -0.077   -0.019  0.110  0.082
 O         -0.088  0.058 -0.003   -0.031 -0.282  0.378   -0.072 -0.072  0.087
 O          0.007 -0.019  0.013    0.037  0.252 -0.326    0.012  0.057 -0.082
 H         -0.048 -0.236  0.220    0.057  0.304 -0.231   -0.109 -0.550  0.358
 H         -0.022 -0.001  0.033   -0.005  0.100  0.063   -0.023  0.012  0.071
 TransDip   0.184  0.132 -0.087   -0.062 -0.013  0.051   -0.039 -0.032  0.215

 Mode:                25                     26                     27
 Frequency:      1104.48                1174.10                1223.40
 Force Cnst:      2.2201                 1.6754                 1.1860
 Red. Mass:       3.0889                 2.0628                 1.3449
 IR Active:          YES                    YES                    YES
 IR Intens:      250.205                158.868                 47.486
 Raman Active:       YES                    YES                    YES
               X      Y      Z        X      Y      Z        X      Y      Z
 C          0.021  0.008  0.027   -0.124 -0.078  0.033   -0.017  0.059  0.002
 O         -0.028  0.012  0.015    0.114 -0.029 -0.070    0.023  0.016  0.033
 C          0.255 -0.034 -0.209   -0.029  0.105  0.005   -0.064  0.064  0.017
 O         -0.030 -0.048  0.063    0.005 -0.019  0.027    0.004 -0.019  0.016
 C         -0.112  0.001  0.135    0.004 -0.031 -0.000    0.028 -0.009 -0.017
 O          0.058  0.019 -0.007    0.007  0.003 -0.002   -0.026  0.013 -0.035
 O         -0.019  0.003 -0.024   -0.001 -0.003  0.002    0.015 -0.022  0.048
 H         -0.368 -0.117 -0.102   -0.433 -0.473 -0.235   -0.517  0.077 -0.061
 H          0.269 -0.106 -0.278   -0.023  0.033  0.072    0.544 -0.184 -0.483
 H         -0.346  0.279 -0.179   -0.034 -0.074 -0.039    0.113  0.065  0.069
 H          0.374 -0.143 -0.070   -0.032 -0.098 -0.042   -0.186 -0.177 -0.102
 O          0.001  0.012  0.003   -0.008  0.143  0.053    0.002 -0.061 -0.024
 H         -0.019 -0.091 -0.060    0.025 -0.529 -0.358   -0.025  0.137  0.097
 O         -0.110 -0.010  0.079    0.030 -0.014 -0.010    0.024 -0.010 -0.012
 O          0.007  0.030 -0.051   -0.003 -0.001  0.008   -0.001 -0.001  0.007
 H          0.055  0.233 -0.133   -0.010 -0.104  0.077    0.030  0.049 -0.032
 H         -0.014 -0.042  0.137   -0.002  0.017 -0.031   -0.001  0.021 -0.039
 TransDip   0.344  0.055 -0.368   -0.292 -0.278 -0.027    0.047  0.214 -0.030

 Mode:                28                     29                     30
 Frequency:      1239.60                1266.04                1274.92
 Force Cnst:      2.3195                 2.2442                 2.4550
 Red. Mass:       2.5620                 2.3764                 2.5635
 IR Active:          YES                    YES                    YES
 IR Intens:       27.999                128.895                352.106
 Raman Active:       YES                    YES                    YES
               X      Y      Z        X      Y      Z        X      Y      Z
 C          0.027 -0.026 -0.017    0.183  0.040 -0.070   -0.135  0.171  0.123
 O         -0.027 -0.005 -0.010   -0.115  0.012  0.072    0.101 -0.033 -0.089
 C          0.098 -0.075 -0.006   -0.084  0.178 -0.025   -0.006  0.059 -0.045
 O         -0.013  0.011 -0.017   -0.015 -0.089  0.041   -0.016 -0.048  0.015
 C          0.050  0.074  0.002    0.020 -0.032  0.014    0.005  0.013  0.044
 O         -0.100  0.050 -0.158    0.011  0.012 -0.021    0.008  0.041 -0.085
 O          0.055 -0.087  0.181    0.001 -0.008  0.016    0.011 -0.036  0.065
 H          0.133 -0.137 -0.064    0.348 -0.288 -0.232    0.097  0.397  0.282
 H         -0.234  0.075  0.195   -0.050  0.025  0.001   -0.288  0.085  0.304
 H          0.301  0.438  0.235   -0.155 -0.250 -0.158   -0.326 -0.331 -0.282
 H         -0.416 -0.363 -0.247   -0.008 -0.125 -0.047    0.065 -0.031 -0.003
 O         -0.001  0.040  0.017   -0.014 -0.010  0.018    0.004 -0.122 -0.010
 H          0.013 -0.128 -0.086    0.027 -0.385 -0.211    0.016 -0.100  0.004
 O         -0.035  0.014  0.009    0.031 -0.022 -0.013    0.020 -0.007  0.003
 O          0.003  0.000 -0.008   -0.006 -0.001  0.012   -0.002  0.000  0.006
 H          0.015  0.113 -0.086    0.109  0.439 -0.297    0.054  0.298 -0.202
 H         -0.008 -0.021  0.054   -0.002  0.047 -0.087    0.002  0.030 -0.056
 TransDip   0.129 -0.110  0.001    0.223  0.146 -0.247   -0.317  0.489  0.149

 Mode:                31                     32                     33
 Frequency:      1298.95                1336.26                1365.85
 Force Cnst:      1.9690                 2.3461                 1.7143
 Red. Mass:       1.9807                 2.2301                 1.5596
 IR Active:          YES                    YES                    YES
 IR Intens:       98.829                 87.568                  9.480
 Raman Active:       YES                    YES                    YES
               X      Y      Z        X      Y      Z        X      Y      Z
 C         -0.010  0.151  0.020   -0.026 -0.153  0.076   -0.005  0.082 -0.015
 O          0.013 -0.016 -0.027    0.015  0.004 -0.025   -0.006 -0.005  0.017
 C          0.065  0.011  0.028   -0.010  0.196 -0.146   -0.044  0.038 -0.117
 O         -0.016 -0.022 -0.007   -0.006 -0.055  0.054    0.024  0.018  0.039
 C         -0.021 -0.014 -0.070    0.006 -0.051 -0.000   -0.022 -0.112 -0.013
 O         -0.004 -0.073  0.128   -0.008 -0.017  0.038   -0.011  0.040 -0.038
 O         -0.011  0.057 -0.089   -0.002  0.012 -0.020    0.002 -0.023  0.030
 H         -0.079  0.030 -0.061    0.247  0.110  0.268    0.255  0.099  0.023
 H         -0.145  0.040  0.131   -0.134  0.046  0.125    0.063 -0.025 -0.054
 H          0.432  0.417  0.381    0.210  0.312  0.171    0.132  0.464  0.078
 H         -0.234 -0.181 -0.152   -0.135 -0.291 -0.152    0.146  0.308  0.260
 O         -0.002 -0.070  0.015   -0.002  0.033 -0.046    0.000 -0.032  0.023
 H          0.022 -0.355 -0.160   -0.032  0.569  0.284    0.015 -0.306 -0.145
 O         -0.009 -0.000  0.001    0.023 -0.026  0.003    0.016 -0.011  0.004
 O          0.001 -0.000 -0.003   -0.007  0.001  0.011   -0.005  0.001  0.004
 H          0.054  0.259 -0.188    0.014  0.047 -0.015   -0.078 -0.461  0.337
 H         -0.007 -0.006  0.023   -0.006  0.050 -0.080    0.002  0.003 -0.012
 TransDip  -0.042  0.295 -0.113    0.010  0.263 -0.143   -0.046 -0.075 -0.045

 Mode:                34                     35                     36
 Frequency:      1410.20                1422.32                1440.35
 Force Cnst:      1.7373                 1.3440                 1.5675
 Red. Mass:       1.4827                 1.1276                 1.2824
 IR Active:          YES                    YES                    YES
 IR Intens:       45.605                 91.635                 88.262
 Raman Active:       YES                    YES                    YES
               X      Y      Z        X      Y      Z        X      Y      Z
 C          0.049 -0.034  0.032   -0.001 -0.002  0.002    0.100 -0.077 -0.057
 O         -0.003  0.003 -0.027    0.001  0.000  0.000   -0.018  0.014 -0.020
 C          0.040  0.045  0.105   -0.023  0.023 -0.006   -0.019  0.015 -0.020
 O         -0.017 -0.026 -0.021    0.000 -0.006  0.004    0.003 -0.000  0.007
 C         -0.026 -0.111 -0.046    0.011 -0.003  0.001    0.000  0.011  0.006
 O         -0.008  0.029 -0.042    0.001 -0.002  0.002   -0.002  0.000  0.001
 O          0.002 -0.015  0.028   -0.000  0.001 -0.002    0.000 -0.001 -0.000
 H         -0.367 -0.070 -0.038    0.021  0.019  0.016   -0.470  0.712  0.296
 H         -0.160  0.053  0.133    0.000 -0.000  0.000   -0.148  0.034  0.114
 H          0.075  0.289  0.014   -0.019 -0.006 -0.034    0.030 -0.069  0.048
 H          0.197  0.528  0.386   -0.049 -0.025 -0.005    0.055 -0.076 -0.067
 O         -0.005  0.004 -0.021   -0.000 -0.002 -0.000   -0.009  0.010  0.047
 H         -0.013  0.194  0.096   -0.001 -0.000  0.001   -0.013 -0.283 -0.131
 O         -0.004 -0.002 -0.005    0.044  0.040 -0.006   -0.001 -0.002 -0.001
 O          0.001 -0.000 -0.005   -0.028 -0.015 -0.049   -0.000  0.000  0.002
 H          0.060  0.326 -0.238    0.005  0.003 -0.004   -0.009 -0.056  0.041
 H         -0.006 -0.018  0.040   -0.078 -0.468  0.872    0.000  0.006 -0.011
 TransDip   0.001  0.191  0.102   -0.099 -0.157  0.244    0.119 -0.260 -0.095

 Mode:                37                     38                     39
 Frequency:      1448.02                1482.60                3131.72
 Force Cnst:      1.3608                 2.5058                 6.1564
 Red. Mass:       1.1015                 1.9349                 1.0654
 IR Active:          YES                    YES                    YES
 IR Intens:        8.472                 43.389                  7.052
 Raman Active:       YES                    YES                    YES
               X      Y      Z        X      Y      Z        X      Y      Z
 C         -0.006  0.011  0.009    0.166  0.088  0.131   -0.005 -0.020  0.037
 O          0.002 -0.002  0.001   -0.023 -0.005 -0.043   -0.000 -0.000 -0.001
 C         -0.006  0.012 -0.000   -0.098 -0.057 -0.096   -0.000 -0.001  0.000
 O          0.000 -0.005  0.002    0.019  0.023  0.018   -0.000 -0.000 -0.000
 C         -0.068  0.021 -0.019    0.012  0.022  0.019   -0.047  0.035 -0.003
 O         -0.016  0.018 -0.027    0.005  0.002  0.009   -0.001 -0.000 -0.001
 O          0.004 -0.012  0.020   -0.002  0.001 -0.006    0.000 -0.000  0.000
 H          0.036 -0.071 -0.031   -0.526 -0.399 -0.223    0.060  0.236 -0.429
 H          0.007 -0.001 -0.005   -0.350  0.107  0.289    0.000  0.001  0.002
 H          0.341 -0.338  0.489   -0.033 -0.041 -0.025    0.477 -0.056 -0.424
 H          0.680 -0.060 -0.212   -0.049 -0.117 -0.072    0.083 -0.340  0.467
 O          0.001 -0.003 -0.005   -0.007 -0.029 -0.040    0.000  0.000 -0.001
 H          0.001  0.028  0.013   -0.022  0.227  0.117   -0.000 -0.000  0.009
 O          0.006  0.000 -0.001    0.012 -0.001  0.003    0.000 -0.000 -0.000
 O         -0.002 -0.001 -0.002   -0.001  0.001  0.002   -0.000 -0.000 -0.000
 H         -0.001  0.002  0.002   -0.042 -0.284  0.205   -0.000  0.001  0.000
 H         -0.006 -0.023  0.046    0.004  0.002 -0.010   -0.000  0.001  0.000
 TransDip   0.058 -0.073 -0.005   -0.030  0.091  0.188   -0.064 -0.042  0.037

 Mode:                40                     41                     42
 Frequency:      3132.93                3199.77                3729.15
 Force Cnst:      6.2505                 6.7024                 8.7375
 Red. Mass:       1.0809                 1.1111                 1.0664
 IR Active:          YES                    YES                    YES
 IR Intens:       15.312                  0.139                249.977
 Raman Active:       YES                    YES                    YES
               X      Y      Z        X      Y      Z        X      Y      Z
 C          0.008  0.036 -0.064    0.000  0.001 -0.001    0.000 -0.000  0.000
 O          0.000 -0.000  0.001    0.000  0.000  0.000   -0.000 -0.000 -0.000
 C          0.001 -0.000 -0.000    0.001  0.000 -0.001   -0.000 -0.000 -0.002
 O          0.000 -0.000  0.000   -0.000 -0.000  0.000   -0.029 -0.025 -0.050
 C         -0.028  0.020 -0.000    0.032  0.031 -0.086    0.000 -0.000  0.000
 O         -0.000 -0.000 -0.000   -0.000  0.000 -0.000    0.000  0.000 -0.000
 O          0.000 -0.000  0.000    0.000 -0.000  0.001   -0.000  0.000 -0.000
 H         -0.104 -0.411  0.747   -0.001 -0.007  0.015    0.001  0.000  0.001
 H         -0.000 -0.004 -0.005   -0.000  0.001  0.000    0.002 -0.000  0.002
 H          0.288 -0.034 -0.254   -0.495  0.067  0.434   -0.001  0.001  0.000
 H          0.046 -0.191  0.260    0.111 -0.441  0.589   -0.001 -0.002 -0.001
 O         -0.000 -0.000  0.002   -0.000 -0.000  0.000    0.000  0.000 -0.000
 H          0.000  0.001 -0.016   -0.000 -0.000 -0.001   -0.001 -0.005  0.006
 O         -0.000  0.000 -0.000   -0.000  0.000  0.000   -0.000 -0.000  0.000
 O          0.001  0.000  0.000    0.000 -0.000 -0.000    0.002  0.002  0.001
 H         -0.000 -0.000  0.001    0.001 -0.002  0.000    0.460  0.398  0.790
 H          0.001 -0.001  0.000   -0.001  0.001  0.002   -0.028 -0.032 -0.016
 TransDip   0.032  0.067 -0.101   -0.007  0.003 -0.009    0.191  0.198  0.426

 Mode:                43                     44                     45
 Frequency:      3756.41                3781.31                3823.02
 Force Cnst:      8.8830                 8.9779                 9.1859
 Red. Mass:       1.0685                 1.0657                 1.0667
 IR Active:          YES                    YES                    YES
 IR Intens:      148.334                130.117                153.215
 Raman Active:       YES                    YES                    YES
               X      Y      Z        X      Y      Z        X      Y      Z
 C         -0.000 -0.000 -0.000    0.000  0.001 -0.002   -0.000  0.000 -0.002
 O         -0.000  0.000 -0.000   -0.001 -0.000 -0.001   -0.045 -0.001 -0.043
 C         -0.001  0.000  0.000    0.000 -0.000 -0.000    0.000 -0.000  0.000
 O         -0.001 -0.001 -0.002    0.000  0.000  0.000    0.000  0.000  0.000
 C          0.000 -0.000  0.000   -0.000  0.000 -0.000    0.000 -0.000 -0.000
 O         -0.000  0.000  0.000   -0.000 -0.000 -0.000    0.000  0.000  0.000
 O         -0.000  0.000 -0.000    0.000  0.000  0.000   -0.000  0.000  0.000
 H         -0.000 -0.000  0.001   -0.002 -0.009  0.013    0.004 -0.002  0.003
 H          0.002  0.000  0.001    0.017  0.001  0.017    0.707  0.019  0.703
 H         -0.000 -0.000 -0.000    0.000 -0.000 -0.000   -0.000  0.000  0.000
 H         -0.000  0.001 -0.001    0.000 -0.000  0.000    0.000 -0.000  0.000
 O          0.000 -0.000  0.000    0.001  0.033 -0.053    0.000 -0.001  0.001
 H         -0.000  0.003 -0.005   -0.012 -0.520  0.852   -0.000  0.013 -0.021
 O          0.001  0.001 -0.001   -0.000  0.000 -0.000    0.000  0.000  0.000
 O         -0.039 -0.045 -0.023   -0.000 -0.000 -0.000    0.000  0.000  0.000
 H          0.021  0.018  0.036   -0.003 -0.003 -0.007   -0.001 -0.001 -0.002
 H          0.610  0.695  0.373    0.004  0.004  0.002   -0.001 -0.001 -0.001
 TransDip   0.259  0.288  0.049    0.023 -0.242  0.273    0.334 -0.023  0.213

 STANDARD THERMODYNAMIC QUANTITIES AT   298.15 K  AND     1.00 ATM

   This Molecule has  0 Imaginary Frequencies
   Zero point vibrational energy:       77.696 kcal/mol

   Atom    1 Element C  Has Mass   12.00000
   Atom    2 Element O  Has Mass   15.99491
   Atom    3 Element C  Has Mass   12.00000
   Atom    4 Element O  Has Mass   15.99491
   Atom    5 Element C  Has Mass   12.00000
   Atom    6 Element O  Has Mass   15.99491
   Atom    7 Element O  Has Mass   15.99491
   Atom    8 Element H  Has Mass    1.00783
   Atom    9 Element H  Has Mass    1.00783
   Atom   10 Element H  Has Mass    1.00783
   Atom   11 Element H  Has Mass    1.00783
   Atom   12 Element O  Has Mass   15.99491
   Atom   13 Element H  Has Mass    1.00783
   Atom   14 Element O  Has Mass   15.99491
   Atom   15 Element O  Has Mass   15.99491
   Atom   16 Element H  Has Mass    1.00783
   Atom   17 Element H  Has Mass    1.00783
   Molecular Mass:   155.019180 amu
   Principal axes and moments of inertia in amu*Bohr^2:
                             1           2           3
    Eigenvalues --      919.21038  1734.56331  2002.22746
          X               0.60437    -0.68755    -0.40252
          Y               0.59775     0.05729     0.79963
          Z               0.52672     0.72388    -0.44561
   Rotational Symmetry Number is   1
   The Molecule is an Asymmetric Top
   Translational Enthalpy:        0.889 kcal/mol
   Rotational Enthalpy:           0.889 kcal/mol
   Vibrational Enthalpy:         82.855 kcal/mol
   gas constant (RT):             0.592 kcal/mol
   Translational Entropy:        41.025  cal/mol.K
   Rotational Entropy:           29.547  cal/mol.K
   Vibrational Entropy:          31.191  cal/mol.K

   Total Enthalpy:               85.225 kcal/mol
   Total Entropy:               101.763  cal/mol.K
 Total job time:  19430.07s(wall), 274681.27s(cpu) 
 Wed Jun 26 02:41:07 2024

        *************************************************************
        *                                                           *
        *  Thank you very much for using Q-Chem.  Have a nice day.  *
        *                                                           *
        *************************************************************


