
Running Job 1 of 1 Q_in.in
qchem Q_in.in_89554.0 /scratch/ari.fischer/qChem2185694.hpc-mn1/qchem89554/ 0
/usr/local/qchem-5.4.1/exe/qcprog.exe_s Q_in.in_89554.0 /scratch/ari.fischer/qChem2185694.hpc-mn1/qchem89554/
                  Welcome to Q-Chem
     A Quantum Leap Into The Future Of Chemistry


 Q-Chem 5.4, Q-Chem, Inc., Pleasanton, CA (2021)

 License issued to: Nanyang Technological University (site)

 E. Epifanovsky,  A. T. B. Gilbert,  Xintian Feng,  Joonho Lee,  Yuezhi Mao,  
 N. Mardirossian,  P. Pokhilko,  A. White,  M. Wormit,  M. P. Coons,  
 A. L. Dempwolff,  Zhengting Gan,  D. Hait,  P. R. Horn,  L. D. Jacobson,  
 I. Kaliman,  J. Kussmann,  A. W. Lange,  Ka Un Lao,  D. S. Levine,  Jie Liu,  
 S. C. McKenzie,  A. F. Morrison,  K. Nanda,  F. Plasser,  D. R. Rehn,  
 M. L. Vidal,  Zhi-Qiang You,  Ying Zhu,  B. Alam,  B. Albrecht,  
 A. Aldossary,  E. Alguire,  J. H. Andersen,  D. Barton,  K. Begam,  A. Behn,  
 Y. A. Bernard,  E. J. Berquist,  H. Burton,  A. Carreras,  K. Carter-Fenk,  
 R. Chakraborty,  A. D. Chien,  K. D. Closser,  V. Cofer-Shabica,  
 S. Dasgupta,  Jia Deng,  M. de Wergifosse,  M. Diedenhofen,  Hainam Do,  
 S. Ehlert,  Po-Tung Fang,  S. Fatehi,  Qingguo Feng,  T. Friedhoff,  
 J. Gayvert,  Qinghui Ge,  G. Gidofalvi,  M. Goldey,  J. Gomes,  
 C. Gonzalez-Espinoza,  S. Gulania,  A. Gunina,  M. W. D. Hanson-Heine,  
 P. H. P. Harbach,  A. W. Hauser,  M. F. Herbst,  M. Hernandez Vera,  
 M. Hodecker,  Z. C. Holden,  S. Houck,  Xunkun Huang,  Kerwin Hui,  
 B. C. Huynh,  M. Ivanov,  Hyunjun Ji,  Hanjie Jiang,  B. Kaduk,  S. Kaehler,  
 K. Khistyaev,  Jaehoon Kim,  P. Klunzinger,  Z. Koczor-Benda,  
 Joong Hoon Koh,  D. Kosenkov,  L. Koulias,  T. Kowalczyk,  C. M. Krauter,  
 K. Kue,  A. Kunitsa,  T. Kus,  A. Landau,  K. V. Lawler,  D. Lefrancois,  
 S. Lehtola,  Rain Li,  Yi-Pei Li,  Jiashu Liang,  M. Liebenthal,  
 Hung-Hsuan Lin,  You-Sheng Lin,  Fenglai Liu,  Kuan-Yu Liu,  
 M. Loipersberger,  A. Luenser,  A. Manjanath,  P. Manohar,  E. Mansoor,  
 S. F. Manzer,  Shan-Ping Mao,  A. V. Marenich,  T. Markovich,  S. Mason,  
 S. A. Maurer,  P. F. McLaughlin,  M. F. S. J. Menger,  J.-M. Mewes,  
 S. A. Mewes,  P. Morgante,  J. W. Mullinax,  K. J. Oosterbaan,  G. Paran,  
 Alexander C. Paul,  Suranjan K. Paul,  F. Pavosevic,  Zheng Pei,  S. Prager,  
 E. I. Proynov,  E. Ramos,  B. Rana,  A. E. Rask,  A. Rettig,  R. M. Richard,  
 F. Rob,  E. Rossomme,  T. Scheele,  M. Scheurer,  M. Schneider,  
 N. Sergueev,  S. M. Sharada,  W. Skomorowski,  D. W. Small,  C. J. Stein,  
 Yu-Chuan Su,  E. J. Sundstrom,  Zhen Tao,  J. Thirman,  T. Tsuchimochi,  
 N. M. Tubman,  S. P. Veccham,  O. Vydrov,  J. Wenzel,  J. Witte,  A. Yamada,  
 Kun Yao,  S. Yeganeh,  S. R. Yost,  A. Zech,  Igor Ying Zhang,  Xing Zhang,  
 Yu Zhang,  D. Zuev,  A. Aspuru-Guzik,  A. T. Bell,  N. A. Besley,  
 K. B. Bravaya,  B. R. Brooks,  D. Casanova,  Jeng-Da Chai,  S. Coriani,  
 C. J. Cramer,  A. E. DePrince, III,  R. A. DiStasio Jr.,  A. Dreuw,  
 B. D. Dunietz,  T. R. Furlani,  W. A. Goddard III,  S. Grimme,  
 S. Hammes-Schiffer,  T. Head-Gordon,  W. J. Hehre,  Chao-Ping Hsu,  
 T.-C. Jagau,  Yousung Jung,  A. Klamt,  Jing Kong,  D. S. Lambrecht,  
 WanZhen Liang,  N. J. Mayhall,  C. W. McCurdy,  J. B. Neaton,  
 C. Ochsenfeld,  J. A. Parkhill,  R. Peverati,  V. A. Rassolov,  Yihan Shao,  
 L. V. Slipchenko,  T. Stauch,  R. P. Steele,  J. E. Subotnik,  
 A. J. W. Thom,  A. Tkatchenko,  D. G. Truhlar,  T. Van Voorhis,  
 T. A. Wesolowski,  K. B. Whaley,  H. L. Woodcock III,  P. M. Zimmerman,  
 S. Faraji,  P. M. W. Gill,  M. Head-Gordon,  J. M. Herbert,  A. I. Krylov

 Additional authors for Version 5.4.1: 
 S. Kotaru,  Shaozhi Li,  Xiangyuan Li,  F. Matz,  A. Molle,  Haisheng Ren,  
 Yingli Su,  Hung-Yi Tsai,  C. Utku,  Fang Wang

 Contributors to earlier versions of Q-Chem not listed above: 
 R. D. Adamson,  B. Austin,  R. Baer,  J. Baker,  G. J. O. Beran,  
 K. Brandhorst,  S. T. Brown,  E. F. C. Byrd,  A. K. Chakraborty,  
 G. K. L. Chan,  Chun-Min Chang,  Yunqing Chen,  C.-L. Cheng,  
 Siu Hung Chien,  D. M. Chipman,  D. L. Crittenden,  H. Dachsel,  
 R. J. Doerksen,  A. D. Dutoi,  R. G. Edgar,  J. Fosso-Tande,  
 L. Fusti-Molnar,  D. Ghosh,  A. Ghysels,  A. Golubeva-Zadorozhnaya,  
 J. Gonthier,  M. S. Gordon,  S. R. Gwaltney,  G. Hawkins,  J. E. Herr,  
 A. Heyden,  S. Hirata,  E. G. Hohenstein,  G. Kedziora,  F. J. Keil,  
 C. Kelley,  Jihan Kim,  R. A. King,  R. Z. Khaliullin,  P. P. Korambath,  
 W. Kurlancheek,  A. Laurent,  A. M. Lee,  M. S. Lee,  S. V. Levchenko,  
 Ching Yeh Lin,  D. Liotard,  E. Livshits,  R. C. Lochan,  I. Lotan,  
 L. A. Martinez-Martinez,  P. E. Maslen,  N. Nair,  D. P. O'Neill,  
 D. Neuhauser,  E. Neuscamman,  C. M. Oana,  R. Olivares-Amaya,  R. Olson,  
 T. M. Perrine,  B. Peters,  P. A. Pieniazek,  A. Prociuk,  Y. M. Rhee,  
 J. Ritchie,  M. A. Rohrdanz,  E. Rosta,  N. J. Russ,  H. F. Schaefer III,  
 M. W. Schmidt,  N. E. Schultz,  S. Sharma,  N. Shenvi,  C. D. Sherrill,  
 A. C. Simmonett,  A. Sodt,  T. Stein,  D. Stuck,  K. S. Thanthiriwatte,  
 V. Vanovschi,  L. Vogt,  Tao Wang,  A. Warshel,  M. A. Watson,  
 C. F. Williams,  Q. Wu,  X. Xu,  Jun Yang,  W. Zhang,  Yan Zhao

 Please cite Q-Chem as follows:
 Y. Shao et al., Mol. Phys. 113, 184-215 (2015)
 DOI: 10.1080/00268976.2014.952696

 Q-Chem 5.4.1 for Intel X86 EM64T Linux

 Parts of Q-Chem use Armadillo 9.800.1 (Horizon Scraper).
 http://arma.sourceforge.net/

 Q-Chem begins on Mon Jun 24 13:45:57 2024  

 Host: 
0

     Scratch files written to /scratch/ari.fischer/qChem2185694.hpc-mn1/qchem89554//
 Aug1521 |scratch|qcdevops|jenkins|workspace|build_RNUM 8249   
 Processing $rem in /usr/local/qchem-5.4.1/config/preferences:
 Processing $rem in /home/ari.fischer/.qchemrc:
 Symmetry turned off for PCM/SM12/SMD calculation

 Checking the input file for inconsistencies... 	...done.

--------------------------------------------------------------
User input:
--------------------------------------------------------------
$molecule
0 2
C         2.4134618429   -0.9816095159   -0.9323145199
O         1.1844915008   -0.6140234913   -0.3515560098
C         3.4963225047   -0.5537563593    0.0666450376
O         3.4334802012   -1.4317673094    1.1472418299
C         3.3204554878    0.9100269276    0.4733637261
O         4.5320764549    1.4262764581    1.0837109321
O         4.8588358595    0.7429488274    2.1568686817
H         2.5700115077   -0.4790554655   -1.8901203685
H         0.5046862387   -0.7048920227   -1.0397482224
H         2.5061034527    1.0102335259    1.1912184628
H         3.1582367660    1.5597952390   -0.3862715276
O         2.4988784540   -2.3587994355   -1.1910893219
H         2.4969172613   -2.8036045863   -0.3238461444
O         4.7987498166   -0.7847761917   -0.4911382322
O         4.9810895458    0.1108684257   -1.5984568060
H         3.9428196719   -1.0237107360    1.8746010707
H         5.5714149337    0.7819394102   -1.2052607881
$end

$rem
BASIS = 6-311++G(2df,2p)
GUI = 2
JOB_TYPE = Optimization
METHOD = wB97M-V
SCF_ALGORITHM = DIIS_GDM
MAX_SCF_CYCLES = 400
GEOM_OPT_MAX_CYCLES = 150
SCF_CONVERGENCE = 7
THRESH = 12
Solvent_method = SMD
$end
--------------------------------------------------------------
 ----------------------------------------------------------------
             Standard Nuclear Orientation (Angstroms)
    I     Atom           X                Y                Z
 ----------------------------------------------------------------
    1      C       2.4134618429    -0.9816095159    -0.9323145199
    2      O       1.1844915008    -0.6140234913    -0.3515560098
    3      C       3.4963225047    -0.5537563593     0.0666450376
    4      O       3.4334802012    -1.4317673094     1.1472418299
    5      C       3.3204554878     0.9100269276     0.4733637261
    6      O       4.5320764549     1.4262764581     1.0837109321
    7      O       4.8588358595     0.7429488274     2.1568686817
    8      H       2.5700115077    -0.4790554655    -1.8901203685
    9      H       0.5046862387    -0.7048920227    -1.0397482224
   10      H       2.5061034527     1.0102335259     1.1912184628
   11      H       3.1582367660     1.5597952390    -0.3862715276
   12      O       2.4988784540    -2.3587994355    -1.1910893219
   13      H       2.4969172613    -2.8036045863    -0.3238461444
   14      O       4.7987498166    -0.7847761917    -0.4911382322
   15      O       4.9810895458     0.1108684257    -1.5984568060
   16      H       3.9428196719    -1.0237107360     1.8746010707
   17      H       5.5714149337     0.7819394102    -1.2052607881
 ----------------------------------------------------------------
 Nuclear Repulsion Energy =         635.21999723 hartrees
 There are       41 alpha and       40 beta electrons
 Requested basis set is 6-311++G(2df,2p)
 There are 122 shells and 410 basis functions

 Total QAlloc Memory Limit 288000 MB
 Mega-Array Size       188 MB
 MEM_STATIC part       192 MB
 
 Citation of the SMD model:
 Marenich, A.V.; Cramer, C.J.; Truhlar, D.G.
 J. Phys. Chem. B 2009, 113, 6378-6396.
 iSolventCode=           1
 Solvent: water                                                           
 
 vradii
            1           2           3           4           5           6
    1   1.8500000   1.5200000   1.8500000   1.5200000   1.8500000   1.5200000
            7           8           9          10          11          12
    1   1.5200000   1.2000000   1.2000000   1.2000000   1.2000000   1.5200000
           13          14          15          16          17
    1   1.2000000   1.5200000   1.5200000   1.2000000   1.2000000
 Changing PCM_VDW_RADII to SMD_RADIUS
 Discretize the solute cavity surface with Lebedev spheres
	Using 110 Lebedev grid points for each H atom
	Using 194 Lebedev grid points for other atoms
	Atomic van der Waals radii will be scaled by 1.20
 Remove points where switching function is < 1.0e-08
 Keep 1359 surface tesserae and discard 1351 interior tesserae
 Molecular Surface Area = 152.042 Angst**2
 A cutoff of  1.0D-12 yielded   6752 shell pairs
 There are     75963 function pairs (     95115 Cartesian)
 Smallest overlap matrix eigenvalue = 1.10E-05

 Scale SEOQF with 1.000000e-02/1.000000e-01/1.000000e-01

 Standard Electronic Orientation quadrupole field applied
 Nucleus-field energy     =     0.0000000006 hartrees
 Guess from superposition of atomic densities
 Warning:  Energy on first SCF cycle will be non-variational
 SAD guess density has 81.000000 electrons

 -----------------------------------------------------------------------
  General SCF calculation program by
  Eric Jon Sundstrom, Paul Horn, Yuezhi Mao, Dmitri Zuev, Alec White,
  David Stuck, Shaama M.S., Shane Yost, Joonho Lee, David Small,
  Daniel Levine, Susi Lehtola, Hugh Burton, Evgeny Epifanovsky,
  Bang C. Huynh
 -----------------------------------------------------------------------
 Exchange:     0.1500 Hartree-Fock + 1.0000 wB97M-V + LR-HF
 Correlation:  1.0000 wB97M-V
 Using SG-2 standard quadrature grid
 Nonlocal Correlation:  VV10 with C = 0.0100 and b = 6.00 and scale = 1.00000
 Grid used for NLC:  SG-1 standard quadrature
 
 Citation of the SMD model:
 Marenich, A.V.; Cramer, C.J.; Truhlar, D.G.
 J. Phys. Chem. B 2009, 113, 6378-6396.
 iSolventCode=           1
 Solvent: water                                                           
 
 vradii
            1           2           3           4           5           6
    1   1.8500000   1.5200000   1.8500000   1.5200000   1.8500000   1.5200000
            7           8           9          10          11          12
    1   1.5200000   1.2000000   1.2000000   1.2000000   1.2000000   1.5200000
           13          14          15          16          17
    1   1.2000000   1.5200000   1.5200000   1.2000000   1.2000000
 using 16 threads for integral computing
 -------------------------------------------------------
 OpenMP Integral computing Module                
 Release: version 1.0, May 2013, Q-Chem Inc. Pittsburgh 
 -------------------------------------------------------
 -------------------------------------------------------
 OpenMP BLAS3 based DFT computing Module                
 Release: version 1.0, May 2013, Q-Chem Inc. Pittsburgh 
 -------------------------------------------------------
 A unrestricted SCF calculation will be
 performed using DIIS, GDM
 SCF converges when RMS gradient is below 1.0e-07
 ---------------------------------------
  Cycle       Energy         DIIS error
 ---------------------------------------
    1    -646.6157778232      1.19e-02  
    2    -644.7524964040      1.66e-03  Done DIIS. Switching to GDM
 ---------------------------------------
  Cycle       Energy        RMS Gradient
 ---------------------------------------
    1    -644.7524964040      1.18e-01   Descent step
    2    -644.9090221393      4.89e-02   Normal BFGS step
    3    -644.9344035808      3.22e-02   Normal BFGS step
    4    -644.9373523333      1.60e-02   Normal BFGS step
    5    -644.9394648254      7.03e-03   Normal BFGS step
    6    -644.9397315263      4.71e-03   Normal BFGS step
    7    -644.9398380931      2.70e-03   Normal BFGS step
    8    -644.9398724249      2.45e-03   Normal BFGS step
    9    -644.9398862399      1.69e-03   Normal BFGS step
   10    -644.9398959919      1.19e-03   Normal BFGS step
   11    -644.9399008474      1.10e-03   Normal BFGS step
   12    -644.9399054702      5.64e-04   Normal BFGS step
   13    -644.9399068392      1.95e-04   Normal BFGS step
   14    -644.9399071086      3.69e-05   Normal BFGS step
   15    -644.9399071469      1.26e-05   Normal BFGS step
   16    -644.9399071515      7.20e-06   Normal BFGS step
   17    -644.9399071522      3.31e-06   Normal BFGS step
   18    -644.9399071524      1.50e-06   Normal BFGS step
   19    -644.9399071524      5.81e-07   Normal BFGS step
   20    -644.9399071524      2.59e-07   Normal BFGS step
   21    -644.9399071525      1.15e-07   Normal BFGS step
   22    -644.9399071524      3.95e-08  Convergence criterion met
 ---------------------------------------
 SCF time:   CPU 2304.49s  wall 160.00s 
<S^2> =          0.753978918
(3)  G-ENP(liq) elect-nuc-pol free energy of system     -644.939907152 a.u.
(4)  G-CDS(liq) cavity-dispersion-solvent structure 
     free energy                                                2.7075 kcal/mol
(6)  G-S(liq) free energy of system                     -644.935592515 a.u.
 SCF   energy in the final basis set =     -644.9355925151
 Total energy in the final basis set =     -644.9355925151
 
 --------------------------------------------------------------
 
                    Orbital Energies (a.u.)
 --------------------------------------------------------------
 
 Alpha MOs
 -- Occupied --
-19.4752 -19.4279 -19.4116 -19.4031 -19.3632 -19.3527 -19.3511 -10.4747
-10.4538 -10.4116  -1.3501  -1.2816  -1.2154  -1.1852  -1.1405  -1.0471
 -1.0281  -0.8831  -0.8103  -0.7422  -0.6993  -0.6696  -0.6586  -0.6509
 -0.6317  -0.6223  -0.5860  -0.5787  -0.5736  -0.5606  -0.5346  -0.5097
 -0.4914  -0.4678  -0.4537  -0.4368  -0.4229  -0.4197  -0.4157  -0.4066
 -0.3869
 -- Virtual --
  0.0274   0.0374   0.0440   0.0480   0.0656   0.0700   0.0778   0.0930
  0.0967   0.1165   0.1270   0.1296   0.1360   0.1392   0.1474   0.1518
  0.1551   0.1712   0.1760   0.1882   0.1935   0.2042   0.2152   0.2247
  0.2402   0.2456   0.2496   0.2551   0.2621   0.2687   0.2707   0.2839
  0.2867   0.2971   0.3011   0.3084   0.3185   0.3208   0.3292   0.3351
  0.3391   0.3497   0.3594   0.3651   0.3670   0.3732   0.3757   0.3788
  0.3899   0.3959   0.4030   0.4133   0.4160   0.4254   0.4363   0.4444
  0.4515   0.4529   0.4672   0.4707   0.4899   0.4965   0.5348   0.5660
  0.5787   0.5939   0.6097   0.6245   0.6398   0.6533   0.6569   0.6751
  0.6793   0.6919   0.7121   0.7384   0.7505   0.7585   0.7704   0.7896
  0.8063   0.8312   0.8498   0.8745   0.8908   0.9177   0.9382   0.9526
  0.9639   1.0049   1.0237   1.0518   1.0576   1.0682   1.0904   1.0993
  1.1166   1.1251   1.1308   1.1417   1.1470   1.1604   1.1754   1.1855
  1.1900   1.1940   1.1978   1.2046   1.2142   1.2299   1.2419   1.2543
  1.2590   1.2740   1.2824   1.2979   1.3036   1.3226   1.3459   1.3564
  1.3688   1.3889   1.3984   1.4124   1.4311   1.4481   1.4722   1.4747
  1.4832   1.4968   1.5144   1.5296   1.5523   1.5548   1.5670   1.5934
  1.6181   1.6374   1.6580   1.6746   1.6894   1.7016   1.7205   1.7290
  1.7576   1.7844   1.7931   1.8403   1.8609   1.9061   1.9271   1.9356
  1.9597   1.9624   1.9911   2.0084   2.0490   2.0648   2.0986   2.1186
  2.1497   2.1634   2.2063   2.2277   2.2440   2.2725   2.3083   2.3308
  2.3489   2.3651   2.3947   2.4081   2.4564   2.4574   2.4880   2.4975
  2.5364   2.5599   2.6068   2.6612   2.6994   2.7136   2.7959   2.7993
  2.8234   2.8497   2.8640   2.8953   2.9519   3.0141   3.0706   3.1079
  3.1468   3.1731   3.2053   3.2372   3.2584   3.3004   3.3265   3.3569
  3.3799   3.4146   3.4209   3.4497   3.5023   3.5319   3.5570   3.5967
  3.6208   3.6522   3.6549   3.6852   3.7036   3.7260   3.7416   3.7580
  3.8034   3.8252   3.8361   3.8415   3.8577   3.8810   3.8987   3.9237
  3.9344   3.9590   3.9842   4.0098   4.0307   4.0613   4.1154   4.1480
  4.1584   4.1831   4.1911   4.2333   4.2562   4.2880   4.3053   4.3459
  4.3604   4.3722   4.4029   4.4264   4.4572   4.4747   4.5495   4.5739
  4.5790   4.6151   4.6491   4.7072   4.7157   4.7754   4.8411   4.8710
  4.8853   4.9717   5.0159   5.0374   5.0531   5.0777   5.0960   5.1213
  5.1990   5.2021   5.2105   5.2219   5.2271   5.2495   5.2532   5.2738
  5.2904   5.2958   5.3118   5.3201   5.3281   5.3450   5.3535   5.3742
  5.3922   5.4060   5.4240   5.4381   5.4550   5.4891   5.5085   5.5120
  5.5380   5.5647   5.5800   5.5923   5.6045   5.6256   5.6378   5.6598
  5.6886   5.6998   5.7251   5.7646   5.7898   5.8182   5.8485   5.9123
  5.9724   6.0067   6.0341   6.0626   6.1205   6.1698   6.2225   6.4196
  6.4733   6.4949   6.5549   6.5822   6.7467   6.8098   6.8278   6.8698
  6.9237   6.9568   7.0142   7.0386   7.0865   7.0896   7.0953   7.1153
  7.1514   7.1840   7.2224   7.2471   7.2593   7.2730   7.2872   7.2915
  7.3237   7.3688   7.3969   7.4121   7.4161   7.4266   7.4453   7.4911
  7.5060   7.5793   7.5860   7.6483   7.6887   7.7598   7.7771   7.8337
  7.8532   7.8689   7.9093   8.0025   8.0220   8.0515   8.2088  24.6161
 24.7759  24.8470  50.4216  50.4916  50.5281  50.5886  50.6169  50.6405
 50.6885
 
 Beta MOs
 -- Occupied --
-19.4647 -19.4116 -19.4094 -19.4030 -19.3631 -19.3527 -19.3511 -10.4744
-10.4538 -10.4120  -1.3245  -1.2810  -1.2153  -1.1850  -1.1405  -1.0456
 -0.9981  -0.8775  -0.8033  -0.7408  -0.6964  -0.6573  -0.6561  -0.6418
 -0.6206  -0.6066  -0.5792  -0.5740  -0.5583  -0.5457  -0.5337  -0.4901
 -0.4874  -0.4629  -0.4517  -0.4360  -0.4194  -0.4133  -0.4037  -0.3888
 -- Virtual --
 -0.0437   0.0275   0.0374   0.0442   0.0482   0.0659   0.0701   0.0783
  0.0933   0.0976   0.1170   0.1289   0.1302   0.1365   0.1395   0.1484
  0.1540   0.1558   0.1722   0.1764   0.1894   0.1975   0.2057   0.2169
  0.2256   0.2406   0.2479   0.2512   0.2560   0.2629   0.2707   0.2733
  0.2856   0.2896   0.2985   0.3016   0.3116   0.3191   0.3210   0.3307
  0.3362   0.3406   0.3510   0.3596   0.3666   0.3677   0.3738   0.3775
  0.3798   0.3907   0.3970   0.4040   0.4137   0.4176   0.4260   0.4364
  0.4451   0.4521   0.4533   0.4678   0.4717   0.4901   0.4969   0.5359
  0.5664   0.5793   0.5948   0.6099   0.6251   0.6401   0.6536   0.6570
  0.6754   0.6795   0.6922   0.7124   0.7391   0.7507   0.7589   0.7710
  0.7911   0.8069   0.8313   0.8510   0.8748   0.8912   0.9189   0.9386
  0.9531   0.9645   1.0057   1.0263   1.0528   1.0588   1.0699   1.0914
  1.1013   1.1194   1.1286   1.1327   1.1482   1.1576   1.1626   1.1786
  1.1898   1.1919   1.1968   1.2044   1.2145   1.2186   1.2334   1.2452
  1.2559   1.2668   1.2763   1.2841   1.2997   1.3059   1.3235   1.3483
  1.3593   1.3713   1.3916   1.3991   1.4149   1.4351   1.4518   1.4752
  1.4759   1.4858   1.4987   1.5161   1.5337   1.5530   1.5616   1.5704
  1.5953   1.6232   1.6417   1.6597   1.6769   1.6901   1.7134   1.7254
  1.7441   1.7607   1.7863   1.7966   1.8420   1.8659   1.9154   1.9309
  1.9394   1.9610   1.9643   1.9928   2.0090   2.0531   2.0673   2.1022
  2.1198   2.1612   2.1667   2.2122   2.2329   2.2458   2.2808   2.3158
  2.3370   2.3527   2.3685   2.3952   2.4092   2.4566   2.4593   2.4886
  2.4989   2.5396   2.5603   2.6076   2.6645   2.7001   2.7192   2.7964
  2.8005   2.8245   2.8501   2.8644   2.8963   2.9528   3.0144   3.0713
  3.1085   3.1472   3.1739   3.2059   3.2381   3.2588   3.3006   3.3273
  3.3571   3.3802   3.4149   3.4212   3.4502   3.5031   3.5324   3.5574
  3.5967   3.6206   3.6524   3.6547   3.6853   3.7037   3.7262   3.7426
  3.7587   3.8041   3.8251   3.8365   3.8418   3.8579   3.8813   3.8993
  3.9240   3.9347   3.9592   3.9842   4.0100   4.0307   4.0619   4.1157
  4.1482   4.1591   4.1834   4.1920   4.2336   4.2569   4.2882   4.3059
  4.3484   4.3607   4.3730   4.4051   4.4279   4.4584   4.4762   4.5503
  4.5759   4.5953   4.6239   4.6607   4.7091   4.7246   4.7835   4.8437
  4.8817   4.9031   4.9797   5.0253   5.0446   5.0552   5.1306   5.1546
  5.1708   5.2092   5.2185   5.2352   5.2408   5.2527   5.2552   5.2761
  5.2783   5.2945   5.3006   5.3151   5.3304   5.3345   5.3484   5.3614
  5.3789   5.4028   5.4092   5.4263   5.4450   5.4592   5.4896   5.5133
  5.5222   5.5389   5.5661   5.5837   5.5929   5.6051   5.6280   5.6412
  5.6600   5.6946   5.7038   5.7305   5.7679   5.7943   5.8196   5.8610
  5.9158   5.9733   6.0072   6.0347   6.0630   6.1208   6.1700   6.2227
  6.4651   6.4861   6.4968   6.5662   6.5839   6.7469   6.8131   6.8299
  6.9466   6.9852   7.0041   7.0267   7.0489   7.0892   7.0919   7.1186
  7.1354   7.1534   7.1956   7.2361   7.2508   7.2614   7.2793   7.2926
  7.3122   7.3299   7.3786   7.4009   7.4144   7.4318   7.4522   7.4595
  7.4938   7.5170   7.5802   7.5863   7.6484   7.6891   7.7608   7.7857
  7.8365   7.8534   7.8705   7.9094   8.0027   8.0336   8.0725   8.2094
 24.6160  24.7759  24.8472  50.4337  50.4932  50.5353  50.5897  50.6169
 50.6406  50.6888
 --------------------------------------------------------------
 
          Ground-State Mulliken Net Atomic Charges

     Atom                 Charge (a.u.)    Spin (a.u.)
  --------------------------------------------------------
      1 C                    -0.106757       0.004671
      2 O                    -0.415791       0.000298
      3 C                     0.172997      -0.005870
      4 O                    -0.378475       0.003422
      5 C                    -0.504590       0.007194
      6 O                     0.078441       0.315420
      7 O                    -0.206841       0.664917
      8 H                     0.292493       0.000196
      9 H                     0.343898       0.000014
     10 H                     0.291477       0.009624
     11 H                     0.308757       0.000476
     12 O                    -0.447370       0.000442
     13 H                     0.352029       0.000087
     14 O                    -0.175549      -0.001937
     15 O                    -0.274079       0.002589
     16 H                     0.326407      -0.002038
     17 H                     0.342954       0.000496
  --------------------------------------------------------
  Sum of atomic charges =     0.000000
  Sum of spin   charges =     1.000000

 -----------------------------------------------------------------
                    Cartesian Multipole Moments
 -----------------------------------------------------------------
    Charge (ESU x 10^10)
                 0.0000
    Dipole Moment (Debye)
         X      -2.3283      Y       4.0106      Z      -0.5705
       Tot       4.6724
    Quadrupole Moments (Debye-Ang)
        XX     -71.7257     XY      15.5954     YY     -61.3666
        XZ       0.2316     YZ      -7.3112     ZZ     -61.3998
    Octopole Moments (Debye-Ang^2)
       XXX    -684.2228    XXY      85.4712    XYY    -216.8232
       YYY      70.5915    XXZ     -14.0495    XYZ     -35.8210
       YYZ       8.1724    XZZ    -228.7527    YZZ      26.3825
       ZZZ       1.7242
    Hexadecapole Moments (Debye-Ang^3)
      XXXX   -5198.0476   XXXY     409.6694   XXYY    -957.4400
      XYYY     135.5634   YYYY    -533.6056   XXXZ    -216.8118
      XXYZ    -204.8917   XYYZ     -11.5621   YYYZ    -139.7522
      XXZZ   -1027.1799   XYZZ      42.4744   YYZZ    -201.3658
      XZZZ     -56.7998   YZZZ    -130.6373   ZZZZ    -521.3097
 -----------------------------------------------------------------
 Calculating analytic gradient of the SCF energy
 Gradient of CDS energy
            1           2           3           4           5           6
    1  -0.0015775   0.0018689  -0.0001334   0.0001261  -0.0003512   0.0000893
    2  -0.0027667  -0.0006583  -0.0024010   0.0024855   0.0008104  -0.0002067
    3  -0.0002039  -0.0006103   0.0028582  -0.0031054   0.0001487   0.0000708
            7           8           9          10          11          12
    1   0.0000456   0.0002373  -0.0005065  -0.0000648   0.0002243  -0.0001155
    2   0.0001481   0.0000762   0.0000924  -0.0003009  -0.0000888   0.0034444
    3  -0.0000676  -0.0000702  -0.0000493   0.0001946  -0.0002622   0.0006756
           13          14          15          16          17
    1  -0.0000604  -0.0000610  -0.0001932   0.0000756   0.0003963
    2  -0.0004742  -0.0000113  -0.0001884  -0.0002155   0.0002549
    3   0.0001139  -0.0000273   0.0001177   0.0003918  -0.0001754
 Gradient of SCF Energy
            1           2           3           4           5           6
    1  -0.0035183   0.0124226   0.0002491  -0.0083954   0.0134116  -0.0009966
    2  -0.0050334   0.0017239   0.0067638  -0.0095733  -0.0165588   0.0063933
    3   0.0107238   0.0219978  -0.0044586  -0.0083605   0.0070335  -0.0048745
            7           8           9          10          11          12
    1   0.0024187  -0.0012583  -0.0133635  -0.0097723  -0.0022297   0.0058062
    2  -0.0042255   0.0066978  -0.0003482   0.0025764   0.0112690  -0.0015153
    3   0.0057569  -0.0083565  -0.0175717   0.0088543  -0.0138342  -0.0139715
           13          14          15          16          17
    1  -0.0022883   0.0021512  -0.0118186   0.0065277   0.0106540
    2  -0.0014694  -0.0076605  -0.0134365   0.0074820   0.0169146
    3   0.0095266   0.0042138  -0.0151249   0.0092882   0.0091574
 Max gradient component =       2.200E-02
 RMS gradient           =       9.344E-03
 Computing fast CPCM-SWIG gradient
 Updating gradient with PCM contributions...
 -- total gradient after adding PCM contribution --
---------------------------------------------------
  Atom         X              Y              Z     
---------------------------------------------------
   1      -0.002363      -0.002884       0.002424
   2       0.004042       0.002566       0.008431
   3      -0.000211       0.000896      -0.000882
   4      -0.005560      -0.005549      -0.003670
   5       0.000712      -0.001862       0.000127
   6       0.000509       0.005346      -0.005747
   7       0.001290      -0.005077       0.005441
   8       0.001146       0.000770      -0.003089
   9      -0.003716      -0.001322      -0.005740
  10      -0.002389       0.000381       0.001957
  11      -0.000071       0.002209      -0.002127
  12       0.001547       0.000800      -0.009084
  13      -0.000090      -0.000396       0.007243
  14       0.002114      -0.002908       0.003984
  15      -0.004865      -0.001393      -0.007436
  16       0.004230       0.004434       0.003785
  17       0.003674       0.003989       0.004382
---------------------------------------------------
 Number of fixed atoms: 0
 Gradient time:  CPU 283.44 s  wall 23.73 s
 Geometry Optimization Parameters
   NAtoms,    NIC,     NZ,  NCons,   NDum,   NFix, NCnnct, MaxDiis
       17     108       0       0       0       0       0       0


** GEOMETRY OPTIMIZATION IN DELOCALIZED INTERNAL COORDINATES **
   Searching for a Minimum

   Optimization Cycle:   1

                       Coordinates (Angstroms)
     ATOM                X               Y               Z
      1  C         2.4134618429   -0.9816095159   -0.9323145199
      2  O         1.1844915008   -0.6140234913   -0.3515560098
      3  C         3.4963225047   -0.5537563593    0.0666450376
      4  O         3.4334802012   -1.4317673094    1.1472418299
      5  C         3.3204554878    0.9100269276    0.4733637261
      6  O         4.5320764549    1.4262764581    1.0837109321
      7  O         4.8588358595    0.7429488274    2.1568686817
      8  H         2.5700115077   -0.4790554655   -1.8901203685
      9  H         0.5046862387   -0.7048920227   -1.0397482224
     10  H         2.5061034527    1.0102335259    1.1912184628
     11  H         3.1582367660    1.5597952390   -0.3862715276
     12  O         2.4988784540   -2.3587994355   -1.1910893219
     13  H         2.4969172613   -2.8036045863   -0.3238461444
     14  O         4.7987498166   -0.7847761917   -0.4911382322
     15  O         4.9810895458    0.1108684257   -1.5984568060
     16  H         3.9428196719   -1.0237107360    1.8746010707
     17  H         5.5714149337    0.7819394102   -1.2052607881
   Point Group: c1    Number of degrees of freedom:    45


   Energy is   -644.935592515


 Attempting to generate delocalized internal coordinates
 Initial Hessian constructed with Jon Baker's OPTIMIZE code

 45 Hessian modes will be used to form the next step
  Hessian Eigenvalues:
     0.004368    0.004664    0.005292    0.008823    0.010943    0.014573
     0.015131    0.016472    0.051045    0.051415    0.055818    0.058734
     0.062271    0.063528    0.091272    0.092855    0.115721    0.137633
     0.160000    0.160000    0.160000    0.160000    0.169939    0.182024
     0.191398    0.207590    0.221015    0.250000    0.250000    0.290450
     0.294805    0.344781    0.347901    0.348452    0.380397    0.401642
     0.402018    0.443028    0.449816    0.466720    0.519256    0.520836
     0.524356    0.530520    0.635700

 Minimum search - taking simple RFO step
 Searching for Lamda that Minimizes Along All modes
 Value Taken    Lamda =  -0.00158896
 Step Taken.  Stepsize is  0.205984

                             Maximum     Tolerance    Cnvgd?
         Gradient           0.008650      0.000300      NO
         Displacement       0.088717      0.001200      NO
         Energy change     *********      0.000001      NO


 New Cartesian Coordinates Obtained by Inverse Iteration

 Displacement from previous Coordinates is:  0.439752
 ----------------------------------------------------------------
             Standard Nuclear Orientation (Angstroms)
    I     Atom           X                Y                Z
 ----------------------------------------------------------------
    1      C       2.4188786364    -0.9696160096    -0.9244011067
    2      O       1.1840699279    -0.6204843759    -0.3479275826
    3      C       3.5022536585    -0.5510334459     0.0789725110
    4      O       3.4506332595    -1.4406048977     1.1494139692
    5      C       3.3099030872     0.9068892713     0.4934745936
    6      O       4.5066163119     1.4537491686     1.1017657962
    7      O       4.8208110218     0.8394946343     2.2122650779
    8      H       2.5689107514    -0.4470291180    -1.8667834098
    9      H       0.5046251561    -0.6897525316    -1.0294494094
   10      H       2.4972165386     0.9933777348     1.2078442856
   11      H       3.1326694461     1.5466725642    -0.3649465234
   12      O       2.5003495342    -2.3411830920    -1.2124330999
   13      H       2.4957700754    -2.8296268425    -0.3767059471
   14      O       4.8004814092    -0.7736650499    -0.4901427376
   15      O       4.9715315656     0.0856041982    -1.6213360830
   16      H       3.9456144729    -1.0552481191     1.8896125565
   17      H       5.6576966474     0.6985496111    -1.3153750903
 ----------------------------------------------------------------
 Nuclear Repulsion Energy =         633.21894265 hartrees
 There are       41 alpha and       40 beta electrons
 Discretize the solute cavity surface with Lebedev spheres
	Using 110 Lebedev grid points for each H atom
	Using 194 Lebedev grid points for other atoms
	Atomic van der Waals radii will be scaled by 1.20
 Remove points where switching function is < 1.0e-08
 Keep 1372 surface tesserae and discard 1338 interior tesserae
 Molecular Surface Area = 153.573 Angst**2
 Applying Cartesian multipole field
    Component          Value
    ---------          -----
     (2,0,0)        1.00000E-12
     (0,2,0)        2.00000E-11
     (0,0,2)       -3.00000E-11
 Nucleus-field energy     =     0.0000000003 hartrees
 Requested basis set is 6-311++G(2df,2p)
 There are 122 shells and 410 basis functions
 A cutoff of  1.0D-12 yielded   6739 shell pairs
 There are     75770 function pairs (     94822 Cartesian)
 Smallest overlap matrix eigenvalue = 1.08E-05
 Guess MOs from SCF MO coefficient file

 -----------------------------------------------------------------------
  General SCF calculation program by
  Eric Jon Sundstrom, Paul Horn, Yuezhi Mao, Dmitri Zuev, Alec White,
  David Stuck, Shaama M.S., Shane Yost, Joonho Lee, David Small,
  Daniel Levine, Susi Lehtola, Hugh Burton, Evgeny Epifanovsky,
  Bang C. Huynh
 -----------------------------------------------------------------------
 Exchange:     0.1500 Hartree-Fock + 1.0000 wB97M-V + LR-HF
 Correlation:  1.0000 wB97M-V
 Using SG-2 standard quadrature grid
 Nonlocal Correlation:  VV10 with C = 0.0100 and b = 6.00 and scale = 1.00000
 Grid used for NLC:  SG-1 standard quadrature
 
 Citation of the SMD model:
 Marenich, A.V.; Cramer, C.J.; Truhlar, D.G.
 J. Phys. Chem. B 2009, 113, 6378-6396.
 iSolventCode=           1
 Solvent: water                                                           
 
 vradii
            1           2           3           4           5           6
    1   1.8500000   1.5200000   1.8500000   1.5200000   1.8500000   1.5200000
            7           8           9          10          11          12
    1   1.5200000   1.2000000   1.2000000   1.2000000   1.2000000   1.5200000
           13          14          15          16          17
    1   1.2000000   1.5200000   1.5200000   1.2000000   1.2000000
 -------------------------------------------------------
 OpenMP BLAS3 based DFT computing Module                
 Release: version 1.0, May 2013, Q-Chem Inc. Pittsburgh 
 -------------------------------------------------------
 A unrestricted SCF calculation will be
 performed using Roothaan-Hall, DIIS, GDM
 SCF converges when RMS gradient is below 1.0e-07
 ---------------------------------------
  Cycle       Energy         DIIS error
 ---------------------------------------
    1    -644.8912907032      3.29e-04  Roothaan Step
 ---------------------------------------
  Cycle       Energy         DIIS error
 ---------------------------------------
    1    -644.9328681627      2.44e-04  
    2    -644.9381163011      1.95e-04  Done DIIS. Switching to GDM
 ---------------------------------------
  Cycle       Energy        RMS Gradient
 ---------------------------------------
    1    -644.9381163011      1.39e-02   Normal BFGS step
    2    -644.9375852144      2.39e-02  Line search: overstep
    3    -644.9402332824      4.52e-03   Normal BFGS step
    4    -644.9404207730      1.45e-03   Normal BFGS step
    5    -644.9404732902      1.16e-03   Normal BFGS step
    6    -644.9404814472      3.15e-04   Normal BFGS step
    7    -644.9404831141      2.78e-04   Normal BFGS step
    8    -644.9404837086      1.66e-04   Normal BFGS step
    9    -644.9404838886      1.38e-04   Normal BFGS step
   10    -644.9404839566      1.01e-04   Normal BFGS step
   11    -644.9404839885      7.20e-05   Normal BFGS step
   12    -644.9404840270      3.99e-05   Normal BFGS step
   13    -644.9404840409      2.29e-05   Normal BFGS step
   14    -644.9404840470      1.53e-05   Normal BFGS step
   15    -644.9404840485      7.81e-06   Normal BFGS step
   16    -644.9404840490      3.52e-06   Normal BFGS step
   17    -644.9404840491      1.33e-06   Normal BFGS step
   18    -644.9404840491      3.02e-07   Normal BFGS step
   19    -644.9404840491      1.21e-07   Normal BFGS step
   20    -644.9404840491      6.21e-08  Convergence criterion met
 ---------------------------------------
 SCF time:   CPU 2229.12s  wall 153.00s 
<S^2> =          0.753964107
(3)  G-ENP(liq) elect-nuc-pol free energy of system     -644.940484049 a.u.
(4)  G-CDS(liq) cavity-dispersion-solvent structure 
     free energy                                                2.7878 kcal/mol
(6)  G-S(liq) free energy of system                     -644.936041341 a.u.
 SCF   energy in the final basis set =     -644.9360413409
 Total energy in the final basis set =     -644.9360413409
 
 --------------------------------------------------------------
 
                    Orbital Energies (a.u.)
 --------------------------------------------------------------
 
 Alpha MOs
 -- Occupied --
-19.4737 -19.4253 -19.4110 -19.4017 -19.3640 -19.3514 -19.3501 -10.4755
-10.4538 -10.4099  -1.3515  -1.2826  -1.2156  -1.1869  -1.1408  -1.0483
 -1.0265  -0.8845  -0.8103  -0.7446  -0.6985  -0.6720  -0.6611  -0.6505
 -0.6343  -0.6227  -0.5874  -0.5806  -0.5730  -0.5593  -0.5334  -0.5093
 -0.4908  -0.4682  -0.4537  -0.4375  -0.4223  -0.4193  -0.4119  -0.4051
 -0.3844
 -- Virtual --
  0.0274   0.0374   0.0438   0.0478   0.0656   0.0694   0.0782   0.0937
  0.0970   0.1171   0.1273   0.1299   0.1364   0.1397   0.1473   0.1505
  0.1560   0.1705   0.1761   0.1889   0.1951   0.2049   0.2142   0.2254
  0.2411   0.2485   0.2513   0.2549   0.2624   0.2674   0.2696   0.2849
  0.2873   0.2962   0.3009   0.3083   0.3185   0.3222   0.3288   0.3366
  0.3376   0.3485   0.3601   0.3645   0.3691   0.3730   0.3765   0.3804
  0.3903   0.3945   0.4040   0.4130   0.4172   0.4255   0.4308   0.4418
  0.4526   0.4605   0.4643   0.4684   0.4913   0.4929   0.5374   0.5670
  0.5803   0.5942   0.6101   0.6244   0.6486   0.6550   0.6589   0.6749
  0.6815   0.6894   0.7181   0.7351   0.7532   0.7578   0.7721   0.7913
  0.8116   0.8296   0.8522   0.8716   0.8834   0.9235   0.9297   0.9538
  0.9628   1.0013   1.0272   1.0489   1.0617   1.0646   1.0806   1.0951
  1.1157   1.1201   1.1300   1.1441   1.1514   1.1577   1.1773   1.1782
  1.1883   1.1937   1.1958   1.2020   1.2152   1.2279   1.2367   1.2530
  1.2599   1.2748   1.2815   1.2983   1.3016   1.3284   1.3383   1.3582
  1.3651   1.3906   1.3967   1.4133   1.4289   1.4547   1.4670   1.4710
  1.4826   1.5004   1.5146   1.5308   1.5564   1.5603   1.5720   1.5979
  1.6257   1.6400   1.6530   1.6702   1.6906   1.7043   1.7201   1.7356
  1.7556   1.7835   1.7919   1.8344   1.8492   1.8846   1.9263   1.9325
  1.9605   1.9637   1.9830   2.0098   2.0469   2.0735   2.0902   2.1181
  2.1491   2.1638   2.1863   2.2258   2.2425   2.2633   2.3078   2.3349
  2.3470   2.3627   2.3910   2.4047   2.4543   2.4549   2.4887   2.4969
  2.5281   2.5588   2.5962   2.6608   2.6917   2.7079   2.7732   2.8010
  2.8223   2.8479   2.8689   2.9008   2.9436   3.0152   3.0704   3.1021
  3.1462   3.1754   3.2116   3.2370   3.2622   3.3017   3.3268   3.3579
  3.3747   3.4153   3.4223   3.4431   3.5048   3.5324   3.5594   3.5979
  3.6245   3.6515   3.6571   3.6878   3.7035   3.7293   3.7378   3.7605
  3.8060   3.8253   3.8301   3.8420   3.8602   3.8786   3.8970   3.9147
  3.9360   3.9626   3.9746   4.0074   4.0322   4.0655   4.1141   4.1513
  4.1591   4.1860   4.2040   4.2387   4.2530   4.3019   4.3109   4.3542
  4.3660   4.3751   4.4107   4.4310   4.4667   4.4768   4.5561   4.5732
  4.5812   4.6152   4.6519   4.7078   4.7102   4.7789   4.8442   4.8727
  4.8893   4.9777   5.0170   5.0404   5.0549   5.0781   5.0892   5.1100
  5.1977   5.2030   5.2074   5.2213   5.2298   5.2487   5.2564   5.2718
  5.2896   5.2959   5.3093   5.3197   5.3264   5.3442   5.3546   5.3721
  5.3893   5.3987   5.4221   5.4300   5.4541   5.4883   5.5063   5.5133
  5.5380   5.5722   5.5905   5.6074   5.6246   5.6292   5.6481   5.6692
  5.7028   5.7073   5.7289   5.7579   5.7941   5.8282   5.8560   5.9213
  5.9817   6.0234   6.0521   6.0825   6.1376   6.1663   6.2387   6.4466
  6.4825   6.4905   6.5788   6.5858   6.7514   6.8137   6.8423   6.8719
  6.9052   6.9597   7.0116   7.0428   7.0879   7.0909   7.0934   7.1175
  7.1508   7.1982   7.2312   7.2641   7.2687   7.2837   7.2988   7.3125
  7.3224   7.3631   7.4014   7.4086   7.4202   7.4230   7.4421   7.4892
  7.5055   7.5811   7.5975   7.6643   7.6900   7.7665   7.7805   7.8365
  7.8572   7.8677   7.9131   8.0023   8.0221   8.0627   8.2040  24.6289
 24.7849  24.8522  50.4233  50.4925  50.5279  50.5866  50.6206  50.6412
 50.6835
 
 Beta MOs
 -- Occupied --
-19.4631 -19.4110 -19.4068 -19.4017 -19.3639 -19.3514 -19.3501 -10.4752
-10.4537 -10.4103  -1.3257  -1.2820  -1.2155  -1.1867  -1.1408  -1.0469
 -0.9969  -0.8790  -0.8030  -0.7431  -0.6960  -0.6612  -0.6581  -0.6408
 -0.6212  -0.6083  -0.5818  -0.5746  -0.5566  -0.5443  -0.5325  -0.4912
 -0.4871  -0.4635  -0.4505  -0.4371  -0.4207  -0.4132  -0.3987  -0.3870
 -- Virtual --
 -0.0405   0.0275   0.0375   0.0440   0.0480   0.0659   0.0695   0.0788
  0.0940   0.0979   0.1176   0.1288   0.1306   0.1369   0.1400   0.1482
  0.1528   0.1567   0.1716   0.1765   0.1899   0.1988   0.2064   0.2157
  0.2263   0.2415   0.2501   0.2530   0.2557   0.2633   0.2688   0.2737
  0.2868   0.2904   0.2974   0.3014   0.3115   0.3194   0.3223   0.3302
  0.3380   0.3391   0.3500   0.3604   0.3661   0.3699   0.3740   0.3780
  0.3810   0.3911   0.3957   0.4047   0.4134   0.4189   0.4260   0.4311
  0.4423   0.4529   0.4611   0.4654   0.4688   0.4916   0.4932   0.5384
  0.5674   0.5808   0.5951   0.6104   0.6249   0.6489   0.6552   0.6589
  0.6751   0.6817   0.6898   0.7183   0.7359   0.7536   0.7581   0.7725
  0.7929   0.8122   0.8297   0.8531   0.8721   0.8839   0.9246   0.9298
  0.9542   0.9640   1.0025   1.0297   1.0499   1.0631   1.0662   1.0849
  1.0959   1.1179   1.1238   1.1331   1.1500   1.1590   1.1627   1.1799
  1.1811   1.1912   1.1950   1.2019   1.2141   1.2197   1.2315   1.2397
  1.2543   1.2648   1.2762   1.2834   1.3001   1.3058   1.3302   1.3416
  1.3612   1.3668   1.3930   1.3977   1.4155   1.4335   1.4582   1.4709
  1.4722   1.4839   1.5019   1.5164   1.5333   1.5584   1.5652   1.5764
  1.6012   1.6303   1.6460   1.6555   1.6724   1.6914   1.7168   1.7323
  1.7416   1.7583   1.7855   1.7960   1.8365   1.8566   1.8912   1.9319
  1.9351   1.9621   1.9653   1.9846   2.0101   2.0513   2.0758   2.0938
  2.1194   2.1585   2.1683   2.1944   2.2304   2.2437   2.2666   2.3182
  2.3402   2.3523   2.3665   2.3914   2.4054   2.4549   2.4571   2.4894
  2.4981   2.5312   2.5592   2.5969   2.6648   2.6926   2.7125   2.7735
  2.8022   2.8232   2.8483   2.8693   2.9017   2.9443   3.0156   3.0711
  3.1026   3.1467   3.1762   3.2121   3.2379   3.2626   3.3020   3.3275
  3.3581   3.3750   3.4157   3.4227   3.4436   3.5054   3.5330   3.5598
  3.5979   3.6244   3.6516   3.6570   3.6879   3.7035   3.7297   3.7389
  3.7612   3.8067   3.8254   3.8302   3.8424   3.8604   3.8789   3.8973
  3.9152   3.9362   3.9627   3.9748   4.0076   4.0322   4.0662   4.1145
  4.1516   4.1597   4.1863   4.2051   4.2391   4.2535   4.3022   4.3115
  4.3562   4.3664   4.3768   4.4124   4.4324   4.4674   4.4788   4.5572
  4.5764   4.5966   4.6227   4.6642   4.7099   4.7180   4.7885   4.8454
  4.8839   4.9095   4.9838   5.0236   5.0506   5.0580   5.1299   5.1421
  5.1673   5.2079   5.2135   5.2355   5.2407   5.2494   5.2596   5.2739
  5.2842   5.2928   5.3000   5.3152   5.3283   5.3320   5.3469   5.3609
  5.3774   5.3973   5.4017   5.4288   5.4334   5.4614   5.4886   5.5092
  5.5254   5.5390   5.5754   5.5925   5.6078   5.6256   5.6319   5.6502
  5.6696   5.7074   5.7128   5.7340   5.7596   5.7998   5.8302   5.8680
  5.9254   5.9825   6.0238   6.0530   6.0828   6.1379   6.1664   6.2390
  6.4882   6.4959   6.4970   6.5837   6.5944   6.7517   6.8176   6.8451
  6.9501   6.9689   7.0060   7.0242   7.0494   7.0892   7.0959   7.1195
  7.1343   7.1519   7.2149   7.2475   7.2694   7.2725   7.2974   7.3061
  7.3153   7.3292   7.3690   7.4046   7.4117   7.4276   7.4482   7.4689
  7.4920   7.5124   7.5819   7.5979   7.6644   7.6903   7.7688   7.7871
  7.8400   7.8581   7.8684   7.9132   8.0025   8.0338   8.0836   8.2048
 24.6288  24.7849  24.8523  50.4354  50.4935  50.5358  50.5877  50.6207
 50.6413  50.6837
 --------------------------------------------------------------
 
          Ground-State Mulliken Net Atomic Charges

     Atom                 Charge (a.u.)    Spin (a.u.)
  --------------------------------------------------------
      1 C                    -0.116645       0.004644
      2 O                    -0.415019       0.000260
      3 C                     0.159178      -0.003350
      4 O                    -0.372777       0.002550
      5 C                    -0.484999       0.005191
      6 O                     0.075942       0.317961
      7 O                    -0.219433       0.662764
      8 H                     0.300507       0.000170
      9 H                     0.341393       0.000006
     10 H                     0.297031       0.009236
     11 H                     0.304917       0.000736
     12 O                    -0.449570       0.000417
     13 H                     0.351331       0.000047
     14 O                    -0.164671      -0.002040
     15 O                    -0.278022       0.002434
     16 H                     0.326836      -0.001247
     17 H                     0.344001       0.000221
  --------------------------------------------------------
  Sum of atomic charges =     0.000000
  Sum of spin   charges =     1.000000

 -----------------------------------------------------------------
                    Cartesian Multipole Moments
 -----------------------------------------------------------------
    Charge (ESU x 10^10)
                 0.0000
    Dipole Moment (Debye)
         X      -2.1188      Y       3.6543      Z      -0.7755
       Tot       4.2947
    Quadrupole Moments (Debye-Ang)
        XX     -69.1340     XY      14.0073     YY     -61.3769
        XZ      -1.2717     YZ      -7.8017     ZZ     -61.5461
    Octopole Moments (Debye-Ang^2)
       XXX    -660.4447    XXY      78.2243    XYY    -217.9154
       YYY      65.4935    XXZ     -24.5777    XYZ     -38.2542
       YYZ       7.2242    XZZ    -227.6642    YZZ      25.4368
       ZZZ      -0.2470
    Hexadecapole Moments (Debye-Ang^3)
      XXXX   -5004.0392   XXXY     376.3785   XXYY    -965.8013
      XYYY     119.1754   YYYY    -529.5287   XXXZ    -286.5318
      XXYZ    -219.9340   XYYZ     -14.3646   YYYZ    -143.2246
      XXZZ   -1015.6970   XYZZ      38.3955   YYZZ    -205.9076
      XZZZ     -66.8669   YZZZ    -142.2297   ZZZZ    -540.1053
 -----------------------------------------------------------------
 Calculating analytic gradient of the SCF energy
 Gradient of CDS energy
            1           2           3           4           5           6
    1  -0.0018190   0.0021255  -0.0001076   0.0001003  -0.0003433   0.0000982
    2  -0.0027087  -0.0006888  -0.0024840   0.0025702   0.0008148  -0.0001997
    3  -0.0001377  -0.0007419   0.0028944  -0.0031411   0.0001358   0.0000879
            7           8           9          10          11          12
    1   0.0000408   0.0002156  -0.0005062  -0.0000555   0.0002131  -0.0001068
    2   0.0001480   0.0000950   0.0000951  -0.0003014  -0.0000919   0.0034100
    3  -0.0000593  -0.0000613  -0.0000506   0.0001902  -0.0002647   0.0007508
           13          14          15          16          17
    1  -0.0000599  -0.0000764  -0.0001952   0.0000822   0.0003945
    2  -0.0004807  -0.0000164  -0.0001891  -0.0002198   0.0002474
    3   0.0000977  -0.0000356   0.0001400   0.0003894  -0.0001940
 Gradient of SCF Energy
            1           2           3           4           5           6
    1   0.0006339   0.0086561  -0.0006748  -0.0054005   0.0112358  -0.0013092
    2  -0.0016931  -0.0009317   0.0049376  -0.0064219  -0.0134311   0.0028994
    3   0.0080787   0.0134623  -0.0041488  -0.0051108   0.0062139   0.0001733
            7           8           9          10          11          12
    1   0.0026011  -0.0028240  -0.0103424  -0.0068782  -0.0025395   0.0037846
    2   0.0009129   0.0064063   0.0010077   0.0022973   0.0082610  -0.0023871
    3   0.0028282  -0.0050369  -0.0120118   0.0063189  -0.0108082  -0.0061890
           13          14          15          16          17
    1  -0.0021522  -0.0006654  -0.0079308   0.0036722   0.0101333
    2  -0.0022649  -0.0057981  -0.0102814   0.0036885   0.0127986
    3   0.0035606   0.0013059  -0.0075722   0.0065742   0.0023616
 Max gradient component =       1.346E-02
 RMS gradient           =       6.464E-03
 Computing fast CPCM-SWIG gradient
 Updating gradient with PCM contributions...
 -- total gradient after adding PCM contribution --
---------------------------------------------------
  Atom         X              Y              Z     
---------------------------------------------------
   1       0.000977       0.000801       0.000055
   2       0.000233       0.000257       0.000033
   3      -0.000249      -0.000073      -0.000758
   4      -0.002285      -0.002303       0.000059
   5      -0.001332      -0.000504      -0.000070
   6      -0.000285       0.002169      -0.000165
   7       0.001585      -0.000179       0.002216
   8      -0.000277       0.000248      -0.000058
   9      -0.000655      -0.000300      -0.000321
  10       0.000064       0.000295      -0.000063
  11      -0.000035      -0.000018       0.000215
  12      -0.000451      -0.000654      -0.000843
  13       0.000062      -0.000804       0.000872
  14      -0.000686      -0.001011       0.000613
  15       0.000845       0.000798      -0.000787
  16       0.001084       0.000798       0.000733
  17       0.001404       0.000479      -0.001731
---------------------------------------------------
 Number of fixed atoms: 0
 Gradient time:  CPU 279.11 s  wall 23.43 s
 Geometry Optimization Parameters
   NAtoms,    NIC,     NZ,  NCons,   NDum,   NFix, NCnnct, MaxDiis
       17     108       0       0       0       0       0       0

 Cartesian Hessian Update
 Hessian updated using BFGS update


** GEOMETRY OPTIMIZATION IN DELOCALIZED INTERNAL COORDINATES **
   Searching for a Minimum

   Optimization Cycle:   2

                       Coordinates (Angstroms)
     ATOM                X               Y               Z
      1  C         2.4188786364   -0.9696160096   -0.9244011067
      2  O         1.1840699279   -0.6204843759   -0.3479275826
      3  C         3.5022536585   -0.5510334459    0.0789725110
      4  O         3.4506332595   -1.4406048977    1.1494139692
      5  C         3.3099030872    0.9068892713    0.4934745936
      6  O         4.5066163119    1.4537491686    1.1017657962
      7  O         4.8208110218    0.8394946343    2.2122650779
      8  H         2.5689107514   -0.4470291180   -1.8667834098
      9  H         0.5046251561   -0.6897525316   -1.0294494094
     10  H         2.4972165386    0.9933777348    1.2078442856
     11  H         3.1326694461    1.5466725642   -0.3649465234
     12  O         2.5003495342   -2.3411830920   -1.2124330999
     13  H         2.4957700754   -2.8296268425   -0.3767059471
     14  O         4.8004814092   -0.7736650499   -0.4901427376
     15  O         4.9715315656    0.0856041982   -1.6213360830
     16  H         3.9456144729   -1.0552481191    1.8896125565
     17  H         5.6576966474    0.6985496111   -1.3153750903
   Point Group: c1    Number of degrees of freedom:    45


   Energy is   -644.936041341

 Hessian updated using BFGS update

 43 Hessian modes will be used to form the next step
  Hessian Eigenvalues:
     0.004655    0.005279    0.005739    0.009119    0.011942    0.014495
     0.015123    0.016389    0.050587    0.051147    0.056247    0.058894
     0.062589    0.063225    0.091238    0.094448    0.115135    0.136677
     0.140973    0.165647    0.172638    0.181027    0.189997    0.207528
     0.229406    0.249981    0.284460    0.290430    0.308393    0.333514
     0.346323    0.348246    0.382477    0.391010    0.404511    0.442338
     0.449752    0.462393    0.489478    0.520505    0.522935    0.529219
     0.622382

 Minimum search - taking simple RFO step
 Searching for Lamda that Minimizes Along All modes
 Value Taken    Lamda =  -0.00089565
 Step Taken.  Stepsize is  0.267874

                             Maximum     Tolerance    Cnvgd?
         Gradient           0.004470      0.000300      NO
         Displacement       0.172925      0.001200      NO
         Energy change     -0.000449      0.000001      NO


 New Cartesian Coordinates Obtained by Inverse Iteration

 Displacement from previous Coordinates is:  0.461967
 ----------------------------------------------------------------
             Standard Nuclear Orientation (Angstroms)
    I     Atom           X                Y                Z
 ----------------------------------------------------------------
    1      C       2.4266958129    -0.9742172029    -0.9224144541
    2      O       1.1927608852    -0.6140019747    -0.3531547229
    3      C       3.5131100134    -0.5620135705     0.0800618925
    4      O       3.4589114165    -1.4383107268     1.1588608294
    5      C       3.3372783287     0.9001993956     0.4721804844
    6      O       4.5382992208     1.4307452768     1.0773020770
    7      O       4.8174572435     0.8408072544     2.2047496947
    8      H       2.5828257011    -0.4536697800    -1.8618071866
    9      H       0.5159650414    -0.6642480218    -1.0332956009
   10      H       2.5250311288     1.0066282716     1.1807319910
   11      H       3.1730186496     1.5272635123    -0.3954597180
   12      O       2.4933511445    -2.3451327046    -1.2112588719
   13      H       2.4791114468    -2.8446421446    -0.3872363799
   14      O       4.8076891015    -0.7983322981    -0.4857058095
   15      O       4.9820914611     0.0591682542    -1.6106569348
   16      H       3.9438936192    -1.0579910499     1.9021430234
   17      H       5.4805412851     0.7938412094    -1.2311925137
 ----------------------------------------------------------------
 Nuclear Repulsion Energy =         634.89305401 hartrees
 There are       41 alpha and       40 beta electrons
 Discretize the solute cavity surface with Lebedev spheres
	Using 110 Lebedev grid points for each H atom
	Using 194 Lebedev grid points for other atoms
	Atomic van der Waals radii will be scaled by 1.20
 Remove points where switching function is < 1.0e-08
 Keep 1365 surface tesserae and discard 1345 interior tesserae
 Molecular Surface Area = 152.171 Angst**2
 Applying Cartesian multipole field
    Component          Value
    ---------          -----
     (2,0,0)        1.00000E-12
     (0,2,0)        2.00000E-11
     (0,0,2)       -3.00000E-11
 Nucleus-field energy     =     0.0000000004 hartrees
 Requested basis set is 6-311++G(2df,2p)
 There are 122 shells and 410 basis functions
 A cutoff of  1.0D-12 yielded   6747 shell pairs
 There are     75832 function pairs (     94891 Cartesian)
 Smallest overlap matrix eigenvalue = 1.03E-05
 Guess MOs from SCF MO coefficient file

 -----------------------------------------------------------------------
  General SCF calculation program by
  Eric Jon Sundstrom, Paul Horn, Yuezhi Mao, Dmitri Zuev, Alec White,
  David Stuck, Shaama M.S., Shane Yost, Joonho Lee, David Small,
  Daniel Levine, Susi Lehtola, Hugh Burton, Evgeny Epifanovsky,
  Bang C. Huynh
 -----------------------------------------------------------------------
 Exchange:     0.1500 Hartree-Fock + 1.0000 wB97M-V + LR-HF
 Correlation:  1.0000 wB97M-V
 Using SG-2 standard quadrature grid
 Nonlocal Correlation:  VV10 with C = 0.0100 and b = 6.00 and scale = 1.00000
 Grid used for NLC:  SG-1 standard quadrature
 
 Citation of the SMD model:
 Marenich, A.V.; Cramer, C.J.; Truhlar, D.G.
 J. Phys. Chem. B 2009, 113, 6378-6396.
 iSolventCode=           1
 Solvent: water                                                           
 
 vradii
            1           2           3           4           5           6
    1   1.8500000   1.5200000   1.8500000   1.5200000   1.8500000   1.5200000
            7           8           9          10          11          12
    1   1.5200000   1.2000000   1.2000000   1.2000000   1.2000000   1.5200000
           13          14          15          16          17
    1   1.2000000   1.5200000   1.5200000   1.2000000   1.2000000
 -------------------------------------------------------
 OpenMP BLAS3 based DFT computing Module                
 Release: version 1.0, May 2013, Q-Chem Inc. Pittsburgh 
 -------------------------------------------------------
 A unrestricted SCF calculation will be
 performed using Roothaan-Hall, DIIS, GDM
 SCF converges when RMS gradient is below 1.0e-07
 ---------------------------------------
  Cycle       Energy         DIIS error
 ---------------------------------------
    1    -644.8872791684      3.93e-04  Roothaan Step
 ---------------------------------------
  Cycle       Energy         DIIS error
 ---------------------------------------
    1    -644.9317933802      2.68e-04  
    2    -644.9375732140      2.17e-04  Done DIIS. Switching to GDM
 ---------------------------------------
  Cycle       Energy        RMS Gradient
 ---------------------------------------
    1    -644.9375732140      1.65e-02   Normal BFGS step
    2    -644.9368823175      2.68e-02  Line search: overstep
    3    -644.9401606688      4.28e-03   Normal BFGS step
    4    -644.9403383124      1.33e-03   Normal BFGS step
    5    -644.9403993368      1.25e-03   Normal BFGS step
    6    -644.9404075323      1.14e-03   Normal BFGS step
    7    -644.9404108903      9.67e-04   Normal BFGS step
    8    -644.9404144567      6.26e-04   Normal BFGS step
    9    -644.9404166806      2.86e-04   Normal BFGS step
   10    -644.9404175103      2.83e-04   Normal BFGS step
   11    -644.9404179277      1.53e-04   Normal BFGS step
   12    -644.9404180504      2.58e-05   Normal BFGS step
   13    -644.9404180843      1.77e-05   Normal BFGS step
   14    -644.9404180895      1.34e-05   Normal BFGS step
   15    -644.9404180907      6.19e-06   Normal BFGS step
   16    -644.9404180911      3.39e-06   Normal BFGS step
   17    -644.9404180911      1.51e-06   Normal BFGS step
   18    -644.9404180911      2.60e-07   Normal BFGS step
   19    -644.9404180911      1.00e-07   Normal BFGS step
   20    -644.9404180911      5.05e-08  Convergence criterion met
 ---------------------------------------
 SCF time:   CPU 2251.86s  wall 157.00s 
<S^2> =          0.753923767
(3)  G-ENP(liq) elect-nuc-pol free energy of system     -644.940418091 a.u.
(4)  G-CDS(liq) cavity-dispersion-solvent structure 
     free energy                                                2.7410 kcal/mol
(6)  G-S(liq) free energy of system                     -644.936050011 a.u.
 SCF   energy in the final basis set =     -644.9360500112
 Total energy in the final basis set =     -644.9360500112
 
 --------------------------------------------------------------
 
                    Orbital Energies (a.u.)
 --------------------------------------------------------------
 
 Alpha MOs
 -- Occupied --
-19.4746 -19.4253 -19.4117 -19.4024 -19.3633 -19.3508 -19.3495 -10.4749
-10.4534 -10.4093  -1.3558  -1.2871  -1.2162  -1.1880  -1.1415  -1.0487
 -1.0279  -0.8864  -0.8114  -0.7471  -0.7025  -0.6741  -0.6617  -0.6529
 -0.6369  -0.6239  -0.5867  -0.5819  -0.5762  -0.5588  -0.5334  -0.5112
 -0.4908  -0.4660  -0.4548  -0.4367  -0.4208  -0.4175  -0.4157  -0.4055
 -0.3863
 -- Virtual --
  0.0274   0.0378   0.0443   0.0481   0.0655   0.0708   0.0782   0.0937
  0.0976   0.1185   0.1273   0.1307   0.1369   0.1397   0.1474   0.1517
  0.1561   0.1712   0.1765   0.1895   0.1960   0.2054   0.2163   0.2274
  0.2414   0.2486   0.2507   0.2553   0.2628   0.2696   0.2711   0.2852
  0.2889   0.2962   0.3025   0.3078   0.3205   0.3225   0.3296   0.3358
  0.3406   0.3492   0.3582   0.3643   0.3668   0.3747   0.3772   0.3815
  0.3903   0.3979   0.4028   0.4104   0.4164   0.4259   0.4387   0.4461
  0.4521   0.4535   0.4650   0.4740   0.4899   0.4944   0.5383   0.5685
  0.5793   0.5944   0.6173   0.6283   0.6439   0.6551   0.6601   0.6793
  0.6804   0.6973   0.7137   0.7375   0.7541   0.7552   0.7685   0.7804
  0.8027   0.8265   0.8533   0.8731   0.9036   0.9157   0.9429   0.9550
  0.9653   1.0006   1.0265   1.0472   1.0581   1.0652   1.0870   1.0973
  1.1169   1.1211   1.1282   1.1383   1.1539   1.1582   1.1762   1.1797
  1.1869   1.1930   1.2004   1.2075   1.2155   1.2306   1.2375   1.2535
  1.2643   1.2768   1.2852   1.2947   1.3036   1.3250   1.3446   1.3568
  1.3650   1.3899   1.4015   1.4092   1.4295   1.4464   1.4656   1.4819
  1.4854   1.5038   1.5188   1.5365   1.5534   1.5658   1.5750   1.5999
  1.6245   1.6412   1.6540   1.6812   1.6915   1.6995   1.7207   1.7324
  1.7661   1.7840   1.7956   1.8342   1.8544   1.8848   1.9356   1.9392
  1.9555   1.9667   1.9859   2.0122   2.0484   2.0686   2.0978   2.1236
  2.1570   2.1715   2.1936   2.2259   2.2418   2.2649   2.3180   2.3386
  2.3501   2.3593   2.3889   2.4013   2.4525   2.4653   2.4813   2.4981
  2.5329   2.5539   2.5906   2.6565   2.7014   2.7072   2.7999   2.8127
  2.8229   2.8500   2.8742   2.8985   2.9521   3.0174   3.0699   3.1172
  3.1589   3.1738   3.2194   3.2426   3.2685   3.3001   3.3269   3.3602
  3.3797   3.4171   3.4249   3.4502   3.5110   3.5313   3.5597   3.5998
  3.6270   3.6532   3.6607   3.6871   3.7050   3.7270   3.7410   3.7615
  3.8063   3.8257   3.8331   3.8425   3.8669   3.8814   3.9029   3.9311
  3.9410   3.9597   3.9903   4.0233   4.0368   4.0691   4.1150   4.1580
  4.1753   4.1909   4.2146   4.2487   4.2622   4.3078   4.3180   4.3606
  4.3746   4.3826   4.4172   4.4350   4.4702   4.4873   4.5627   4.5786
  4.5855   4.6193   4.6575   4.7150   4.7227   4.7796   4.8513   4.8799
  4.8898   4.9578   5.0284   5.0418   5.0497   5.0782   5.0881   5.1098
  5.1976   5.2017   5.2087   5.2252   5.2290   5.2466   5.2569   5.2769
  5.2924   5.2960   5.3135   5.3224   5.3306   5.3411   5.3578   5.3755
  5.3936   5.4012   5.4217   5.4428   5.4668   5.4917   5.5108   5.5233
  5.5377   5.5675   5.5876   5.6047   5.6241   5.6379   5.6619   5.6785
  5.7062   5.7137   5.7371   5.7801   5.8026   5.8330   5.8621   5.9250
  5.9881   6.0376   6.0706   6.0952   6.1458   6.1707   6.2539   6.4642
  6.4942   6.5049   6.5871   6.5984   6.7565   6.8231   6.8563   6.8774
  6.9073   6.9640   7.0189   7.0393   7.0883   7.0932   7.1017   7.1218
  7.1491   7.2075   7.2375   7.2667   7.2787   7.2992   7.3098   7.3286
  7.3355   7.3699   7.4079   7.4177   7.4273   7.4299   7.4478   7.4894
  7.5026   7.5838   7.6052   7.6686   7.6911   7.7683   7.7831   7.8389
  7.8604   7.8728   7.9131   8.0136   8.0296   8.0748   8.2029  24.6437
 24.8000  24.8620  50.4283  50.4965  50.5323  50.5915  50.6238  50.6442
 50.6871
 
 Beta MOs
 -- Occupied --
-19.4640 -19.4117 -19.4068 -19.4023 -19.3632 -19.3508 -19.3495 -10.4745
-10.4534 -10.4097  -1.3302  -1.2866  -1.2161  -1.1877  -1.1414  -1.0472
 -0.9986  -0.8807  -0.8040  -0.7456  -0.6998  -0.6630  -0.6592  -0.6436
 -0.6218  -0.6106  -0.5820  -0.5758  -0.5566  -0.5471  -0.5323  -0.4920
 -0.4869  -0.4614  -0.4535  -0.4357  -0.4178  -0.4116  -0.4051  -0.3874
 -- Virtual --
 -0.0405   0.0275   0.0379   0.0445   0.0483   0.0658   0.0709   0.0789
  0.0940   0.0985   0.1191   0.1287   0.1313   0.1374   0.1400   0.1482
  0.1540   0.1568   0.1723   0.1769   0.1904   0.1993   0.2068   0.2180
  0.2284   0.2419   0.2501   0.2526   0.2559   0.2635   0.2718   0.2744
  0.2869   0.2929   0.2975   0.3030   0.3110   0.3211   0.3228   0.3313
  0.3368   0.3413   0.3509   0.3593   0.3660   0.3672   0.3754   0.3789
  0.3821   0.3911   0.3987   0.4039   0.4107   0.4183   0.4263   0.4388
  0.4468   0.4527   0.4541   0.4659   0.4750   0.4901   0.4947   0.5393
  0.5688   0.5800   0.5954   0.6174   0.6289   0.6442   0.6554   0.6601
  0.6795   0.6806   0.6977   0.7139   0.7383   0.7544   0.7555   0.7691
  0.7815   0.8036   0.8268   0.8545   0.8735   0.9042   0.9163   0.9436
  0.9557   0.9657   1.0017   1.0291   1.0482   1.0591   1.0671   1.0887
  1.0995   1.1199   1.1247   1.1305   1.1509   1.1576   1.1600   1.1794
  1.1821   1.1908   1.1953   1.2096   1.2172   1.2192   1.2333   1.2408
  1.2549   1.2686   1.2798   1.2863   1.2964   1.3075   1.3267   1.3474
  1.3610   1.3666   1.3916   1.4026   1.4115   1.4337   1.4491   1.4707
  1.4832   1.4867   1.5050   1.5208   1.5397   1.5599   1.5676   1.5775
  1.6028   1.6299   1.6449   1.6568   1.6838   1.6923   1.7156   1.7249
  1.7423   1.7701   1.7870   1.7993   1.8361   1.8607   1.8936   1.9379
  1.9422   1.9580   1.9685   1.9874   2.0128   2.0538   2.0698   2.1019
  2.1249   2.1636   2.1780   2.2022   2.2302   2.2437   2.2672   2.3272
  2.3449   2.3562   2.3616   2.3896   2.4027   2.4537   2.4669   2.4819
  2.4996   2.5362   2.5543   2.5913   2.6601   2.7020   2.7125   2.8015
  2.8130   2.8234   2.8505   2.8746   2.8996   2.9530   3.0179   3.0706
  3.1177   3.1593   3.1746   3.2199   3.2435   3.2689   3.3005   3.3278
  3.3604   3.3798   3.4176   3.4252   3.4508   3.5114   3.5318   3.5603
  3.5997   3.6271   3.6533   3.6605   3.6872   3.7051   3.7272   3.7421
  3.7623   3.8070   3.8257   3.8335   3.8429   3.8672   3.8818   3.9035
  3.9314   3.9414   3.9600   3.9902   4.0235   4.0369   4.0699   4.1153
  4.1583   4.1760   4.1913   4.2155   4.2491   4.2627   4.3083   4.3183
  4.3628   4.3750   4.3845   4.4187   4.4363   4.4710   4.4893   4.5641
  4.5812   4.6040   4.6251   4.6691   4.7191   4.7290   4.7878   4.8538
  4.8918   4.9065   4.9651   5.0364   5.0474   5.0557   5.1297   5.1406
  5.1673   5.2077   5.2174   5.2319   5.2431   5.2482   5.2584   5.2806
  5.2816   5.2959   5.3009   5.3230   5.3266   5.3396   5.3436   5.3628
  5.3812   5.3993   5.4100   5.4242   5.4501   5.4688   5.4924   5.5154
  5.5353   5.5403   5.5686   5.5909   5.6057   5.6258   5.6391   5.6643
  5.6787   5.7086   5.7201   5.7430   5.7834   5.8077   5.8342   5.8741
  5.9297   5.9890   6.0379   6.0714   6.0954   6.1461   6.1708   6.2542
  6.5030   6.5087   6.5135   6.5894   6.6098   6.7569   6.8276   6.8621
  6.9521   6.9725   7.0052   7.0334   7.0484   7.0889   7.0988   7.1261
  7.1392   7.1508   7.2256   7.2554   7.2756   7.2794   7.3083   7.3165
  7.3313   7.3432   7.3767   7.4098   7.4279   7.4336   7.4541   7.4672
  7.4944   7.5098   7.5846   7.6056   7.6687   7.6913   7.7721   7.7881
  7.8425   7.8617   7.8732   7.9132   8.0137   8.0414   8.0953   8.2040
 24.6436  24.8000  24.8621  50.4406  50.4971  50.5403  50.5927  50.6239
 50.6443  50.6873
 --------------------------------------------------------------
 
          Ground-State Mulliken Net Atomic Charges

     Atom                 Charge (a.u.)    Spin (a.u.)
  --------------------------------------------------------
      1 C                    -0.093493       0.003367
      2 O                    -0.414120       0.000245
      3 C                     0.144913      -0.001378
      4 O                    -0.376561       0.002860
      5 C                    -0.505561       0.005038
      6 O                     0.081510       0.316525
      7 O                    -0.215477       0.662950
      8 H                     0.303064       0.000202
      9 H                     0.340599      -0.000016
     10 H                     0.297241       0.008860
     11 H                     0.312493       0.000854
     12 O                    -0.449792       0.000464
     13 H                     0.350716       0.000059
     14 O                    -0.167917      -0.001445
     15 O                    -0.271142       0.001525
     16 H                     0.325322      -0.001049
     17 H                     0.338203       0.000941
  --------------------------------------------------------
  Sum of atomic charges =     0.000000
  Sum of spin   charges =     1.000000

 -----------------------------------------------------------------
                    Cartesian Multipole Moments
 -----------------------------------------------------------------
    Charge (ESU x 10^10)
                 0.0000
    Dipole Moment (Debye)
         X      -2.5098      Y       3.9109      Z      -0.6421
       Tot       4.6911
    Quadrupole Moments (Debye-Ang)
        XX     -73.8291     XY      15.0945     YY     -60.7246
        XZ       0.0916     YZ      -7.9202     ZZ     -61.7254
    Octopole Moments (Debye-Ang^2)
       XXX    -702.7824    XXY      83.0574    XYY    -215.6745
       YYY      66.9308    XXZ     -13.2321    XYZ     -38.2081
       YYZ       6.9974    XZZ    -229.9554    YZZ      25.9463
       ZZZ       0.9416
    Hexadecapole Moments (Debye-Ang^3)
      XXXX   -5336.8332   XXXY     395.1115   XXYY    -957.4690
      XYYY     127.2426   YYYY    -525.4366   XXXZ    -203.7582
      XXYZ    -217.2263   XYYZ     -16.0364   YYYZ    -141.9824
      XXZZ   -1033.6497   XYZZ      39.6332   YYZZ    -204.1731
      XZZZ     -61.1352   YZZZ    -141.2164   ZZZZ    -534.5189
 -----------------------------------------------------------------
 Calculating analytic gradient of the SCF energy
 Gradient of CDS energy
            1           2           3           4           5           6
    1  -0.0020005   0.0022885  -0.0001211   0.0001162  -0.0003529   0.0000939
    2  -0.0029078  -0.0007550  -0.0025373   0.0026149   0.0008219  -0.0002081
    3  -0.0001270  -0.0008106   0.0030266  -0.0032699   0.0001369   0.0000753
            7           8           9          10          11          12
    1   0.0000417   0.0002114  -0.0005046  -0.0000574   0.0002076  -0.0000842
    2   0.0001475   0.0000970   0.0001039  -0.0003000  -0.0001127   0.0036675
    3  -0.0000609  -0.0000559  -0.0000529   0.0001913  -0.0002481   0.0008085
           13          14          15          16          17
    1  -0.0000652  -0.0000542  -0.0001828   0.0000790   0.0003846
    2  -0.0004809  -0.0000116  -0.0001930  -0.0002152   0.0002689
    3   0.0000943  -0.0000347   0.0001201   0.0003913  -0.0001843
 Gradient of SCF Energy
            1           2           3           4           5           6
    1   0.0008303   0.0066982   0.0011114  -0.0011412   0.0129241  -0.0017257
    2  -0.0006376  -0.0023143   0.0076472  -0.0026589  -0.0148909  -0.0003421
    3   0.0075489   0.0090765  -0.0057026  -0.0026581   0.0072926   0.0027100
            7           8           9          10          11          12
    1   0.0007085  -0.0032813  -0.0082702  -0.0060886  -0.0018413   0.0030495
    2   0.0023834   0.0063132   0.0017852   0.0021340   0.0078519  -0.0025192
    3  -0.0015231  -0.0038466  -0.0090176   0.0058109  -0.0114011  -0.0016169
           13          14          15          16          17
    1  -0.0021013  -0.0002163  -0.0042682   0.0014652   0.0021469
    2  -0.0014561  -0.0045056  -0.0111848   0.0011216   0.0112729
    3  -0.0002293   0.0007834  -0.0062097   0.0045202   0.0044626
 Max gradient component =       1.489E-02
 RMS gradient           =       5.690E-03
 Computing fast CPCM-SWIG gradient
 Updating gradient with PCM contributions...
 -- total gradient after adding PCM contribution --
---------------------------------------------------
  Atom         X              Y              Z     
---------------------------------------------------
   1       0.001931       0.002097      -0.001237
   2      -0.001980      -0.000720      -0.004477
   3       0.000851       0.001746      -0.001505
   4       0.001977       0.001654       0.002685
   5      -0.000094      -0.000102      -0.001011
   6      -0.000276      -0.001064       0.001849
   7      -0.000303       0.001377      -0.002028
   8      -0.000780      -0.000279       0.001454
   9       0.001557       0.000120       0.002841
  10       0.001378      -0.000076      -0.000933
  11       0.000354      -0.001241       0.001236
  12      -0.001185      -0.001016       0.003937
  13       0.000161       0.000123      -0.003140
  14      -0.000434       0.000070       0.000577
  15       0.001233       0.002074       0.001291
  16      -0.001177      -0.001936      -0.001611
  17      -0.003213      -0.002827       0.000072
---------------------------------------------------
 Number of fixed atoms: 0
 Gradient time:  CPU 283.64 s  wall 24.29 s
 Geometry Optimization Parameters
   NAtoms,    NIC,     NZ,  NCons,   NDum,   NFix, NCnnct, MaxDiis
       17     108       0       0       0       0       0       0

 Cartesian Hessian Update
 Hessian updated using BFGS update


** GEOMETRY OPTIMIZATION IN DELOCALIZED INTERNAL COORDINATES **
   Searching for a Minimum

   Optimization Cycle:   3

                       Coordinates (Angstroms)
     ATOM                X               Y               Z
      1  C         2.4266958129   -0.9742172029   -0.9224144541
      2  O         1.1927608852   -0.6140019747   -0.3531547229
      3  C         3.5131100134   -0.5620135705    0.0800618925
      4  O         3.4589114165   -1.4383107268    1.1588608294
      5  C         3.3372783287    0.9001993956    0.4721804844
      6  O         4.5382992208    1.4307452768    1.0773020770
      7  O         4.8174572435    0.8408072544    2.2047496947
      8  H         2.5828257011   -0.4536697800   -1.8618071866
      9  H         0.5159650414   -0.6642480218   -1.0332956009
     10  H         2.5250311288    1.0066282716    1.1807319910
     11  H         3.1730186496    1.5272635123   -0.3954597180
     12  O         2.4933511445   -2.3451327046   -1.2112588719
     13  H         2.4791114468   -2.8446421446   -0.3872363799
     14  O         4.8076891015   -0.7983322981   -0.4857058095
     15  O         4.9820914611    0.0591682542   -1.6106569348
     16  H         3.9438936192   -1.0579910499    1.9021430234
     17  H         5.4805412851    0.7938412094   -1.2311925137
   Point Group: c1    Number of degrees of freedom:    45


   Energy is   -644.936050011

 Hessian updated using BFGS update

 44 Hessian modes will be used to form the next step
  Hessian Eigenvalues:
     0.004654    0.005251    0.008753    0.009949    0.013597    0.014429
     0.015121    0.016294    0.050948    0.052854    0.056079    0.058804
     0.062473    0.063414    0.091354    0.094403    0.115257    0.137634
     0.152103    0.160541    0.167184    0.175010    0.182534    0.190049
     0.207670    0.220971    0.249345    0.283050    0.290388    0.312464
     0.343480    0.347714    0.348800    0.374339    0.393926    0.418994
     0.442480    0.447947    0.462223    0.501302    0.521756    0.523000
     0.529288    0.622950

 Minimum search - taking simple RFO step
 Searching for Lamda that Minimizes Along All modes
 Value Taken    Lamda =  -0.00068670
 Step Taken.  Stepsize is  0.156383

                             Maximum     Tolerance    Cnvgd?
         Gradient           0.006836      0.000300      NO
         Displacement       0.102733      0.001200      NO
         Energy change     -0.000009      0.000001      NO


 New Cartesian Coordinates Obtained by Inverse Iteration

 Displacement from previous Coordinates is:  0.279332
 ----------------------------------------------------------------
             Standard Nuclear Orientation (Angstroms)
    I     Atom           X                Y                Z
 ----------------------------------------------------------------
    1      C       2.4175839062    -0.9751135834    -0.9215693201
    2      O       1.1870369246    -0.6238160493    -0.3382648724
    3      C       3.5056405043    -0.5539532385     0.0742637553
    4      O       3.4590585017    -1.4309912994     1.1520903770
    5      C       3.3230450261     0.9063834859     0.4742535770
    6      O       4.5238863437     1.4245063989     1.0909976137
    7      O       4.8002189584     0.8006837469     2.2033004846
    8      H       2.5660672221    -0.4551409080    -1.8651084991
    9      H       0.5075039145    -0.6779942454    -1.0196137981
   10      H       2.5062655011     1.0052228073     1.1822662727
   11      H       3.1630008096     1.5445974588    -0.3890351401
   12      O       2.5007395316    -2.3451089695    -1.2076288505
   13      H       2.4971999465    -2.8304490315    -0.3718804952
   14      O       4.8018877569    -0.7818670504    -0.4951349590
   15      O       4.9779235065     0.0854790590    -1.6144950847
   16      H       3.9424382016    -1.0371414590     1.8929104509
   17      H       5.5885349449     0.7507965778    -1.2635037120
 ----------------------------------------------------------------
 Nuclear Repulsion Energy =         635.19163500 hartrees
 There are       41 alpha and       40 beta electrons
 Discretize the solute cavity surface with Lebedev spheres
	Using 110 Lebedev grid points for each H atom
	Using 194 Lebedev grid points for other atoms
	Atomic van der Waals radii will be scaled by 1.20
 Remove points where switching function is < 1.0e-08
 Keep 1363 surface tesserae and discard 1347 interior tesserae
 Molecular Surface Area = 152.533 Angst**2
 Applying Cartesian multipole field
    Component          Value
    ---------          -----
     (2,0,0)        1.00000E-12
     (0,2,0)        2.00000E-11
     (0,0,2)       -3.00000E-11
 Nucleus-field energy     =     0.0000000003 hartrees
 Requested basis set is 6-311++G(2df,2p)
 There are 122 shells and 410 basis functions
 A cutoff of  1.0D-12 yielded   6746 shell pairs
 There are     75811 function pairs (     94866 Cartesian)
 Smallest overlap matrix eigenvalue = 1.07E-05
 Guess MOs from SCF MO coefficient file

 -----------------------------------------------------------------------
  General SCF calculation program by
  Eric Jon Sundstrom, Paul Horn, Yuezhi Mao, Dmitri Zuev, Alec White,
  David Stuck, Shaama M.S., Shane Yost, Joonho Lee, David Small,
  Daniel Levine, Susi Lehtola, Hugh Burton, Evgeny Epifanovsky,
  Bang C. Huynh
 -----------------------------------------------------------------------
 Exchange:     0.1500 Hartree-Fock + 1.0000 wB97M-V + LR-HF
 Correlation:  1.0000 wB97M-V
 Using SG-2 standard quadrature grid
 Nonlocal Correlation:  VV10 with C = 0.0100 and b = 6.00 and scale = 1.00000
 Grid used for NLC:  SG-1 standard quadrature
 
 Citation of the SMD model:
 Marenich, A.V.; Cramer, C.J.; Truhlar, D.G.
 J. Phys. Chem. B 2009, 113, 6378-6396.
 iSolventCode=           1
 Solvent: water                                                           
 
 vradii
            1           2           3           4           5           6
    1   1.8500000   1.5200000   1.8500000   1.5200000   1.8500000   1.5200000
            7           8           9          10          11          12
    1   1.5200000   1.2000000   1.2000000   1.2000000   1.2000000   1.5200000
           13          14          15          16          17
    1   1.2000000   1.5200000   1.5200000   1.2000000   1.2000000
 -------------------------------------------------------
 OpenMP BLAS3 based DFT computing Module                
 Release: version 1.0, May 2013, Q-Chem Inc. Pittsburgh 
 -------------------------------------------------------
 A unrestricted SCF calculation will be
 performed using Roothaan-Hall, DIIS, GDM
 SCF converges when RMS gradient is below 1.0e-07
 ---------------------------------------
  Cycle       Energy         DIIS error
 ---------------------------------------
    1    -644.8945257706      2.86e-04  Roothaan Step
 ---------------------------------------
  Cycle       Energy         DIIS error
[...]
     14 O                    -0.167724      -0.001646
     15 O                    -0.277819       0.001696
     16 H                     0.326452      -0.001371
     17 H                     0.342148       0.000637
  --------------------------------------------------------
  Sum of atomic charges =     0.000000
  Sum of spin   charges =     1.000000

 -----------------------------------------------------------------
                    Cartesian Multipole Moments
 -----------------------------------------------------------------
    Charge (ESU x 10^10)
                 0.0000
    Dipole Moment (Debye)
         X      -2.4036      Y       3.9970      Z      -0.6841
       Tot       4.7139
    Quadrupole Moments (Debye-Ang)
        XX     -72.1593     XY      15.3446     YY     -61.1794
        XZ      -0.4446     YZ      -7.8459     ZZ     -61.7369
    Octopole Moments (Debye-Ang^2)
       XXX    -685.8253    XXY      84.9448    XYY    -216.8359
       YYY      68.1343    XXZ     -17.9560    XYZ     -37.7113
       YYZ       7.2839    XZZ    -229.6664    YZZ      26.2058
       ZZZ       0.6810
    Hexadecapole Moments (Debye-Ang^3)
      XXXX   -5193.8908   XXXY     409.7396   XXYY    -960.4712
      XYYY     130.3041   YYYY    -527.4218   XXXZ    -237.2563
      XXYZ    -215.1219   XYYZ     -14.6383   YYYZ    -142.0062
      XXZZ   -1030.0062   XYZZ      41.4611   YYZZ    -205.3031
      XZZZ     -61.3569   YZZZ    -140.5693   ZZZZ    -539.7291
 -----------------------------------------------------------------
 Calculating analytic gradient of the SCF energy
 Gradient of CDS energy
            1           2           3           4           5           6
    1  -0.0018801   0.0021936  -0.0000832   0.0000807  -0.0003596   0.0000953
    2  -0.0029269  -0.0007227  -0.0025740   0.0026443   0.0008241  -0.0002080
    3  -0.0001440  -0.0007858   0.0030483  -0.0032910   0.0001448   0.0000738
            7           8           9          10          11          12
    1   0.0000422   0.0002209  -0.0005028  -0.0000587   0.0002233  -0.0001255
    2   0.0001494   0.0000873   0.0001099  -0.0003006  -0.0001005   0.0036522
    3  -0.0000611  -0.0000621  -0.0000508   0.0001861  -0.0002569   0.0008020
           13          14          15          16          17
    1  -0.0000629  -0.0000623  -0.0001903   0.0000760   0.0003932
    2  -0.0004795  -0.0000139  -0.0001859  -0.0002117   0.0002564
    3   0.0000969  -0.0000309   0.0001302   0.0003890  -0.0001886
 Gradient of SCF Energy
            1           2           3           4           5           6
    1  -0.0007912   0.0087284  -0.0001931  -0.0024449   0.0130814  -0.0012157
    2  -0.0026221  -0.0021190   0.0059433  -0.0044790  -0.0143933   0.0006527
    3   0.0085504   0.0137536  -0.0037091  -0.0053106   0.0073611   0.0004803
            7           8           9          10          11          12
    1   0.0010517  -0.0026289  -0.0098122  -0.0074975  -0.0023642   0.0042066
    2   0.0010129   0.0064698   0.0020742   0.0021157   0.0089682  -0.0017566
    3   0.0005151  -0.0052584  -0.0120363   0.0067282  -0.0121050  -0.0052949
           13          14          15          16          17
    1  -0.0022379   0.0001554  -0.0071617   0.0021201   0.0070037
    2  -0.0013760  -0.0048155  -0.0124067   0.0032700   0.0134617
    3   0.0026587   0.0005349  -0.0073996   0.0059896   0.0045421
 Max gradient component =       1.439E-02
 RMS gradient           =       6.567E-03
 Computing fast CPCM-SWIG gradient
 Updating gradient with PCM contributions...
 -- total gradient after adding PCM contribution --
---------------------------------------------------
  Atom         X              Y              Z     
---------------------------------------------------
   1       0.000007       0.000019      -0.000020
   2      -0.000028      -0.000012      -0.000009
   3      -0.000057      -0.000054       0.000018
   4       0.000040       0.000051      -0.000020
   5       0.000003       0.000011       0.000025
   6       0.000012      -0.000011      -0.000035
   7      -0.000003      -0.000001      -0.000009
   8      -0.000012      -0.000011       0.000015
   9       0.000002      -0.000002       0.000016
  10       0.000003      -0.000011      -0.000006
  11       0.000010      -0.000004      -0.000003
  12      -0.000015       0.000005       0.000018
  13       0.000009      -0.000003      -0.000003
  14       0.000027       0.000029      -0.000034
  15       0.000003      -0.000003       0.000053
  16       0.000001      -0.000005       0.000015
  17      -0.000002       0.000003      -0.000020
---------------------------------------------------
 Number of fixed atoms: 0
 Gradient time:  CPU 282.36 s  wall 23.63 s
 Geometry Optimization Parameters
   NAtoms,    NIC,     NZ,  NCons,   NDum,   NFix, NCnnct, MaxDiis
       17     108       0       0       0       0       0       0

 Cartesian Hessian Update
 Hessian updated using BFGS update


** GEOMETRY OPTIMIZATION IN DELOCALIZED INTERNAL COORDINATES **
   Searching for a Minimum

   Optimization Cycle:   9

                       Coordinates (Angstroms)
     ATOM                X               Y               Z
      1  C         2.4200687798   -0.9790920545   -0.9215201904
      2  O         1.1894954774   -0.6310284867   -0.3364635883
      3  C         3.5099240149   -0.5590161174    0.0731646840
      4  O         3.4691958427   -1.4388063794    1.1486151357
      5  C         3.3288892639    0.9015954964    0.4763969840
      6  O         4.5315944667    1.4205087648    1.0903126444
      7  O         4.7949987196    0.8225013447    2.2203492668
      8  H         2.5653014436   -0.4572620950   -1.8647448283
      9  H         0.5134035831   -0.6553808589   -1.0232298307
     10  H         2.5131001386    1.0010085408    1.1855068429
     11  H         3.1676008269    1.5391252468   -0.3870791947
     12  O         2.5035408365   -2.3493948663   -1.2096186970
     13  H         2.4917489919   -2.8365485078   -0.3745673766
     14  O         4.8053734977   -0.7846505609   -0.5022874195
     15  O         4.9755281516    0.0808429593   -1.6235385318
     16  H         3.9212700478   -1.0301944876    1.9016960222
     17  H         5.5669974174    0.7618857620   -1.2691441228
   Point Group: c1    Number of degrees of freedom:    45


   Energy is   -644.936390905

 Hessian updated using BFGS update

 45 Hessian modes will be used to form the next step
  Hessian Eigenvalues:
     0.003290    0.004694    0.006705    0.010162    0.013559    0.014594
     0.014986    0.015752    0.052504    0.055901    0.058982    0.059095
     0.063350    0.063679    0.091917    0.100278    0.115351    0.137436
     0.159581    0.160265    0.164612    0.170051    0.183437    0.184217
     0.191582    0.209148    0.230097    0.283834    0.292456    0.302346
     0.337806    0.347160    0.348491    0.349338    0.391703    0.408692
     0.442132    0.447009    0.454287    0.470675    0.508059    0.521125
     0.523289    0.529205    0.626121

 Minimum search - taking simple RFO step
 Searching for Lamda that Minimizes Along All modes
 Value Taken    Lamda =  -0.00000016
 Step Taken.  Stepsize is  0.002413

                             Maximum     Tolerance    Cnvgd?
         Gradient           0.000066      0.000300     YES
         Displacement       0.000791      0.001200     YES
         Energy change     -0.000000      0.000001     YES

 Final energy is   -644.936390905226     


 ******************************
 **  OPTIMIZATION CONVERGED  **
 ******************************

                       Coordinates (Angstroms)
     ATOM                X               Y               Z
      1  C         2.4200687798   -0.9790920545   -0.9215201904
      2  O         1.1894954774   -0.6310284867   -0.3364635883
      3  C         3.5099240149   -0.5590161174    0.0731646840
      4  O         3.4691958427   -1.4388063794    1.1486151357
      5  C         3.3288892639    0.9015954964    0.4763969840
      6  O         4.5315944667    1.4205087648    1.0903126444
      7  O         4.7949987196    0.8225013447    2.2203492668
      8  H         2.5653014436   -0.4572620950   -1.8647448283
      9  H         0.5134035831   -0.6553808589   -1.0232298307
     10  H         2.5131001386    1.0010085408    1.1855068429
     11  H         3.1676008269    1.5391252468   -0.3870791947
     12  O         2.5035408365   -2.3493948663   -1.2096186970
     13  H         2.4917489919   -2.8365485078   -0.3745673766
     14  O         4.8053734977   -0.7846505609   -0.5022874195
     15  O         4.9755281516    0.0808429593   -1.6235385318
     16  H         3.9212700478   -1.0301944876    1.9016960222
     17  H         5.5669974174    0.7618857620   -1.2691441228

Z-matrix Print:
$molecule
0 2
O 
O  1 1.426617
H  2 0.969149 1 102.222707
C  1 1.435355 2 109.109566 3 104.065373 0
O  4 1.390066 1 103.716903 2 -179.457748 0
H  5 0.968744 4 108.711359 1 82.551730 0
C  4 1.526026 1 111.313045 2 -57.123932 0
H  7 1.085380 4 111.691901 1 74.808452 0
H  7 1.085464 4 110.452973 1 -161.464278 0
O  7 1.446604 4 110.906415 1 -41.327489 0
O  10 1.305365 7 111.766014 4 -65.047765 0
C  4 1.534160 1 109.765505 2 65.451506 0
H  12 1.087691 4 109.634819 1 -55.158296 0
O  12 1.402747 4 111.000135 1 62.123171 0
H  14 0.966834 12 108.306352 4 53.603860 0
O  12 1.406325 4 106.505977 1 -175.364362 0
H  16 0.964023 12 108.122850 4 164.631837 0
$end

 
 --------------------------------------------------------------
 
                    Orbital Energies (a.u.)
 --------------------------------------------------------------
 
 Alpha MOs
 -- Occupied --
-19.4746 -19.4257 -19.4106 -19.4018 -19.3634 -19.3515 -19.3498 -10.4744
-10.4533 -10.4098  -1.3544  -1.2846  -1.2161  -1.1875  -1.1414  -1.0477
 -1.0273  -0.8846  -0.8109  -0.7458  -0.7003  -0.6732  -0.6615  -0.6516
 -0.6353  -0.6227  -0.5871  -0.5814  -0.5746  -0.5600  -0.5332  -0.5096
 -0.4902  -0.4667  -0.4547  -0.4379  -0.4212  -0.4181  -0.4136  -0.4054
 -0.3858
 -- Virtual --
  0.0274   0.0377   0.0441   0.0480   0.0657   0.0702   0.0784   0.0936
  0.0973   0.1186   0.1278   0.1304   0.1366   0.1397   0.1475   0.1512
  0.1554   0.1712   0.1764   0.1890   0.1957   0.2053   0.2155   0.2267
  0.2416   0.2485   0.2513   0.2546   0.2623   0.2688   0.2701   0.2853
  0.2889   0.2969   0.3024   0.3074   0.3188   0.3213   0.3287   0.3373
  0.3403   0.3486   0.3593   0.3646   0.3685   0.3744   0.3771   0.3809
  0.3908   0.3964   0.4027   0.4116   0.4163   0.4255   0.4334   0.4432
  0.4518   0.4578   0.4642   0.4718   0.4922   0.4947   0.5395   0.5662
  0.5792   0.5944   0.6140   0.6263   0.6463   0.6534   0.6606   0.6765
  0.6813   0.6925   0.7144   0.7402   0.7537   0.7576   0.7702   0.7839
  0.8069   0.8291   0.8548   0.8739   0.8957   0.9165   0.9385   0.9545
  0.9614   1.0021   1.0268   1.0470   1.0575   1.0671   1.0870   1.0950
  1.1168   1.1210   1.1292   1.1413   1.1525   1.1566   1.1760   1.1825
  1.1899   1.1964   1.2007   1.2033   1.2140   1.2294   1.2369   1.2521
  1.2609   1.2749   1.2827   1.2984   1.3029   1.3249   1.3420   1.3558
  1.3628   1.3860   1.4007   1.4130   1.4262   1.4528   1.4672   1.4761
  1.4836   1.5025   1.5177   1.5342   1.5538   1.5627   1.5709   1.5971
  1.6260   1.6405   1.6579   1.6774   1.6916   1.7027   1.7269   1.7347
  1.7594   1.7841   1.7950   1.8373   1.8485   1.8840   1.9333   1.9366
  1.9605   1.9678   1.9875   2.0094   2.0514   2.0715   2.0965   2.1236
  2.1556   2.1704   2.1966   2.2251   2.2458   2.2661   2.3129   2.3370
  2.3505   2.3577   2.3929   2.4029   2.4547   2.4620   2.4872   2.4987
  2.5286   2.5511   2.5868   2.6598   2.7017   2.7101   2.7984   2.8049
  2.8184   2.8478   2.8767   2.8985   2.9429   3.0156   3.0715   3.1134
  3.1514   3.1766   3.2174   3.2445   3.2642   3.3008   3.3252   3.3603
  3.3790   3.4171   3.4221   3.4522   3.5075   3.5351   3.5587   3.5998
  3.6243   3.6570   3.6599   3.6869   3.7043   3.7269   3.7400   3.7606
  3.8083   3.8259   3.8310   3.8440   3.8656   3.8805   3.8995   3.9269
  3.9395   3.9584   3.9821   4.0142   4.0384   4.0686   4.1141   4.1555
  4.1673   4.1871   4.2062   4.2411   4.2580   4.3022   4.3117   4.3561
  4.3684   4.3778   4.4116   4.4335   4.4641   4.4843   4.5574   4.5749
  4.5827   4.6149   4.6568   4.7133   4.7176   4.7833   4.8447   4.8771
  4.8899   4.9681   5.0222   5.0387   5.0493   5.0789   5.0898   5.1143
  5.1977   5.2044   5.2102   5.2232   5.2299   5.2506   5.2589   5.2743
  5.2922   5.2963   5.3122   5.3195   5.3268   5.3437   5.3581   5.3738
  5.3957   5.4001   5.4220   5.4405   5.4609   5.4925   5.5080   5.5177
  5.5397   5.5671   5.5873   5.6022   5.6197   5.6325   5.6551   5.6726
  5.7046   5.7099   5.7305   5.7726   5.7988   5.8255   5.8550   5.9227
  5.9835   6.0302   6.0654   6.0882   6.1450   6.1724   6.2504   6.4540
  6.4889   6.4980   6.5843   6.5888   6.7544   6.8188   6.8550   6.8750
  6.9135   6.9635   7.0171   7.0423   7.0856   7.0921   7.0996   7.1179
  7.1470   7.2011   7.2355   7.2657   7.2723   7.2907   7.3030   7.3174
  7.3314   7.3716   7.4050   7.4159   7.4245   7.4288   7.4468   7.4914
  7.5036   7.5820   7.6025   7.6636   7.6915   7.7663   7.7805   7.8385
  7.8584   7.8683   7.9116   8.0111   8.0278   8.0684   8.2012  24.6356
 24.7915  24.8588  50.4273  50.4936  50.5297  50.5901  50.6215  50.6422
 50.6867
 
 Beta MOs
 -- Occupied --
-19.4640 -19.4106 -19.4072 -19.4017 -19.3633 -19.3515 -19.3498 -10.4741
-10.4533 -10.4102  -1.3286  -1.2840  -1.2160  -1.1873  -1.1413  -1.0460
 -0.9980  -0.8790  -0.8035  -0.7444  -0.6976  -0.6614  -0.6589  -0.6423
 -0.6218  -0.6091  -0.5820  -0.5751  -0.5573  -0.5455  -0.5323  -0.4914
 -0.4861  -0.4618  -0.4528  -0.4371  -0.4179  -0.4127  -0.4018  -0.3877
 -- Virtual --
 -0.0410   0.0275   0.0377   0.0443   0.0482   0.0660   0.0704   0.0790
  0.0939   0.0982   0.1192   0.1292   0.1310   0.1371   0.1399   0.1484
  0.1534   0.1562   0.1724   0.1767   0.1901   0.1994   0.2066   0.2171
  0.2275   0.2420   0.2503   0.2530   0.2552   0.2631   0.2705   0.2741
  0.2870   0.2925   0.2982   0.3029   0.3104   0.3196   0.3216   0.3302
  0.3386   0.3413   0.3503   0.3599   0.3661   0.3691   0.3750   0.3790
  0.3815   0.3916   0.3975   0.4037   0.4119   0.4181   0.4260   0.4336
  0.4440   0.4522   0.4584   0.4654   0.4724   0.4925   0.4950   0.5404
  0.5665   0.5799   0.5954   0.6142   0.6269   0.6465   0.6537   0.6606
  0.6768   0.6816   0.6929   0.7146   0.7410   0.7540   0.7578   0.7706
  0.7854   0.8075   0.8293   0.8560   0.8743   0.8963   0.9173   0.9388
  0.9550   0.9623   1.0032   1.0293   1.0479   1.0585   1.0689   1.0902
  1.0965   1.1184   1.1257   1.1317   1.1517   1.1571   1.1589   1.1789
  1.1859   1.1935   1.1987   1.2062   1.2152   1.2192   1.2325   1.2402
  1.2534   1.2655   1.2780   1.2839   1.3001   1.3066   1.3264   1.3452
  1.3594   1.3647   1.3879   1.4016   1.4152   1.4308   1.4559   1.4721
  1.4773   1.4849   1.5036   1.5194   1.5375   1.5575   1.5667   1.5736
  1.6001   1.6309   1.6459   1.6597   1.6805   1.6921   1.7181   1.7340
  1.7420   1.7629   1.7865   1.7989   1.8395   1.8554   1.8918   1.9368
  1.9396   1.9623   1.9699   1.9893   2.0099   2.0558   2.0729   2.1009
  2.1248   2.1629   2.1771   2.2052   2.2294   2.2470   2.2697   2.3224
  2.3426   2.3554   2.3613   2.3935   2.4037   2.4554   2.4641   2.4879
  2.5002   2.5318   2.5515   2.5876   2.6635   2.7024   2.7153   2.7990
  2.8062   2.8191   2.8480   2.8770   2.8995   2.9439   3.0161   3.0722
  3.1140   3.1519   3.1774   3.2179   3.2455   3.2646   3.3011   3.3262
  3.3605   3.3792   3.4176   3.4224   3.4527   3.5080   3.5357   3.5591
  3.5998   3.6242   3.6571   3.6597   3.6870   3.7044   3.7271   3.7412
  3.7615   3.8089   3.8259   3.8313   3.8444   3.8659   3.8808   3.9000
  3.9274   3.9397   3.9586   3.9822   4.0144   4.0384   4.0694   4.1144
  4.1558   4.1680   4.1875   4.2072   4.2416   4.2586   4.3025   4.3122
  4.3583   4.3688   4.3793   4.4132   4.4348   4.4650   4.4862   4.5589
  4.5773   4.6004   4.6217   4.6681   4.7171   4.7246   4.7919   4.8466
  4.8884   4.9085   4.9745   5.0296   5.0469   5.0539   5.1302   5.1438
  5.1685   5.2106   5.2171   5.2355   5.2426   5.2517   5.2574   5.2783
  5.2837   5.2959   5.3003   5.3193   5.3266   5.3357   5.3453   5.3638
  5.3806   5.4022   5.4067   5.4259   5.4452   5.4653   5.4931   5.5118
  5.5299   5.5405   5.5698   5.5909   5.6029   5.6209   5.6345   5.6577
  5.6729   5.7082   5.7151   5.7360   5.7752   5.8044   5.8273   5.8673
  5.9271   5.9844   6.0305   6.0663   6.0885   6.1454   6.1725   6.2506
  6.4953   6.5018   6.5052   6.5877   6.5990   6.7548   6.8231   6.8589
  6.9513   6.9771   7.0084   7.0291   7.0515   7.0864   7.0995   7.1210
  7.1365   7.1483   7.2173   7.2501   7.2723   7.2760   7.3010   7.3114
  7.3234   7.3377   7.3772   7.4080   7.4227   7.4356   7.4512   7.4682
  7.4954   7.5113   7.5828   7.6028   7.6637   7.6919   7.7700   7.7860
  7.8415   7.8600   7.8687   7.9117   8.0113   8.0395   8.0889   8.2022
 24.6354  24.7915  24.8589  50.4395  50.4944  50.5376  50.5913  50.6216
 50.6423  50.6869
 --------------------------------------------------------------
 
          Ground-State Mulliken Net Atomic Charges

     Atom                 Charge (a.u.)    Spin (a.u.)
  --------------------------------------------------------
      1 C                    -0.111835       0.004030
      2 O                    -0.415108       0.000247
      3 C                     0.180169      -0.002201
      4 O                    -0.379675       0.003454
      5 C                    -0.511346       0.005040
      6 O                     0.082295       0.318591
      7 O                    -0.217545       0.661330
      8 H                     0.299454       0.000191
      9 H                     0.341126      -0.000024
     10 H                     0.298820       0.008631
     11 H                     0.307359       0.000870
     12 O                    -0.448208       0.000461
     13 H                     0.351435       0.000065
     14 O                    -0.167724      -0.001646
     15 O                    -0.277819       0.001696
     16 H                     0.326452      -0.001371
     17 H                     0.342148       0.000637
  --------------------------------------------------------
  Sum of atomic charges =     0.000000
  Sum of spin   charges =     1.000000

 -----------------------------------------------------------------
                    Cartesian Multipole Moments
 -----------------------------------------------------------------
    Charge (ESU x 10^10)
                 0.0000
    Dipole Moment (Debye)
         X      -2.4036      Y       3.9970      Z      -0.6841
       Tot       4.7139
    Quadrupole Moments (Debye-Ang)
        XX     -72.1593     XY      15.3446     YY     -61.1794
        XZ      -0.4446     YZ      -7.8459     ZZ     -61.7369
    Octopole Moments (Debye-Ang^2)
       XXX    -685.8253    XXY      84.9448    XYY    -216.8359
       YYY      68.1343    XXZ     -17.9560    XYZ     -37.7113
       YYZ       7.2839    XZZ    -229.6664    YZZ      26.2058
       ZZZ       0.6810
    Hexadecapole Moments (Debye-Ang^3)
      XXXX   -5193.8908   XXXY     409.7396   XXYY    -960.4712
      XYYY     130.3041   YYYY    -527.4218   XXXZ    -237.2563
      XXYZ    -215.1219   XYYZ     -14.6383   YYYZ    -142.0062
      XXZZ   -1030.0062   XYZZ      41.4611   YYZZ    -205.3031
      XZZZ     -61.3569   YZZZ    -140.5693   ZZZZ    -539.7291
 -----------------------------------------------------------------
 Total job time:  1582.50s(wall), 22211.60s(cpu) 
 Mon Jun 24 14:12:20 2024

        *************************************************************
        *                                                           *
        *  Thank you very much for using Q-Chem.  Have a nice day.  *
        *                                                           *
        *************************************************************


