
Running Job 1 of 1 Q_in.in
qchem Q_in.in_197531.0 /scratch/ari.fischer/qChem2258026.hpc-mn1/qchem197531/ 0
/usr/local/qchem-5.4.1/exe/qcprog.exe_s Q_in.in_197531.0 /scratch/ari.fischer/qChem2258026.hpc-mn1/qchem197531/
                  Welcome to Q-Chem
     A Quantum Leap Into The Future Of Chemistry


 Q-Chem 5.4, Q-Chem, Inc., Pleasanton, CA (2021)

 License issued to: Nanyang Technological University (site)

 E. Epifanovsky,  A. T. B. Gilbert,  Xintian Feng,  Joonho Lee,  Yuezhi Mao,  
 N. Mardirossian,  P. Pokhilko,  A. White,  M. Wormit,  M. P. Coons,  
 A. L. Dempwolff,  Zhengting Gan,  D. Hait,  P. R. Horn,  L. D. Jacobson,  
 I. Kaliman,  J. Kussmann,  A. W. Lange,  Ka Un Lao,  D. S. Levine,  Jie Liu,  
 S. C. McKenzie,  A. F. Morrison,  K. Nanda,  F. Plasser,  D. R. Rehn,  
 M. L. Vidal,  Zhi-Qiang You,  Ying Zhu,  B. Alam,  B. Albrecht,  
 A. Aldossary,  E. Alguire,  J. H. Andersen,  D. Barton,  K. Begam,  A. Behn,  
 Y. A. Bernard,  E. J. Berquist,  H. Burton,  A. Carreras,  K. Carter-Fenk,  
 R. Chakraborty,  A. D. Chien,  K. D. Closser,  V. Cofer-Shabica,  
 S. Dasgupta,  Jia Deng,  M. de Wergifosse,  M. Diedenhofen,  Hainam Do,  
 S. Ehlert,  Po-Tung Fang,  S. Fatehi,  Qingguo Feng,  T. Friedhoff,  
 J. Gayvert,  Qinghui Ge,  G. Gidofalvi,  M. Goldey,  J. Gomes,  
 C. Gonzalez-Espinoza,  S. Gulania,  A. Gunina,  M. W. D. Hanson-Heine,  
 P. H. P. Harbach,  A. W. Hauser,  M. F. Herbst,  M. Hernandez Vera,  
 M. Hodecker,  Z. C. Holden,  S. Houck,  Xunkun Huang,  Kerwin Hui,  
 B. C. Huynh,  M. Ivanov,  Hyunjun Ji,  Hanjie Jiang,  B. Kaduk,  S. Kaehler,  
 K. Khistyaev,  Jaehoon Kim,  P. Klunzinger,  Z. Koczor-Benda,  
 Joong Hoon Koh,  D. Kosenkov,  L. Koulias,  T. Kowalczyk,  C. M. Krauter,  
 K. Kue,  A. Kunitsa,  T. Kus,  A. Landau,  K. V. Lawler,  D. Lefrancois,  
 S. Lehtola,  Rain Li,  Yi-Pei Li,  Jiashu Liang,  M. Liebenthal,  
 Hung-Hsuan Lin,  You-Sheng Lin,  Fenglai Liu,  Kuan-Yu Liu,  
 M. Loipersberger,  A. Luenser,  A. Manjanath,  P. Manohar,  E. Mansoor,  
 S. F. Manzer,  Shan-Ping Mao,  A. V. Marenich,  T. Markovich,  S. Mason,  
 S. A. Maurer,  P. F. McLaughlin,  M. F. S. J. Menger,  J.-M. Mewes,  
 S. A. Mewes,  P. Morgante,  J. W. Mullinax,  K. J. Oosterbaan,  G. Paran,  
 Alexander C. Paul,  Suranjan K. Paul,  F. Pavosevic,  Zheng Pei,  S. Prager,  
 E. I. Proynov,  E. Ramos,  B. Rana,  A. E. Rask,  A. Rettig,  R. M. Richard,  
 F. Rob,  E. Rossomme,  T. Scheele,  M. Scheurer,  M. Schneider,  
 N. Sergueev,  S. M. Sharada,  W. Skomorowski,  D. W. Small,  C. J. Stein,  
 Yu-Chuan Su,  E. J. Sundstrom,  Zhen Tao,  J. Thirman,  T. Tsuchimochi,  
 N. M. Tubman,  S. P. Veccham,  O. Vydrov,  J. Wenzel,  J. Witte,  A. Yamada,  
 Kun Yao,  S. Yeganeh,  S. R. Yost,  A. Zech,  Igor Ying Zhang,  Xing Zhang,  
 Yu Zhang,  D. Zuev,  A. Aspuru-Guzik,  A. T. Bell,  N. A. Besley,  
 K. B. Bravaya,  B. R. Brooks,  D. Casanova,  Jeng-Da Chai,  S. Coriani,  
 C. J. Cramer,  A. E. DePrince, III,  R. A. DiStasio Jr.,  A. Dreuw,  
 B. D. Dunietz,  T. R. Furlani,  W. A. Goddard III,  S. Grimme,  
 S. Hammes-Schiffer,  T. Head-Gordon,  W. J. Hehre,  Chao-Ping Hsu,  
 T.-C. Jagau,  Yousung Jung,  A. Klamt,  Jing Kong,  D. S. Lambrecht,  
 WanZhen Liang,  N. J. Mayhall,  C. W. McCurdy,  J. B. Neaton,  
 C. Ochsenfeld,  J. A. Parkhill,  R. Peverati,  V. A. Rassolov,  Yihan Shao,  
 L. V. Slipchenko,  T. Stauch,  R. P. Steele,  J. E. Subotnik,  
 A. J. W. Thom,  A. Tkatchenko,  D. G. Truhlar,  T. Van Voorhis,  
 T. A. Wesolowski,  K. B. Whaley,  H. L. Woodcock III,  P. M. Zimmerman,  
 S. Faraji,  P. M. W. Gill,  M. Head-Gordon,  J. M. Herbert,  A. I. Krylov

 Additional authors for Version 5.4.1: 
 S. Kotaru,  Shaozhi Li,  Xiangyuan Li,  F. Matz,  A. Molle,  Haisheng Ren,  
 Yingli Su,  Hung-Yi Tsai,  C. Utku,  Fang Wang

 Contributors to earlier versions of Q-Chem not listed above: 
 R. D. Adamson,  B. Austin,  R. Baer,  J. Baker,  G. J. O. Beran,  
 K. Brandhorst,  S. T. Brown,  E. F. C. Byrd,  A. K. Chakraborty,  
 G. K. L. Chan,  Chun-Min Chang,  Yunqing Chen,  C.-L. Cheng,  
 Siu Hung Chien,  D. M. Chipman,  D. L. Crittenden,  H. Dachsel,  
 R. J. Doerksen,  A. D. Dutoi,  R. G. Edgar,  J. Fosso-Tande,  
 L. Fusti-Molnar,  D. Ghosh,  A. Ghysels,  A. Golubeva-Zadorozhnaya,  
 J. Gonthier,  M. S. Gordon,  S. R. Gwaltney,  G. Hawkins,  J. E. Herr,  
 A. Heyden,  S. Hirata,  E. G. Hohenstein,  G. Kedziora,  F. J. Keil,  
 C. Kelley,  Jihan Kim,  R. A. King,  R. Z. Khaliullin,  P. P. Korambath,  
 W. Kurlancheek,  A. Laurent,  A. M. Lee,  M. S. Lee,  S. V. Levchenko,  
 Ching Yeh Lin,  D. Liotard,  E. Livshits,  R. C. Lochan,  I. Lotan,  
 L. A. Martinez-Martinez,  P. E. Maslen,  N. Nair,  D. P. O'Neill,  
 D. Neuhauser,  E. Neuscamman,  C. M. Oana,  R. Olivares-Amaya,  R. Olson,  
 T. M. Perrine,  B. Peters,  P. A. Pieniazek,  A. Prociuk,  Y. M. Rhee,  
 J. Ritchie,  M. A. Rohrdanz,  E. Rosta,  N. J. Russ,  H. F. Schaefer III,  
 M. W. Schmidt,  N. E. Schultz,  S. Sharma,  N. Shenvi,  C. D. Sherrill,  
 A. C. Simmonett,  A. Sodt,  T. Stein,  D. Stuck,  K. S. Thanthiriwatte,  
 V. Vanovschi,  L. Vogt,  Tao Wang,  A. Warshel,  M. A. Watson,  
 C. F. Williams,  Q. Wu,  X. Xu,  Jun Yang,  W. Zhang,  Yan Zhao

 Please cite Q-Chem as follows:
 Y. Shao et al., Mol. Phys. 113, 184-215 (2015)
 DOI: 10.1080/00268976.2014.952696

 Q-Chem 5.4.1 for Intel X86 EM64T Linux

 Parts of Q-Chem use Armadillo 9.800.1 (Horizon Scraper).
 http://arma.sourceforge.net/

 Q-Chem begins on Thu Aug  1 13:50:05 2024  

 Host: 
0

     Scratch files written to /scratch/ari.fischer/qChem2258026.hpc-mn1/qchem197531//
 Aug1521 |scratch|qcdevops|jenkins|workspace|build_RNUM 8249   
 Processing $rem in /usr/local/qchem-5.4.1/config/preferences:
 Processing $rem in /home/ari.fischer/.qchemrc:
 Symmetry turned off for PCM/SM12/SMD calculation


!!********************************************.
!!******************Warning*******************.
!!Desired Analytical derivatives not available.
!!Finite difference job might take a long time.
!!********************************************.
!!********************************************.


 2-order derivative to be evaluated numerically with 1-order analytical derivatives

 Checking the input file for inconsistencies... 	...done.

--------------------------------------------------------------
User input:
--------------------------------------------------------------
$molecule
0 1
O    5.3553525    1.0751051    3.5189426
O    4.1226244    0.8278882    4.1993936
C    4.3442397    1.0398193    5.5787294
O    4.4676786    2.4004135    5.8955078
H    3.4384076    0.6613776    6.0462678
H    5.2230884    0.4785626    5.8933545
H    5.3793334    2.6709720    5.7392102
H    5.2827491    2.0123188    3.2853665
$end

$rem
BASIS = 6-311++G(2df,2p)
GUI = 2
JOB_TYPE = Frequency
METHOD = wB97M-V
SOLVENT_METHOD = SMD
SCF_ALGORITHM = DIIS_GDM
MAX_SCF_CYCLES = 400
SCF_CONVERGENCE = 7
THRESH = 12
$end
--------------------------------------------------------------
 ----------------------------------------------------------------
             Standard Nuclear Orientation (Angstroms)
    I     Atom           X                Y                Z
 ----------------------------------------------------------------
    1      O       5.3553525000     1.0751051000     3.5189426000
    2      O       4.1226244000     0.8278882000     4.1993936000
    3      C       4.3442397000     1.0398193000     5.5787294000
    4      O       4.4676786000     2.4004135000     5.8955078000
    5      H       3.4384076000     0.6613776000     6.0462678000
    6      H       5.2230884000     0.4785626000     5.8933545000
    7      H       5.3793334000     2.6709720000     5.7392102000
    8      H       5.2827491000     2.0123188000     3.2853665000
 ----------------------------------------------------------------
 Nuclear Repulsion Energy =         134.11853558 hartrees
 There are       17 alpha and       17 beta electrons
 Requested basis set is 6-311++G(2df,2p)
 There are 56 shells and 176 basis functions

 Total QAlloc Memory Limit 288000 MB
 Mega-Array Size       188 MB
 MEM_STATIC part       192 MB
 
 Citation of the SMD model:
 Marenich, A.V.; Cramer, C.J.; Truhlar, D.G.
 J. Phys. Chem. B 2009, 113, 6378-6396.
 iSolventCode=           1
 Solvent: water                                                           
 
 vradii
            1           2           3           4           5           6
    1   1.5200000   1.5200000   1.8500000   1.5200000   1.2000000   1.2000000
            7           8
    1   1.2000000   1.2000000
 Changing PCM_VDW_RADII to SMD_RADIUS
 Discretize the solute cavity surface with Lebedev spheres
	Using 110 Lebedev grid points for each H atom
	Using 194 Lebedev grid points for other atoms
	Atomic van der Waals radii will be scaled by 1.20
 Remove points where switching function is < 1.0e-08
 Keep 700 surface tesserae and discard 516 interior tesserae
 Molecular Surface Area = 82.313 Angst**2

                       Distance Matrix (Angstroms)
             O (  1)   O (  2)   C (  3)   O (  4)   H (  5)   H (  6)
   O (  2)  1.429597
   C (  3)  2.294845  1.413009
   O (  4)  2.862249  2.338526  1.402427
   H (  5)  3.198941  1.976568  1.087356  2.026419
   H (  6)  2.451773  2.050013  1.089208  2.064984  1.800525
   H (  7)  2.734402  2.710592  1.938513  0.963714  2.810684  2.203368
   H (  8)  0.968607  1.893201  2.661967  2.761846  3.584580  3.026148
             H (  7)
   H (  8)  2.542538
 
 A cutoff of  1.0D-12 yielded   1569 shell pairs
 There are     15668 function pairs (     19502 Cartesian)
 Smallest overlap matrix eigenvalue = 5.74E-04
 Guess from superposition of atomic densities
 Warning:  Energy on first SCF cycle will be non-variational
 SAD guess density has 34.000000 electrons

 -----------------------------------------------------------------------
  General SCF calculation program by
  Eric Jon Sundstrom, Paul Horn, Yuezhi Mao, Dmitri Zuev, Alec White,
  David Stuck, Shaama M.S., Shane Yost, Joonho Lee, David Small,
  Daniel Levine, Susi Lehtola, Hugh Burton, Evgeny Epifanovsky,
  Bang C. Huynh
 -----------------------------------------------------------------------
 Exchange:     0.1500 Hartree-Fock + 1.0000 wB97M-V + LR-HF
 Correlation:  1.0000 wB97M-V
 Using SG-2 standard quadrature grid
 Nonlocal Correlation:  VV10 with C = 0.0100 and b = 6.00 and scale = 1.00000
 Grid used for NLC:  SG-1 standard quadrature
 using 16 threads for integral computing
 -------------------------------------------------------
 OpenMP Integral computing Module                
 Release: version 1.0, May 2013, Q-Chem Inc. Pittsburgh 
 -------------------------------------------------------
 
 Citation of the SMD model:
 Marenich, A.V.; Cramer, C.J.; Truhlar, D.G.
 J. Phys. Chem. B 2009, 113, 6378-6396.
 iSolventCode=           1
 Solvent: water                                                           
 
 vradii
            1           2           3           4           5           6
    1   1.5200000   1.5200000   1.8500000   1.5200000   1.2000000   1.2000000
            7           8
    1   1.2000000   1.2000000
 -------------------------------------------------------
 OpenMP BLAS3 based DFT computing Module                
 Release: version 1.0, May 2013, Q-Chem Inc. Pittsburgh 
 -------------------------------------------------------
 A restricted SCF calculation will be
 performed using DIIS, GDM
 SCF converges when RMS gradient is below 1.0e-07
 ---------------------------------------
  Cycle       Energy         DIIS error
 ---------------------------------------
    1    -266.5374158396      3.50e-02  
    2    -266.0517622232      4.45e-03  Done DIIS. Switching to GDM
 ---------------------------------------
  Cycle       Energy        RMS Gradient
 ---------------------------------------
    1    -266.0517622232      3.48e-02   Normal BFGS step
    2    -266.0701293383      4.54e-02   Normal BFGS step
    3    -266.1105409476      3.89e-03   Normal BFGS step
    4    -266.1110946531      3.01e-03   Normal BFGS step
    5    -266.1113881368      1.21e-03   Normal BFGS step
    6    -266.1114116910      4.56e-04   Normal BFGS step
    7    -266.1114196516      1.41e-04   Normal BFGS step
    8    -266.1114199980      1.04e-04   Normal BFGS step
    9    -266.1114201886      9.04e-06   Normal BFGS step
   10    -266.1114201910      4.07e-06   Normal BFGS step
   11    -266.1114201914      6.57e-07   Normal BFGS step
   12    -266.1114201914      2.51e-07   Normal BFGS step
   13    -266.1114201914      9.24e-08  Convergence criterion met
 ---------------------------------------
 SCF time:   CPU 186.73s  wall 12.00s 
(3)  G-ENP(liq) elect-nuc-pol free energy of system     -266.111420191 a.u.
(4)  G-CDS(liq) cavity-dispersion-solvent structure 
     free energy                                                2.2454 kcal/mol
(6)  G-S(liq) free energy of system                     -266.107841893 a.u.
 SCF   energy in the final basis set =     -266.1078418925
 Total energy in the final basis set =     -266.1078418925
 
 --------------------------------------------------------------
 
                    Orbital Energies (a.u.)
 --------------------------------------------------------------
 
 Alpha MOs
 -- Occupied --
-19.4038 -19.3954 -19.3487 -10.4374  -1.2751  -1.1696  -1.0439  -0.7895
 -0.6627  -0.6495  -0.6052  -0.5741  -0.5141  -0.4718  -0.4386  -0.4103
 -0.4053
 -- Virtual --
  0.0285   0.0460   0.0578   0.0636   0.0878   0.1078   0.1295   0.1513
  0.1558   0.2021   0.2120   0.2154   0.2425   0.2462   0.2660   0.2701
  0.2752   0.2819   0.2921   0.3015   0.3049   0.3214   0.3574   0.3759
  0.4012   0.4221   0.4370   0.5618   0.5893   0.6033   0.6145   0.6410
  0.6638   0.6871   0.7313   0.7553   0.8190   0.8437   0.8795   0.9370
  0.9869   1.0018   1.0397   1.0486   1.0800   1.1028   1.1320   1.1682
  1.1879   1.2026   1.2128   1.2308   1.2669   1.3229   1.3717   1.3939
  1.4059   1.4669   1.4954   1.5268   1.5559   1.6058   1.6398   1.6723
  1.7023   1.7830   1.8257   1.9306   1.9668   2.0227   2.0951   2.1578
  2.2381   2.3025   2.3079   2.3537   2.3789   2.4021   2.5918   2.6368
  2.7137   2.8007   2.8442   3.1271   3.1587   3.2080   3.2793   3.3100
  3.3861   3.4272   3.4923   3.4949   3.5337   3.7098   3.7400   3.7940
  3.8153   3.8310   3.8756   3.9062   4.0118   4.1480   4.2317   4.2434
  4.2620   4.3087   4.3919   4.4430   4.6546   4.7270   4.8212   4.9622
  5.0373   5.0828   5.1772   5.1995   5.2311   5.2475   5.2602   5.2830
  5.3612   5.3682   5.4340   5.4491   5.4689   5.5710   5.6015   5.6259
  5.6485   5.7493   5.8245   6.0093   6.0774   6.1414   6.2160   6.4932
  6.6874   6.8199   6.9915   7.0030   7.0460   7.1539   7.2016   7.2567
  7.2773   7.2844   7.3690   7.4075   7.4462   7.5754   7.6148   7.7110
  7.7920   7.9146   8.1300  24.7605  50.4658  50.4991  50.5868
 --------------------------------------------------------------
 
          Ground-State Mulliken Net Atomic Charges

     Atom                 Charge (a.u.)
  ----------------------------------------
      1 O                    -0.346516
      2 O                    -0.154473
      3 C                    -0.136045
      4 O                    -0.449936
      5 H                     0.184849
      6 H                     0.214969
      7 H                     0.339349
      8 H                     0.347804
  ----------------------------------------
  Sum of atomic charges =     0.000000

 -----------------------------------------------------------------
                    Cartesian Multipole Moments
 -----------------------------------------------------------------
    Charge (ESU x 10^10)
                 0.0000
    Dipole Moment (Debye)
         X       1.9207      Y       1.1779      Z       0.9929
       Tot       2.4622
    Quadrupole Moments (Debye-Ang)
        XX      -5.5811     XY      12.2413     YY     -20.9011
        XZ      14.2691     YZ       1.0406     ZZ     -15.3355
    Octopole Moments (Debye-Ang^2)
       XXX    -198.8045    XXY      58.7095    XYY     -75.9154
       YYY     -89.4026    XXZ       1.3627    XYZ      39.2478
       YYZ    -116.7865    XZZ     -19.5791    YZZ     -48.7339
       ZZZ    -295.7232
    Hexadecapole Moments (Debye-Ang^3)
      XXXX   -2262.0402   XXXY     150.5669   XXYY    -314.1950
      XYYY    -357.2247   YYYY    -328.3445   XXXZ    -771.4465
      XXYZ     193.1033   XYYZ    -427.1731   YYYZ    -495.8520
      XXZZ    -401.3031   XYZZ     -41.3445   YYZZ    -722.8203
      XZZZ   -1065.8584   YZZZ    -691.0737   ZZZZ   -3295.2944
 -----------------------------------------------------------------
 Calculating analytic gradient of the SCF energy
 Gradient of CDS energy
            1           2           3           4           5           6
    1  -0.0001649   0.0003586  -0.0003558  -0.0003110  -0.0001768   0.0002786
    2  -0.0002409   0.0003055   0.0026416  -0.0036589   0.0001137   0.0001894
    3   0.0001539   0.0006802   0.0011514  -0.0012178  -0.0002120  -0.0003662
            7           8
    1   0.0002728   0.0000985
    2   0.0003745   0.0002750
    3   0.0002308  -0.0004203
 Gradient of SCF Energy
            1           2           3           4           5           6
    1   0.0014648  -0.0032537   0.0002487  -0.0195921  -0.0035278   0.0063950
    2  -0.0175592  -0.0004189   0.0067839  -0.0024520  -0.0027946  -0.0026365
    3   0.0004113   0.0000145  -0.0069155   0.0055386   0.0027345   0.0036423
            7           8
    1   0.0164555   0.0018096
    2   0.0033608   0.0157166
    3  -0.0040815  -0.0013442
 Max gradient component =       1.959E-02
 RMS gradient           =       7.841E-03
 Computing fast CPCM-SWIG gradient
 Updating gradient with PCM contributions...
 -- total gradient after adding PCM contribution --
---------------------------------------------------
  Atom         X              Y              Z     
---------------------------------------------------
   1      -0.000111       0.000013       0.000039
   2       0.000104       0.000029      -0.000045
   3      -0.000015      -0.000066      -0.000012
   4       0.000012       0.000012       0.000037
   5       0.000014      -0.000011      -0.000020
   6       0.000007       0.000005      -0.000013
   7      -0.000006      -0.000007      -0.000001
   8      -0.000006       0.000025       0.000015
---------------------------------------------------
 Number of fixed atoms: 0
 Gradient time:  CPU 30.44 s  wall 3.03 s
 ######################################################
 ######################################################
 # Starting finite difference calculation for IDERIV  #
 Finite diff step size:  1.88973e-03 a.u.
 ----------------------------------------------------------------
             Standard Nuclear Orientation (Angstroms)
    I     Atom           X                Y                Z
 ----------------------------------------------------------------
    1      O       5.3563525000     1.0751051000     3.5189426000
    2      O       4.1226244000     0.8278882000     4.1993936000
    3      C       4.3442397000     1.0398193000     5.5787294000
    4      O       4.4676786000     2.4004135000     5.8955078000
    5      H       3.4384076000     0.6613776000     6.0462678000
    6      H       5.2230884000     0.4785626000     5.8933545000
    7      H       5.3793334000     2.6709720000     5.7392102000
    8      H       5.2827491000     2.0123188000     3.2853665000
 ----------------------------------------------------------------
 Nuclear Repulsion Energy =         134.10022371 hartrees
 There are       17 alpha and       17 beta electrons
 Discretize the solute cavity surface with Lebedev spheres
	Using 110 Lebedev grid points for each H atom
	Using 194 Lebedev grid points for other atoms
	Atomic van der Waals radii will be scaled by 1.20
 Remove points where switching function is < 1.0e-08
 Keep 700 surface tesserae and discard 516 interior tesserae
 Molecular Surface Area = 82.319 Angst**2

                       Distance Matrix (Angstroms)
             O (  1)   O (  2)   C (  3)   O (  4)   H (  5)   H (  6)
   O (  2)  1.430460
   C (  3)  2.295286  1.413009
   O (  4)  2.862559  2.338526  1.402427
   H (  5)  3.199540  1.976568  1.087356  2.026419
   H (  6)  2.451827  2.050013  1.089208  2.064984  1.800525
   H (  7)  2.734393  2.710592  1.938513  0.963714  2.810684  2.203368
   H (  8)  0.968682  1.893201  2.661967  2.761846  3.584580  3.026148
             H (  7)
   H (  8)  2.542538
 
 Requested basis set is 6-311++G(2df,2p)
 There are 56 shells and 176 basis functions
 A cutoff of  1.0D-12 yielded   1569 shell pairs
 There are     15668 function pairs (     19502 Cartesian)
 Smallest overlap matrix eigenvalue = 5.74E-04
 Guess MOs from SCF MO coefficient file

 -----------------------------------------------------------------------
  General SCF calculation program by
  Eric Jon Sundstrom, Paul Horn, Yuezhi Mao, Dmitri Zuev, Alec White,
  David Stuck, Shaama M.S., Shane Yost, Joonho Lee, David Small,
  Daniel Levine, Susi Lehtola, Hugh Burton, Evgeny Epifanovsky,
  Bang C. Huynh
 -----------------------------------------------------------------------
 Exchange:     0.1500 Hartree-Fock + 1.0000 wB97M-V + LR-HF
 Correlation:  1.0000 wB97M-V
 Using SG-2 standard quadrature grid
 Nonlocal Correlation:  VV10 with C = 0.0100 and b = 6.00 and scale = 1.00000
 Grid used for NLC:  SG-1 standard quadrature
 
 Citation of the SMD model:
 Marenich, A.V.; Cramer, C.J.; Truhlar, D.G.
 J. Phys. Chem. B 2009, 113, 6378-6396.
 iSolventCode=           1
 Solvent: water                                                           
 
 vradii
            1           2           3           4           5           6
    1   1.5200000   1.5200000   1.8500000   1.5200000   1.2000000   1.2000000
            7           8
    1   1.2000000   1.2000000
 -------------------------------------------------------
 OpenMP BLAS3 based DFT computing Module                
 Release: version 1.0, May 2013, Q-Chem Inc. Pittsburgh 
 -------------------------------------------------------
 A restricted SCF calculation will be
 performed using Roothaan-Hall, DIIS, GDM
 SCF converges when RMS gradient is below 1.0e-07
 ---------------------------------------
  Cycle       Energy         DIIS error
 ---------------------------------------
    1    -266.0850631091      8.05e-04  Roothaan Step
 ---------------------------------------
  Cycle       Energy         DIIS error
 ---------------------------------------
    1    -266.1072676176      8.51e-04  
    2    -266.1106083596      5.35e-04  Done DIIS. Switching to GDM
 ---------------------------------------
  Cycle       Energy        RMS Gradient
 ---------------------------------------
    1    -266.1106083596      5.25e-03   Normal BFGS step
    2    -266.1108380450      5.77e-03   Normal BFGS step
    3    -266.1114091315      5.20e-04   Normal BFGS step
    4    -266.1114161548      3.51e-04   Normal BFGS step
    5    -266.1114193834      9.31e-05   Normal BFGS step
    6    -266.1114195603      5.24e-05   Normal BFGS step
    7    -266.1114196280      1.54e-05   Normal BFGS step
    8    -266.1114196351      6.99e-06   Normal BFGS step
    9    -266.1114196366      3.24e-06   Normal BFGS step
   10    -266.1114196367      9.82e-07   Normal BFGS step
   11    -266.1114196367      3.17e-07   Normal BFGS step
   12    -266.1114196368      7.25e-08  Convergence criterion met
 ---------------------------------------
 SCF time:   CPU 208.71s  wall 13.00s 
(3)  G-ENP(liq) elect-nuc-pol free energy of system     -266.111419637 a.u.
(4)  G-CDS(liq) cavity-dispersion-solvent structure 
     free energy                                                2.2452 kcal/mol
(6)  G-S(liq) free energy of system                     -266.107841649 a.u.
 SCF   energy in the final basis set =     -266.1078416492
 Total energy in the final basis set =     -266.1078416492
 
 --------------------------------------------------------------
 
                    Orbital Energies (a.u.)
 --------------------------------------------------------------
 
 Alpha MOs
 -- Occupied --
-19.4038 -19.3954 -19.3487 -10.4374  -1.2748  -1.1696  -1.0440  -0.7895
 -0.6626  -0.6494  -0.6052  -0.5741  -0.5141  -0.4718  -0.4386  -0.4104
 -0.4054
 -- Virtual --
  0.0285   0.0460   0.0578   0.0636   0.0877   0.1078   0.1292   0.1512
  0.1558   0.2021   0.2120   0.2154   0.2425   0.2461   0.2659   0.2701
  0.2752   0.2819   0.2921   0.3015   0.3049   0.3214   0.3574   0.3759
  0.4012   0.4221   0.4371   0.5618   0.5892   0.6033   0.6145   0.6410
  0.6638   0.6871   0.7312   0.7552   0.8189   0.8437   0.8794   0.9370
  0.9870   1.0017   1.0398   1.0486   1.0800   1.1028   1.1320   1.1682
  1.1879   1.2026   1.2128   1.2308   1.2669   1.3229   1.3717   1.3939
  1.4059   1.4667   1.4954   1.5268   1.5559   1.6058   1.6398   1.6722
  1.7024   1.7831   1.8258   1.9304   1.9658   2.0225   2.0950   2.1577
  2.2380   2.3021   2.3077   2.3536   2.3789   2.4021   2.5918   2.6368
  2.7136   2.8007   2.8443   3.1271   3.1587   3.2080   3.2793   3.3099
  3.3861   3.4271   3.4922   3.4949   3.5336   3.7097   3.7400   3.7940
  3.8153   3.8310   3.8755   3.9062   4.0119   4.1480   4.2316   4.2433
  4.2620   4.3087   4.3918   4.4430   4.6539   4.7270   4.8214   4.9627
  5.0372   5.0829   5.1771   5.1994   5.2311   5.2475   5.2602   5.2831
  5.3613   5.3682   5.4338   5.4490   5.4689   5.5710   5.6015   5.6255
  5.6483   5.7490   5.8242   6.0088   6.0750   6.1411   6.2139   6.4933
  6.6874   6.8170   6.9913   7.0027   7.0458   7.1536   7.2015   7.2562
  7.2773   7.2844   7.3690   7.4069   7.4461   7.5744   7.6146   7.7104
  7.7916   7.9133   8.1306  24.7605  50.4659  50.4989  50.5868
 --------------------------------------------------------------
 
          Ground-State Mulliken Net Atomic Charges

     Atom                 Charge (a.u.)
  ----------------------------------------
      1 O                    -0.346533
      2 O                    -0.154624
      3 C                    -0.135962
      4 O                    -0.449936
      5 H                     0.184870
      6 H                     0.214996
      7 H                     0.339349
      8 H                     0.347839
  ----------------------------------------
  Sum of atomic charges =     0.000000

 -----------------------------------------------------------------
                    Cartesian Multipole Moments
 -----------------------------------------------------------------
    Charge (ESU x 10^10)
                -0.0000
    Dipole Moment (Debye)
         X       1.9189      Y       1.1775      Z       0.9933
       Tot       2.4608
    Quadrupole Moments (Debye-Ang)
        XX      -5.5983     XY      12.2372     YY     -20.9026
        XZ      14.2641     YZ       1.0390     ZZ     -15.3313
    Octopole Moments (Debye-Ang^2)
       XXX    -198.9506    XXY      58.6786    XYY     -75.9306
       YYY     -89.4058    XXZ       1.3044    XYZ      39.2318
       YYZ    -116.7924    XZZ     -19.5954    YZZ     -48.7400
       ZZZ    -295.6916
    Hexadecapole Moments (Debye-Ang^3)
      XXXX   -2263.2868   XXXY     150.3356   XXYY    -314.3149
      XYYY    -357.2612   YYYY    -328.3504   XXXZ    -771.9628
      XXYZ     192.9832   XYYZ    -427.2307   YYYZ    -495.8649
      XXZZ    -401.5529   XYZZ     -41.4134   YYZZ    -722.8443
      XZZZ   -1065.9049   YZZZ    -691.0946   ZZZZ   -3295.0763
 -----------------------------------------------------------------
 Calculating analytic gradient of the SCF energy
 Gradient of CDS energy
            1           2           3           4           5           6
    1  -0.0001647   0.0003586  -0.0003560  -0.0003110  -0.0001768   0.0002787
    2  -0.0002409   0.0003055   0.0026415  -0.0036589   0.0001137   0.0001895
    3   0.0001539   0.0006804   0.0011513  -0.0012178  -0.0002120  -0.0003662
            7           8
    1   0.0002728   0.0000983
    2   0.0003745   0.0002751
    3   0.0002307  -0.0004202
 Gradient of SCF Energy
            1           2           3           4           5           6
    1   0.0019523  -0.0036480   0.0002311  -0.0195830  -0.0035244   0.0064029
    2  -0.0176029  -0.0004480   0.0067807  -0.0024491  -0.0027940  -0.0026354
    3   0.0001936   0.0001914  -0.0068920   0.0055329   0.0027366   0.0036383
            7           8
    1   0.0164517   0.0017174
    2   0.0033620   0.0157866
    3  -0.0040786  -0.0013223
 Max gradient component =       1.958E-02
 RMS gradient           =       7.859E-03
 Computing fast CPCM-SWIG gradient
 Updating gradient with PCM contributions...
 -- total gradient after adding PCM contribution --
---------------------------------------------------
  Atom         X              Y              Z     
---------------------------------------------------
   1       0.000368      -0.000037      -0.000181
   2      -0.000296       0.000004       0.000136
   3      -0.000034      -0.000071       0.000013
   4       0.000017       0.000014       0.000033
   5       0.000021      -0.000009      -0.000019
   6       0.000014       0.000007      -0.000018
   7      -0.000006      -0.000005      -0.000000
   8      -0.000084       0.000098       0.000036
---------------------------------------------------
 Number of fixed atoms: 0
 Gradient time:  CPU 32.81 s  wall 2.69 s
 ----------------------------------------------------------------
             Standard Nuclear Orientation (Angstroms)
    I     Atom           X                Y                Z
 ----------------------------------------------------------------
    1      O       5.3543525000     1.0751051000     3.5189426000
    2      O       4.1226244000     0.8278882000     4.1993936000
    3      C       4.3442397000     1.0398193000     5.5787294000
    4      O       4.4676786000     2.4004135000     5.8955078000
    5      H       3.4384076000     0.6613776000     6.0462678000
    6      H       5.2230884000     0.4785626000     5.8933545000
    7      H       5.3793334000     2.6709720000     5.7392102000
    8      H       5.2827491000     2.0123188000     3.2853665000
 ----------------------------------------------------------------
 Nuclear Repulsion Energy =         134.13685474 hartrees
 There are       17 alpha and       17 beta electrons
 Discretize the solute cavity surface with Lebedev spheres
	Using 110 Lebedev grid points for each H atom
	Using 194 Lebedev grid points for other atoms
	Atomic van der Waals radii will be scaled by 1.20
 Remove points where switching function is < 1.0e-08
 Keep 700 surface tesserae and discard 516 interior tesserae
 Molecular Surface Area = 82.307 Angst**2

                       Distance Matrix (Angstroms)
             O (  1)   O (  2)   C (  3)   O (  4)   H (  5)   H (  6)
   O (  2)  1.428735
   C (  3)  2.294405  1.413009
   O (  4)  2.861939  2.338526  1.402427
   H (  5)  3.198341  1.976568  1.087356  2.026419
   H (  6)  2.451719  2.050013  1.089208  2.064984  1.800525
   H (  7)  2.734411  2.710592  1.938513  0.963714  2.810684  2.203368
   H (  8)  0.968532  1.893201  2.661967  2.761846  3.584580  3.026148
             H (  7)
   H (  8)  2.542538
 
 Requested basis set is 6-311++G(2df,2p)
 There are 56 shells and 176 basis functions
 A cutoff of  1.0D-12 yielded   1569 shell pairs
 There are     15668 function pairs (     19502 Cartesian)
 Smallest overlap matrix eigenvalue = 5.74E-04
 Guess MOs from SCF MO coefficient file

 -----------------------------------------------------------------------
  General SCF calculation program by
  Eric Jon Sundstrom, Paul Horn, Yuezhi Mao, Dmitri Zuev, Alec White,
  David Stuck, Shaama M.S., Shane Yost, Joonho Lee, David Small,
  Daniel Levine, Susi Lehtola, Hugh Burton, Evgeny Epifanovsky,
  Bang C. Huynh
 -----------------------------------------------------------------------
 Exchange:     0.1500 Hartree-Fock + 1.0000 wB97M-V + LR-HF
 Correlation:  1.0000 wB97M-V
 Using SG-2 standard quadrature grid
 Nonlocal Correlation:  VV10 with C = 0.0100 and b = 6.00 and scale = 1.00000
 Grid used for NLC:  SG-1 standard quadrature
 
 Citation of the SMD model:
 Marenich, A.V.; Cramer, C.J.; Truhlar, D.G.
 J. Phys. Chem. B 2009, 113, 6378-6396.
 iSolventCode=           1
 Solvent: water                                                           
 
 vradii
            1           2           3           4           5           6
    1   1.5200000   1.5200000   1.8500000   1.5200000   1.2000000   1.2000000
            7           8
    1   1.2000000   1.2000000
 -------------------------------------------------------
 OpenMP BLAS3 based DFT computing Module                
 Release: version 1.0, May 2013, Q-Chem Inc. Pittsburgh 
 -------------------------------------------------------
 A restricted SCF calculation will be
 performed using Roothaan-Hall, DIIS, GDM
 SCF converges when RMS gradient is below 1.0e-07
 ---------------------------------------
  Cycle       Energy         DIIS error
 ---------------------------------------
    1    -266.0850586319      8.05e-04  Roothaan Step
 ---------------------------------------
  Cycle       Energy         DIIS error
 ---------------------------------------
    1    -266.1072670445      8.51e-04  
    2    -266.1106099021      5.35e-04  Done DIIS. Switching to GDM
 ---------------------------------------
  Cycle       Energy        RMS Gradient
 ---------------------------------------
    1    -266.1106099021      5.23e-03   Normal BFGS step
    2    -266.1108399587      5.75e-03   Normal BFGS step
    3    -266.1114093958      5.19e-04   Normal BFGS step
    4    -266.1114164502      3.44e-04   Normal BFGS step
    5    -266.1114195873      9.31e-05   Normal BFGS step
    6    -266.1114197659      5.13e-05   Normal BFGS step
    7    -266.1114198311      1.56e-05   Normal BFGS step
    8    -266.1114198383      6.64e-06   Normal BFGS step
    9    -266.1114198398      3.06e-06   Normal BFGS step
   10    -266.1114198399      9.40e-07   Normal BFGS step
   11    -266.1114198399      3.31e-07   Normal BFGS step
   12    -266.1114198399      6.82e-08  Convergence criterion met
 ---------------------------------------
 SCF time:   CPU 205.21s  wall 13.00s 
(3)  G-ENP(liq) elect-nuc-pol free energy of system     -266.111419840 a.u.
(4)  G-CDS(liq) cavity-dispersion-solvent structure 
     free energy                                                2.2456 kcal/mol
(6)  G-S(liq) free energy of system                     -266.107841229 a.u.
 SCF   energy in the final basis set =     -266.1078412293
 Total energy in the final basis set =     -266.1078412293
 
 --------------------------------------------------------------
 
                    Orbital Energies (a.u.)
 --------------------------------------------------------------
 
 Alpha MOs
 -- Occupied --
-19.4037 -19.3953 -19.3487 -10.4374  -1.2754  -1.1696  -1.0437  -0.7896
 -0.6629  -0.6496  -0.6053  -0.5741  -0.5142  -0.4718  -0.4386  -0.4102
 -0.4053
 -- Virtual --
  0.0285   0.0460   0.0578   0.0636   0.0880   0.1078   0.1297   0.1514
  0.1558   0.2021   0.2120   0.2155   0.2425   0.2462   0.2660   0.2701
  0.2752   0.2819   0.2921   0.3015   0.3050   0.3214   0.3575   0.3759
  0.4012   0.4221   0.4370   0.5618   0.5893   0.6033   0.6145   0.6410
  0.6638   0.6871   0.7313   0.7553   0.8191   0.8437   0.8795   0.9370
  0.9869   1.0018   1.0397   1.0485   1.0800   1.1027   1.1320   1.1682
  1.1880   1.2026   1.2128   1.2308   1.2669   1.3229   1.3717   1.3939
  1.4059   1.4670   1.4954   1.5268   1.5559   1.6057   1.6398   1.6724
  1.7021   1.7829   1.8256   1.9308   1.9678   2.0229   2.0951   2.1579
  2.2382   2.3028   2.3082   2.3537   2.3789   2.4021   2.5918   2.6367
  2.7138   2.8008   2.8442   3.1272   3.1588   3.2080   3.2793   3.3101
  3.3862   3.4272   3.4924   3.4949   3.5338   3.7099   3.7400   3.7940
  3.8153   3.8310   3.8756   3.9063   4.0117   4.1480   4.2317   4.2435
  4.2620   4.3088   4.3919   4.4430   4.6553   4.7270   4.8210   4.9618
  5.0373   5.0828   5.1772   5.1996   5.2310   5.2475   5.2601   5.2830
  5.3612   5.3681   5.4342   5.4493   5.4689   5.5710   5.6015   5.6264
  5.6487   5.7496   5.8248   6.0098   6.0799   6.1417   6.2181   6.4932
  6.6874   6.8229   6.9916   7.0033   7.0461   7.1542   7.2018   7.2571
  7.2774   7.2845   7.3690   7.4080   7.4463   7.5763   7.6150   7.7117
  7.7924   7.9159   8.1294  24.7605  50.4657  50.4993  50.5868
 --------------------------------------------------------------
 
          Ground-State Mulliken Net Atomic Charges

     Atom                 Charge (a.u.)
  ----------------------------------------
      1 O                    -0.346500
      2 O                    -0.154323
      3 C                    -0.136128
      4 O                    -0.449937
      5 H                     0.184829
      6 H                     0.214943
      7 H                     0.339349
      8 H                     0.347768
  ----------------------------------------
  Sum of atomic charges =     0.000000

 -----------------------------------------------------------------
                    Cartesian Multipole Moments
 -----------------------------------------------------------------
    Charge (ESU x 10^10)
                 0.0000
    Dipole Moment (Debye)
         X       1.9224      Y       1.1783      Z       0.9924
       Tot       2.4636
    Quadrupole Moments (Debye-Ang)
        XX      -5.5640     XY      12.2454     YY     -20.8996
        XZ      14.2742     YZ       1.0422     ZZ     -15.3398
    Octopole Moments (Debye-Ang^2)
       XXX    -198.6585    XXY      58.7404    XYY     -75.9002
       YYY     -89.3994    XXZ       1.4209    XYZ      39.2637
       YYZ    -116.7805    XZZ     -19.5627    YZZ     -48.7278
       ZZZ    -295.7549
    Hexadecapole Moments (Debye-Ang^3)
      XXXX   -2260.7943   XXXY     150.7979   XXYY    -314.0751
      XYYY    -357.1882   YYYY    -328.3387   XXXZ    -770.9303
      XXYZ     193.2233   XYYZ    -427.1155   YYYZ    -495.8392
      XXZZ    -401.0533   XYZZ     -41.2756   YYZZ    -722.7964
      XZZZ   -1065.8118   YZZZ    -691.0529   ZZZZ   -3295.5125
 -----------------------------------------------------------------
 Calculating analytic gradient of the SCF energy
 Gradient of CDS energy
            1           2           3           4           5           6
    1  -0.0001651   0.0003585  -0.0003556  -0.0003110  -0.0001768   0.0002785
    2  -0.0002408   0.0003056   0.0026417  -0.0036589   0.0001137   0.0001894
    3   0.0001540   0.0006799   0.0011516  -0.0012178  -0.0002120  -0.0003661
            7           8
    1   0.0002727   0.0000987
    2   0.0003746   0.0002749
    3   0.0002308  -0.0004203
 Gradient of SCF Energy
            1           2           3           4           5           6
    1   0.0009757  -0.0028576   0.0002663  -0.0196013  -0.0035313   0.0063871
    2  -0.0175165  -0.0003895   0.0067872  -0.0024550  -0.0027953  -0.0026376
    3   0.0006306  -0.0001638  -0.0069389   0.0055443   0.0027325   0.0036462
            7           8
    1   0.0164593   0.0019017
    2   0.0033595   0.0156472
    3  -0.0040845  -0.0013664
 Max gradient component =       1.960E-02
 RMS gradient           =       7.826E-03
 Computing fast CPCM-SWIG gradient
 Updating gradient with PCM contributions...
 -- total gradient after adding PCM contribution --
---------------------------------------------------
  Atom         X              Y              Z     
---------------------------------------------------
   1      -0.000591       0.000062       0.000261
   2       0.000507       0.000054      -0.000228
   3       0.000005      -0.000061      -0.000036
   4       0.000008       0.000010       0.000040
   5       0.000007      -0.000013      -0.000021
   6      -0.000001       0.000004      -0.000009
   7      -0.000006      -0.000008      -0.000002
   8       0.000072      -0.000047      -0.000006
---------------------------------------------------
 Number of fixed atoms: 0
 Gradient time:  CPU 33.37 s  wall 2.68 s
 ----------------------------------------------------------------
             Standard Nuclear Orientation (Angstroms)
    I     Atom           X                Y                Z
 ----------------------------------------------------------------
    1      O       5.3553525000     1.0761051000     3.5189426000
    2      O       4.1226244000     0.8278882000     4.1993936000
    3      C       4.3442397000     1.0398193000     5.5787294000
    4      O       4.4676786000     2.4004135000     5.8955078000
    5      H       3.4384076000     0.6613776000     6.0462678000
    6      H       5.2230884000     0.4785626000     5.8933545000
    7      H       5.3793334000     2.6709720000     5.7392102000
    8      H       5.2827491000     2.0123188000     3.2853665000
 ----------------------------------------------------------------
 Nuclear Repulsion Energy =         134.12197903 hartrees
 There are       17 alpha and       17 beta electrons
 Discretize the solute cavity surface with Lebedev spheres
	Using 110 Lebedev grid points for each H atom
	Using 194 Lebedev grid points for other atoms
	Atomic van der Waals radii will be scaled by 1.20
 Remove points where switching function is < 1.0e-08
 Keep 700 surface tesserae and discard 516 interior tesserae
 Molecular Surface Area = 82.309 Angst**2

                       Distance Matrix (Angstroms)
             O (  1)   O (  2)   C (  3)   O (  4)   H (  5)   H (  6)
   O (  2)  1.429771
   C (  3)  2.294861  1.413009
   O (  4)  2.861786  2.338526  1.402427
   H (  5)  3.199070  1.976568  1.087356  2.026419
   H (  6)  2.452016  2.050013  1.089208  2.064984  1.800525
   H (  7)  2.733819  2.710592  1.938513  0.963714  2.810684  2.203368
   H (  8)  0.967639  1.893201  2.661967  2.761846  3.584580  3.026148
             H (  7)
   H (  8)  2.542538
 
 Requested basis set is 6-311++G(2df,2p)
 There are 56 shells and 176 basis functions
 A cutoff of  1.0D-12 yielded   1569 shell pairs
 There are     15668 function pairs (     19502 Cartesian)
 Smallest overlap matrix eigenvalue = 5.74E-04
 Guess MOs from SCF MO coefficient file

 -----------------------------------------------------------------------
  General SCF calculation program by
  Eric Jon Sundstrom, Paul Horn, Yuezhi Mao, Dmitri Zuev, Alec White,
  David Stuck, Shaama M.S., Shane Yost, Joonho Lee, David Small,
  Daniel Levine, Susi Lehtola, Hugh Burton, Evgeny Epifanovsky,
  Bang C. Huynh
 -----------------------------------------------------------------------
 Exchange:     0.1500 Hartree-Fock + 1.0000 wB97M-V + LR-HF
 Correlation:  1.0000 wB97M-V
 Using SG-2 standard quadrature grid
 Nonlocal Correlation:  VV10 with C = 0.0100 and b = 6.00 and scale = 1.00000
 Grid used for NLC:  SG-1 standard quadrature
 
 Citation of the SMD model:
 Marenich, A.V.; Cramer, C.J.; Truhlar, D.G.
 J. Phys. Chem. B 2009, 113, 6378-6396.
 iSolventCode=           1
 Solvent: water                                                           
 
 vradii
            1           2           3           4           5           6
    1   1.5200000   1.5200000   1.8500000   1.5200000   1.2000000   1.2000000
            7           8
    1   1.2000000   1.2000000
 -------------------------------------------------------
 OpenMP BLAS3 based DFT computing Module                
 Release: version 1.0, May 2013, Q-Chem Inc. Pittsburgh 
 -------------------------------------------------------
 A restricted SCF calculation will be
 performed using Roothaan-Hall, DIIS, GDM
 SCF converges when RMS gradient is below 1.0e-07
 ---------------------------------------
  Cycle       Energy         DIIS error
 ---------------------------------------
    1    -266.0850696197      8.05e-04  Roothaan Step
 ---------------------------------------
  Cycle       Energy         DIIS error
 ---------------------------------------
    1    -266.1072672398      8.51e-04  
    2    -266.1106079952      5.35e-04  Done DIIS. Switching to GDM
 ---------------------------------------
  Cycle       Energy        RMS Gradient
 ---------------------------------------
    1    -266.1106079952      5.27e-03   Normal BFGS step
    2    -266.1108357801      5.81e-03   Normal BFGS step
    3    -266.1114081449      5.22e-04   Normal BFGS step
    4    -266.1114151130      3.62e-04   Normal BFGS step
    5    -266.1114185095      8.98e-05   Normal BFGS step
    6    -266.1114186809      5.35e-05   Normal BFGS step
    7    -266.1114187513      1.50e-05   Normal BFGS step
    8    -266.1114187579      6.88e-06   Normal BFGS step
    9    -266.1114187595      3.19e-06   Normal BFGS step
   10    -266.1114187596      9.48e-07   Normal BFGS step
   11    -266.1114187596      2.93e-07   Normal BFGS step
   12    -266.1114187596      7.22e-08  Convergence criterion met
 ---------------------------------------
 SCF time:   CPU 205.16s  wall 13.00s 
(3)  G-ENP(liq) elect-nuc-pol free energy of system     -266.111418760 a.u.
(4)  G-CDS(liq) cavity-dispersion-solvent structure 
     free energy                                                2.2451 kcal/mol
(6)  G-S(liq) free energy of system                     -266.107840916 a.u.
 SCF   energy in the final basis set =     -266.1078409161
 Total energy in the final basis set =     -266.1078409161
 
 --------------------------------------------------------------
 
                    Orbital Energies (a.u.)
 --------------------------------------------------------------
 
 Alpha MOs
 -- Occupied --
-19.4038 -19.3953 -19.3487 -10.4374  -1.2751  -1.1696  -1.0440  -0.7896
 -0.6628  -0.6495  -0.6052  -0.5741  -0.5141  -0.4718  -0.4387  -0.4104
 -0.4054
 -- Virtual --
  0.0285   0.0460   0.0578   0.0636   0.0878   0.1078   0.1294   0.1513
  0.1558   0.2022   0.2120   0.2154   0.2425   0.2462   0.2660   0.2701
  0.2752   0.2819   0.2921   0.3015   0.3049   0.3214   0.3574   0.3759
  0.4012   0.4220   0.4370   0.5618   0.5894   0.6034   0.6147   0.6410
  0.6638   0.6871   0.7313   0.7555   0.8191   0.8437   0.8795   0.9369
  0.9867   1.0018   1.0397   1.0485   1.0800   1.1027   1.1320   1.1682
  1.1879   1.2026   1.2128   1.2308   1.2670   1.3229   1.3717   1.3940
  1.4058   1.4675   1.4954   1.5268   1.5559   1.6058   1.6399   1.6723
  1.7023   1.7831   1.8257   1.9309   1.9666   2.0227   2.0951   2.1579
  2.2381   2.3024   2.3078   2.3533   2.3789   2.4021   2.5918   2.6369
  2.7139   2.8014   2.8443   3.1271   3.1587   3.2080   3.2793   3.3101
  3.3862   3.4271   3.4922   3.4949   3.5337   3.7099   3.7401   3.7941
  3.8153   3.8310   3.8757   3.9062   4.0118   4.1481   4.2322   4.2449
  4.2620   4.3088   4.3919   4.4430   4.6545   4.7274   4.8212   4.9624
  5.0372   5.0829   5.1772   5.1994   5.2311   5.2475   5.2604   5.2831
  5.3613   5.3683   5.4340   5.4493   5.4692   5.5713   5.6021   5.6271
  5.6487   5.7497   5.8245   6.0093   6.0775   6.1413   6.2156   6.4932
  6.6874   6.8194   6.9916   7.0031   7.0460   7.1545   7.2022   7.2592
  7.2775   7.2850   7.3690   7.4077   7.4461   7.5756   7.6147   7.7109
  7.7919   7.9142   8.1301  24.7605  50.4663  50.4991  50.5869
 --------------------------------------------------------------
 
          Ground-State Mulliken Net Atomic Charges

     Atom                 Charge (a.u.)
  ----------------------------------------
      1 O                    -0.346368
      2 O                    -0.154387
      3 C                    -0.136088
      4 O                    -0.449919
      5 H                     0.184878
      6 H                     0.214983
      7 H                     0.339355
      8 H                     0.347546
  ----------------------------------------
  Sum of atomic charges =     0.000000

 -----------------------------------------------------------------
                    Cartesian Multipole Moments
 -----------------------------------------------------------------
    Charge (ESU x 10^10)
                 0.0000
    Dipole Moment (Debye)
         X       1.9197      Y       1.1765      Z       0.9934
       Tot       2.4609
    Quadrupole Moments (Debye-Ang)
        XX      -5.5898     XY      12.2333     YY     -20.9029
        XZ      14.2672     YZ       1.0362     ZZ     -15.3294
    Octopole Moments (Debye-Ang^2)
       XXX    -198.8590    XXY      58.6592    XYY     -75.9254
       YYY     -89.4185    XXZ       1.3378    XYZ      39.2208
       YYZ    -116.7921    XZZ     -19.5699    YZZ     -48.7506
       ZZZ    -295.6746
    Hexadecapole Moments (Debye-Ang^3)
      XXXX   -2262.3400   XXXY     150.2354   XXYY    -314.2603
      XYYY    -357.3108   YYYY    -328.4029   XXXZ    -771.6187
      XXYZ     192.9272   XYYZ    -427.2079   YYYZ    -495.9068
      XXZZ    -401.3285   XYZZ     -41.4524   YYZZ    -722.8436
      XZZZ   -1065.7237   YZZZ    -691.1427   ZZZZ   -3294.9593
 -----------------------------------------------------------------
 Calculating analytic gradient of the SCF energy
 Gradient of CDS energy
            1           2           3           4           5           6
    1  -0.0001649   0.0003586  -0.0003559  -0.0003110  -0.0001768   0.0002786
    2  -0.0002411   0.0003056   0.0026416  -0.0036589   0.0001137   0.0001894
    3   0.0001542   0.0006803   0.0011512  -0.0012178  -0.0002120  -0.0003662
            7           8
    1   0.0002728   0.0000986
    2   0.0003745   0.0002753
    3   0.0002307  -0.0004204
 Gradient of SCF Energy
            1           2           3           4           5           6
    1   0.0014129  -0.0033587   0.0002374  -0.0195779  -0.0035292   0.0063935
    2  -0.0165420  -0.0005244   0.0067740  -0.0024433  -0.0027903  -0.0026398
    3   0.0001550   0.0001014  -0.0069275   0.0055354   0.0027395   0.0036415
            7           8
    1   0.0164512   0.0019709
    2   0.0033618   0.0148040
    3  -0.0040781  -0.0011673
 Max gradient component =       1.958E-02
 RMS gradient           =       7.673E-03
 Computing fast CPCM-SWIG gradient
 Updating gradient with PCM contributions...
 -- total gradient after adding PCM contribution --
---------------------------------------------------
  Atom         X              Y              Z     
---------------------------------------------------
   1      -0.000161       0.001021      -0.000220
   2      -0.000003      -0.000075       0.000041
   3      -0.000026      -0.000079      -0.000021
   4       0.000021       0.000020       0.000035
   5       0.000015      -0.000005      -0.000016
   6       0.000005       0.000003      -0.000015
   7      -0.000006      -0.000005      -0.000001
   8       0.000155      -0.000880       0.000196
---------------------------------------------------
 Number of fixed atoms: 0
 Gradient time:  CPU 32.38 s  wall 2.54 s
 ----------------------------------------------------------------
             Standard Nuclear Orientation (Angstroms)
    I     Atom           X                Y                Z
 ----------------------------------------------------------------
    1      O       5.3553525000     1.0741051000     3.5189426000
    2      O       4.1226244000     0.8278882000     4.1993936000
    3      C       4.3442397000     1.0398193000     5.5787294000
    4      O       4.4676786000     2.4004135000     5.8955078000
    5      H       3.4384076000     0.6613776000     6.0462678000
    6      H       5.2230884000     0.4785626000     5.8933545000
    7      H       5.3793334000     2.6709720000     5.7392102000
    8      H       5.2827491000     2.0123188000     3.2853665000
 ----------------------------------------------------------------
 Nuclear Repulsion Energy =         134.11508702 hartrees
 There are       17 alpha and       17 beta electrons
 Discretize the solute cavity surface with Lebedev spheres
	Using 110 Lebedev grid points for each H atom
	Using 194 Lebedev grid points for other atoms
	Atomic van der Waals radii will be scaled by 1.20
 Remove points where switching function is < 1.0e-08
 Keep 700 surface tesserae and discard 516 interior tesserae
 Molecular Surface Area = 82.317 Angst**2

                       Distance Matrix (Angstroms)
             O (  1)   O (  2)   C (  3)   O (  4)   H (  5)   H (  6)
   O (  2)  1.429425
   C (  3)  2.294830  1.413009
   O (  4)  2.862712  2.338526  1.402427
   H (  5)  3.198811  1.976568  1.087356  2.026419
   H (  6)  2.451529  2.050013  1.089208  2.064984  1.800525
   H (  7)  2.734986  2.710592  1.938513  0.963714  2.810684  2.203368
   H (  8)  0.969574  1.893201  2.661967  2.761846  3.584580  3.026148
             H (  7)
   H (  8)  2.542538
 
 Requested basis set is 6-311++G(2df,2p)
 There are 56 shells and 176 basis functions
 A cutoff of  1.0D-12 yielded   1569 shell pairs
 There are     15668 function pairs (     19502 Cartesian)
 Smallest overlap matrix eigenvalue = 5.74E-04
 Guess MOs from SCF MO coefficient file

 -----------------------------------------------------------------------
  General SCF calculation program by
  Eric Jon Sundstrom, Paul Horn, Yuezhi Mao, Dmitri Zuev, Alec White,
  David Stuck, Shaama M.S., Shane Yost, Joonho Lee, David Small,
  Daniel Levine, Susi Lehtola, Hugh Burton, Evgeny Epifanovsky,
  Bang C. Huynh
 -----------------------------------------------------------------------
 Exchange:     0.1500 Hartree-Fock + 1.0000 wB97M-V + LR-HF
 Correlation:  1.0000 wB97M-V
 Using SG-2 standard quadrature grid
 Nonlocal Correlation:  VV10 with C = 0.0100 and b = 6.00 and scale = 1.00000
 Grid used for NLC:  SG-1 standard quadrature
 
 Citation of the SMD model:
 Marenich, A.V.; Cramer, C.J.; Truhlar, D.G.
 J. Phys. Chem. B 2009, 113, 6378-6396.
 iSolventCode=           1
 Solvent: water                                                           
 
 vradii
            1           2           3           4           5           6
    1   1.5200000   1.5200000   1.8500000   1.5200000   1.2000000   1.2000000
            7           8
    1   1.2000000   1.2000000
 -------------------------------------------------------
 OpenMP BLAS3 based DFT computing Module                
 Release: version 1.0, May 2013, Q-Chem Inc. Pittsburgh 
 -------------------------------------------------------
 A restricted SCF calculation will be
 performed using Roothaan-Hall, DIIS, GDM
 SCF converges when RMS gradient is below 1.0e-07
 ---------------------------------------
  Cycle       Energy         DIIS error
 ---------------------------------------
    1    -266.0850432100      8.05e-04  Roothaan Step
 ---------------------------------------
  Cycle       Energy         DIIS error
 ---------------------------------------
    1    -266.1072663387      8.51e-04  
    2    -266.1106076197      5.36e-04  Done DIIS. Switching to GDM
 ---------------------------------------
  Cycle       Energy        RMS Gradient
 ---------------------------------------
    1    -266.1106076197      5.21e-03   Normal BFGS step
    2    -266.1108405522      5.69e-03   Normal BFGS step
    3    -266.1114094319      5.14e-04   Normal BFGS step
    4    -266.1114165731      3.26e-04   Normal BFGS step
    5    -266.1114194676      9.68e-05   Normal BFGS step
    6    -266.1114196544      4.88e-05   Normal BFGS step
    7    -266.1114197142      1.63e-05   Normal BFGS step
    8    -266.1114197221      6.97e-06   Normal BFGS step
    9    -266.1114197237      3.21e-06   Normal BFGS step
   10    -266.1114197238      1.01e-06   Normal BFGS step
   11    -266.1114197238      3.67e-07   Normal BFGS step
   12    -266.1114197238      6.98e-08  Convergence criterion met
 ---------------------------------------
 SCF time:   CPU 204.54s  wall 13.00s 
(3)  G-ENP(liq) elect-nuc-pol free energy of system     -266.111419724 a.u.
(4)  G-CDS(liq) cavity-dispersion-solvent structure 
     free energy                                                2.2457 kcal/mol
(6)  G-S(liq) free energy of system                     -266.107840970 a.u.
 SCF   energy in the final basis set =     -266.1078409699
 Total energy in the final basis set =     -266.1078409699
 
 --------------------------------------------------------------
 
                    Orbital Energies (a.u.)
 --------------------------------------------------------------
 
 Alpha MOs
 -- Occupied --
-19.4037 -19.3954 -19.3487 -10.4374  -1.2751  -1.1696  -1.0437  -0.7895
 -0.6627  -0.6495  -0.6052  -0.5741  -0.5142  -0.4717  -0.4386  -0.4103
 -0.4053
 -- Virtual --
  0.0285   0.0460   0.0578   0.0636   0.0879   0.1078   0.1295   0.1513
  0.1558   0.2020   0.2120   0.2155   0.2424   0.2461   0.2660   0.2701
  0.2752   0.2819   0.2921   0.3015   0.3049   0.3214   0.3574   0.3759
  0.4012   0.4221   0.4370   0.5618   0.5891   0.6031   0.6143   0.6410
  0.6638   0.6871   0.7313   0.7551   0.8189   0.8437   0.8794   0.9370
  0.9871   1.0017   1.0397   1.0486   1.0800   1.1028   1.1320   1.1682
  1.1880   1.2026   1.2127   1.2309   1.2669   1.3229   1.3717   1.3939
  1.4059   1.4662   1.4954   1.5268   1.5559   1.6057   1.6397   1.6724
  1.7023   1.7829   1.8257   1.9304   1.9671   2.0227   2.0950   2.1577
  2.2381   2.3026   2.3081   2.3540   2.3789   2.4022   2.5918   2.6367
  2.7134   2.8001   2.8442   3.1272   3.1588   3.2080   3.2794   3.3098
  3.3861   3.4272   3.4924   3.4949   3.5337   3.7097   3.7400   3.7940
  3.8153   3.8310   3.8755   3.9062   4.0118   4.1479   4.2310   4.2421
  4.2619   4.3087   4.3918   4.4430   4.6547   4.7266   4.8212   4.9621
  5.0373   5.0828   5.1771   5.1995   5.2310   5.2475   5.2599   5.2829
  5.3611   5.3681   5.4341   5.4489   5.4686   5.5707   5.6009   5.6248
  5.6484   5.7489   5.8245   6.0093   6.0774   6.1415   6.2164   6.4932
  6.6875   6.8205   6.9913   7.0029   7.0460   7.1531   7.2010   7.2541
  7.2772   7.2840   7.3689   7.4072   7.4463   7.5752   7.6148   7.7112
  7.7921   7.9150   8.1298  24.7605  50.4653  50.4991  50.5867
 --------------------------------------------------------------
 
          Ground-State Mulliken Net Atomic Charges

     Atom                 Charge (a.u.)
  ----------------------------------------
      1 O                    -0.346665
      2 O                    -0.154560
      3 C                    -0.136002
      4 O                    -0.449953
      5 H                     0.184820
      6 H                     0.214956
      7 H                     0.339343
      8 H                     0.348061
  ----------------------------------------
  Sum of atomic charges =     0.000000

 -----------------------------------------------------------------
                    Cartesian Multipole Moments
 -----------------------------------------------------------------
    Charge (ESU x 10^10)
                 0.0000
    Dipole Moment (Debye)
         X       1.9217      Y       1.1792      Z       0.9923
       Tot       2.4634
    Quadrupole Moments (Debye-Ang)
        XX      -5.5725     XY      12.2492     YY     -20.8994
        XZ      14.2710     YZ       1.0450     ZZ     -15.3417
    Octopole Moments (Debye-Ang^2)
       XXX    -198.7503    XXY      58.7598    XYY     -75.9054
       YYY     -89.3866    XXZ       1.3875    XYZ      39.2747
       YYZ    -116.7808    XZZ     -19.5882    YZZ     -48.7172
       ZZZ    -295.7717
    Hexadecapole Moments (Debye-Ang^3)
      XXXX   -2261.7419   XXXY     150.8978   XXYY    -314.1298
      XYYY    -357.1385   YYYY    -328.2861   XXXZ    -771.2749
      XXYZ     193.2792   XYYZ    -427.1383   YYYZ    -495.7973
      XXZZ    -401.2778   XYZZ     -41.2366   YYZZ    -722.7971
      XZZZ   -1065.9928   YZZZ    -691.0047   ZZZZ   -3295.6288
 -----------------------------------------------------------------
 Calculating analytic gradient of the SCF energy
 Gradient of CDS energy
            1           2           3           4           5           6
    1  -0.0001648   0.0003586  -0.0003557  -0.0003110  -0.0001768   0.0002785
    2  -0.0002406   0.0003055   0.0026416  -0.0036589   0.0001137   0.0001894
    3   0.0001536   0.0006800   0.0011517  -0.0012178  -0.0002120  -0.0003662
            7           8
    1   0.0002727   0.0000985
    2   0.0003746   0.0002748
    3   0.0002308  -0.0004201
 Gradient of SCF Energy
            1           2           3           4           5           6
    1   0.0015161  -0.0031487   0.0002600  -0.0196063  -0.0035265   0.0063965
    2  -0.0185702  -0.0003136   0.0067939  -0.0024607  -0.0027990  -0.0026332
    3   0.0006655  -0.0000724  -0.0069035   0.0055418   0.0027296   0.0036431
            7           8
    1   0.0164597   0.0016491
    2   0.0033597   0.0166232
    3  -0.0040850  -0.0015192
 Max gradient component =       1.961E-02
 RMS gradient           =       8.015E-03
 Computing fast CPCM-SWIG gradient
 Updating gradient with PCM contributions...
 -- total gradient after adding PCM contribution --
---------------------------------------------------
  Atom         X              Y              Z     
---------------------------------------------------
   1      -0.000062      -0.000989       0.000296
   2       0.000212       0.000132      -0.000131
   3      -0.000003      -0.000053      -0.000002
   4       0.000004       0.000004       0.000038
   5       0.000013      -0.000017      -0.000024
   6       0.000008       0.000007      -0.000012
   7      -0.000006      -0.000009      -0.000001
   8      -0.000166       0.000924      -0.000163
---------------------------------------------------
 Number of fixed atoms: 0
 Gradient time:  CPU 33.92 s  wall 2.73 s
 ----------------------------------------------------------------
             Standard Nuclear Orientation (Angstroms)
    I     Atom           X                Y                Z
 ----------------------------------------------------------------
    1      O       5.3553525000     1.0751051000     3.5199426000
    2      O       4.1226244000     0.8278882000     4.1993936000
    3      C       4.3442397000     1.0398193000     5.5787294000
    4      O       4.4676786000     2.4004135000     5.8955078000
    5      H       3.4384076000     0.6613776000     6.0462678000
    6      H       5.2230884000     0.4785626000     5.8933545000
    7      H       5.3793334000     2.6709720000     5.7392102000
    8      H       5.2827491000     2.0123188000     3.2853665000
 ----------------------------------------------------------------
 Nuclear Repulsion Energy =         134.13456407 hartrees
 There are       17 alpha and       17 beta electrons
 Discretize the solute cavity surface with Lebedev spheres
	Using 110 Lebedev grid points for each H atom
	Using 194 Lebedev grid points for other atoms
	Atomic van der Waals radii will be scaled by 1.20
 Remove points where switching function is < 1.0e-08
 Keep 700 surface tesserae and discard 516 interior tesserae
 Molecular Surface Area = 82.307 Angst**2

                       Distance Matrix (Angstroms)
             O (  1)   O (  2)   C (  3)   O (  4)   H (  5)   H (  6)
   O (  2)  1.429122
   C (  3)  2.293948  1.413009
   O (  4)  2.861419  2.338526  1.402427
   H (  5)  3.198151  1.976568  1.087356  2.026419
   H (  6)  2.450804  2.050013  1.089208  2.064984  1.800525
   H (  7)  2.733590  2.710592  1.938513  0.963714  2.810684  2.203368
   H (  8)  0.968848  1.893201  2.661967  2.761846  3.584580  3.026148
             H (  7)
   H (  8)  2.542538
 
 Requested basis set is 6-311++G(2df,2p)
 There are 56 shells and 176 basis functions
 A cutoff of  1.0D-12 yielded   1569 shell pairs
 There are     15668 function pairs (     19502 Cartesian)
 Smallest overlap matrix eigenvalue = 5.74E-04
 Guess MOs from SCF MO coefficient file

 -----------------------------------------------------------------------
  General SCF calculation program by
  Eric Jon Sundstrom, Paul Horn, Yuezhi Mao, Dmitri Zuev, Alec White,
  David Stuck, Shaama M.S., Shane Yost, Joonho Lee, David Small,
  Daniel Levine, Susi Lehtola, Hugh Burton, Evgeny Epifanovsky,
  Bang C. Huynh
 -----------------------------------------------------------------------
 Exchange:     0.1500 Hartree-Fock + 1.0000 wB97M-V + LR-HF
 Correlation:  1.0000 wB97M-V
 Using SG-2 standard quadrature grid
 Nonlocal Correlation:  VV10 with C = 0.0100 and b = 6.00 and scale = 1.00000
 Grid used for NLC:  SG-1 standard quadrature
 
 Citation of the SMD model:
 Marenich, A.V.; Cramer, C.J.; Truhlar, D.G.
 J. Phys. Chem. B 2009, 113, 6378-6396.
 iSolventCode=           1
 Solvent: water                                                           
 
 vradii
            1           2           3           4           5           6
    1   1.5200000   1.5200000   1.8500000   1.5200000   1.2000000   1.2000000
            7           8
    1   1.2000000   1.2000000
 -------------------------------------------------------
 OpenMP BLAS3 based DFT computing Module                
 Release: version 1.0, May 2013, Q-Chem Inc. Pittsburgh 
 -------------------------------------------------------
 A restricted SCF calculation will be
 performed using Roothaan-Hall, DIIS, GDM
 SCF converges when RMS gradient is below 1.0e-07
 ---------------------------------------
  Cycle       Energy         DIIS error
 ---------------------------------------
    1    -266.0850696118      8.05e-04  Roothaan Step
 ---------------------------------------
  Cycle       Energy         DIIS error
 ---------------------------------------
    1    -266.1072686910      8.51e-04  
    2    -266.1106100546      5.35e-04  Done DIIS. Switching to GDM
 ---------------------------------------
  Cycle       Energy        RMS Gradient
 ---------------------------------------
    1    -266.1106100546      5.25e-03   Normal BFGS step
    2    -266.1108388393      5.79e-03   Normal BFGS step
    3    -266.1114095812      5.22e-04   Normal BFGS step
    4    -266.1114166023      3.54e-04   Normal BFGS step
    5    -266.1114198826      9.16e-05   Normal BFGS step
    6    -266.1114200583      5.25e-05   Normal BFGS step
    7    -266.1114201265      1.53e-05   Normal BFGS step
    8    -266.1114201335      6.84e-06   Normal BFGS step
    9    -266.1114201350      3.16e-06   Normal BFGS step
   10    -266.1114201351      9.41e-07   Normal BFGS step
   11    -266.1114201352      3.01e-07   Normal BFGS step
   12    -266.1114201352      7.23e-08  Convergence criterion met
 ---------------------------------------
 SCF time:   CPU 203.02s  wall 13.00s 
(3)  G-ENP(liq) elect-nuc-pol free energy of system     -266.111420135 a.u.
(4)  G-CDS(liq) cavity-dispersion-solvent structure 
     free energy                                                2.2456 kcal/mol
(6)  G-S(liq) free energy of system                     -266.107841545 a.u.
 SCF   energy in the final basis set =     -266.1078415452
 Total energy in the final basis set =     -266.1078415452
 
 --------------------------------------------------------------
 
                    Orbital Energies (a.u.)
 --------------------------------------------------------------
 
 Alpha MOs
 -- Occupied --
-19.4037 -19.3954 -19.3487 -10.4374  -1.2753  -1.1696  -1.0437  -0.7895
 -0.6628  -0.6495  -0.6053  -0.5741  -0.5142  -0.4718  -0.4386  -0.4104
 -0.4053
 -- Virtual --
  0.0285   0.0460   0.0578   0.0636   0.0879   0.1078   0.1296   0.1513
  0.1558   0.2021   0.2120   0.2155   0.2425   0.2462   0.2660   0.2701
  0.2752   0.2819   0.2921   0.3015   0.3049   0.3214   0.3574   0.3759
  0.4012   0.4221   0.4371   0.5618   0.5893   0.6032   0.6144   0.6410
  0.6638   0.6871   0.7312   0.7554   0.8190   0.8437   0.8795   0.9369
  0.9871   1.0018   1.0397   1.0485   1.0800   1.1028   1.1321   1.1682
  1.1879   1.2026   1.2127   1.2309   1.2669   1.3229   1.3717   1.3940
  1.4059   1.4667   1.4954   1.5268   1.5559   1.6057   1.6398   1.6724
  1.7022   1.7829   1.8261   1.9306   1.9675   2.0229   2.0952   2.1580
  2.2382   2.3027   2.3080   2.3537   2.3789   2.4022   2.5920   2.6367
  2.7137   2.8006   2.8443   3.1272   3.1588   3.2080   3.2794   3.3101
  3.3862   3.4272   3.4924   3.4949   3.5338   3.7099   3.7400   3.7940
  3.8153   3.8310   3.8757   3.9063   4.0118   4.1480   4.2315   4.2432
  4.2620   4.3087   4.3919   4.4430   4.6549   4.7269   4.8208   4.9620
  5.0372   5.0828   5.1772   5.1995   5.2311   5.2476   5.2601   5.2829
  5.3611   5.3682   5.4343   5.4492   5.4689   5.5709   5.6015   5.6258
  5.6485   5.7495   5.8249   6.0096   6.0787   6.1415   6.2167   6.4932
  6.6874   6.8215   6.9916   7.0031   7.0462   7.1540   7.2015   7.2564
  7.2774   7.2844   7.3691   7.4078   7.4464   7.5758   7.6148   7.7112
  7.7921   7.9155   8.1297  24.7605  50.4657  50.4993  50.5869
 --------------------------------------------------------------
 
          Ground-State Mulliken Net Atomic Charges

     Atom                 Charge (a.u.)
  ----------------------------------------
      1 O                    -0.346567
      2 O                    -0.154362
      3 C                    -0.136151
      4 O                    -0.449959
      5 H                     0.184814
      6 H                     0.214993
      7 H                     0.339352
      8 H                     0.347881
  ----------------------------------------
  Sum of atomic charges =     0.000000

 -----------------------------------------------------------------
                    Cartesian Multipole Moments
 -----------------------------------------------------------------
    Charge (ESU x 10^10)
                 0.0000
    Dipole Moment (Debye)
         X       1.9205      Y       1.1778      Z       0.9899
       Tot       2.4608
    Quadrupole Moments (Debye-Ang)
        XX      -5.5842     XY      12.2401     YY     -20.9017
        XZ      14.2546     YZ       1.0369     ZZ     -15.3588
    Octopole Moments (Debye-Ang^2)
       XXX    -198.8324    XXY      58.7004    XYY     -75.9197
       YYY     -89.4051    XXZ       1.2792    XYZ      39.2274
       YYZ    -116.7988    XZZ     -19.6876    YZZ     -48.7614
       ZZZ    -295.8854
    Hexadecapole Moments (Debye-Ang^3)
      XXXX   -2262.2507   XXXY     150.5019   XXYY    -314.2242
      XYYY    -357.2402   YYYY    -328.3538   XXXZ    -771.9720
      XXYZ     192.9820   XYYZ    -427.2411   YYYZ    -495.8866
      XXZZ    -401.8895   XYZZ     -41.4850   YYZZ    -722.9040
      XZZZ   -1066.5985   YZZZ    -691.2555   ZZZZ   -3296.3882
 -----------------------------------------------------------------
 Calculating analytic gradient of the SCF energy
 Gradient of CDS energy
            1           2           3           4           5           6
    1  -0.0001649   0.0003586  -0.0003560  -0.0003110  -0.0001768   0.0002787
    2  -0.0002406   0.0003055   0.0026415  -0.0036589   0.0001137   0.0001896
    3   0.0001541   0.0006803   0.0011514  -0.0012178  -0.0002120  -0.0003663
            7           8
    1   0.0002728   0.0000986
    2   0.0003745   0.0002748
    3   0.0002307  -0.0004204
 Gradient of SCF Energy
            1           2           3           4           5           6
    1   0.0012435  -0.0031234   0.0003541  -0.0195889  -0.0035279   0.0063921
    2  -0.0178200  -0.0004029   0.0068032  -0.0024501  -0.0027985  -0.0026334
    3   0.0007148  -0.0001528  -0.0069642   0.0055421   0.0027148   0.0036485
            7           8
    1   0.0164499   0.0018005
    2   0.0033600   0.0159417
    3  -0.0040785  -0.0014246
 Max gradient component =       1.959E-02
 RMS gradient           =       7.884E-03
 Computing fast CPCM-SWIG gradient
 Updating gradient with PCM contributions...
 -- total gradient after adding PCM contribution --
---------------------------------------------------
  Atom         X              Y              Z     
---------------------------------------------------
   1      -0.000332      -0.000245       0.000328
   2       0.000234       0.000042      -0.000217
   3       0.000089      -0.000042      -0.000059
   4       0.000009       0.000012       0.000040
   5       0.000010      -0.000017      -0.000036
   6       0.000009       0.000005      -0.000005
   7      -0.000005      -0.000007      -0.000001
   8      -0.000014       0.000251      -0.000050
---------------------------------------------------
 Number of fixed atoms: 0
 Gradient time:  CPU 32.64 s  wall 2.58 s
 ----------------------------------------------------------------
             Standard Nuclear Orientation (Angstroms)
    I     Atom           X                Y                Z
 ----------------------------------------------------------------
    1      O       5.3553525000     1.0751051000     3.5179426000
    2      O       4.1226244000     0.8278882000     4.1993936000
    3      C       4.3442397000     1.0398193000     5.5787294000
    4      O       4.4676786000     2.4004135000     5.8955078000
    5      H       3.4384076000     0.6613776000     6.0462678000
    6      H       5.2230884000     0.4785626000     5.8933545000
    7      H       5.3793334000     2.6709720000     5.7392102000
    8      H       5.2827491000     2.0123188000     3.2853665000
 ----------------------------------------------------------------
 Nuclear Repulsion Energy =         134.10250488 hartrees
 There are       17 alpha and       17 beta electrons
 Discretize the solute cavity surface with Lebedev spheres
	Using 110 Lebedev grid points for each H atom
	Using 194 Lebedev grid points for other atoms
	Atomic van der Waals radii will be scaled by 1.20
 Remove points where switching function is < 1.0e-08
 Keep 700 surface tesserae and discard 516 interior tesserae
 Molecular Surface Area = 82.319 Angst**2

                       Distance Matrix (Angstroms)
             O (  1)   O (  2)   C (  3)   O (  4)   H (  5)   H (  6)
   O (  2)  1.430074
   C (  3)  2.295743  1.413009
   O (  4)  2.863079  2.338526  1.402427
   H (  5)  3.199731  1.976568  1.087356  2.026419
   H (  6)  2.452741  2.050013  1.089208  2.064984  1.800525
   H (  7)  2.735214  2.710592  1.938513  0.963714  2.810684  2.203368
   H (  8)  0.968366  1.893201  2.661967  2.761846  3.584580  3.026148
             H (  7)
   H (  8)  2.542538
 
 Requested basis set is 6-311++G(2df,2p)
 There are 56 shells and 176 basis functions
 A cutoff of  1.0D-12 yielded   1569 shell pairs
 There are     15668 function pairs (     19502 Cartesian)
 Smallest overlap matrix eigenvalue = 5.74E-04
 Guess MOs from SCF MO coefficient file

 -----------------------------------------------------------------------
  General SCF calculation program by
  Eric Jon Sundstrom, Paul Horn, Yuezhi Mao, Dmitri Zuev, Alec White,
  David Stuck, Shaama M.S., Shane Yost, Joonho Lee, David Small,
  Daniel Levine, Susi Lehtola, Hugh Burton, Evgeny Epifanovsky,
  Bang C. Huynh
 -----------------------------------------------------------------------
 Exchange:     0.1500 Hartree-Fock + 1.0000 wB97M-V + LR-HF
 Correlation:  1.0000 wB97M-V
 Using SG-2 standard quadrature grid
 Nonlocal Correlation:  VV10 with C = 0.0100 and b = 6.00 and scale = 1.00000
 Grid used for NLC:  SG-1 standard quadrature
 
 Citation of the SMD model:
 Marenich, A.V.; Cramer, C.J.; Truhlar, D.G.
 J. Phys. Chem. B 2009, 113, 6378-6396.
 iSolventCode=           1
 Solvent: water                                                           
 
 vradii
            1           2           3           4           5           6
    1   1.5200000   1.5200000   1.8500000   1.5200000   1.2000000   1.2000000
            7           8
    1   1.2000000   1.2000000
 -------------------------------------------------------
 OpenMP BLAS3 based DFT computing Module                
 Release: version 1.0, May 2013, Q-Chem Inc. Pittsburgh 
 -------------------------------------------------------
 A restricted SCF calculation will be
 performed using Roothaan-Hall, DIIS, GDM
 SCF converges when RMS gradient is below 1.0e-07
 ---------------------------------------
  Cycle       Energy         DIIS error
 ---------------------------------------
    1    -266.0850572036      8.05e-04  Roothaan Step
 ---------------------------------------
  Cycle       Energy         DIIS error
 ---------------------------------------
    1    -266.1072626933      8.51e-04  
    2    -266.1106072755      5.36e-04  Done DIIS. Switching to GDM
 ---------------------------------------
  Cycle       Energy        RMS Gradient
 ---------------------------------------
    1    -266.1106072755      5.26e-03   Normal BFGS step
    2    -266.1108365932      5.78e-03   Normal BFGS step
    3    -266.1114091719      5.22e-04   Normal BFGS step
    4    -266.1114161685      3.55e-04   Normal BFGS step
    5    -266.1114194512      9.15e-05   Normal BFGS step
    6    -266.1114196254      5.28e-05   Normal BFGS step
    7    -266.1114196937      1.52e-05   Normal BFGS step
    8    -266.1114197006      6.76e-06   Normal BFGS step
    9    -266.1114197021      3.14e-06   Normal BFGS step
   10    -266.1114197022      9.67e-07   Normal BFGS step
   11    -266.1114197022      3.28e-07   Normal BFGS step
   12    -266.1114197022      6.90e-08  Convergence criterion met
 ---------------------------------------
 SCF time:   CPU 201.58s  wall 13.00s 
(3)  G-ENP(liq) elect-nuc-pol free energy of system     -266.111419702 a.u.
(4)  G-CDS(liq) cavity-dispersion-solvent structure 
     free energy                                                2.2452 kcal/mol
(6)  G-S(liq) free energy of system                     -266.107841694 a.u.
 SCF   energy in the final basis set =     -266.1078416941
 Total energy in the final basis set =     -266.1078416941
 
 --------------------------------------------------------------
 
                    Orbital Energies (a.u.)
 --------------------------------------------------------------
 
 Alpha MOs
 -- Occupied --
-19.4038 -19.3954 -19.3487 -10.4374  -1.2750  -1.1696  -1.0440  -0.7895
 -0.6627  -0.6495  -0.6052  -0.5741  -0.5141  -0.4718  -0.4387  -0.4103
 -0.4054
 -- Virtual --
  0.0285   0.0460   0.0578   0.0636   0.0878   0.1078   0.1294   0.1512
  0.1558   0.2021   0.2120   0.2154   0.2425   0.2462   0.2660   0.2701
  0.2752   0.2819   0.2921   0.3015   0.3049   0.3214   0.3574   0.3759
  0.4012   0.4221   0.4369   0.5618   0.5893   0.6033   0.6146   0.6410
  0.6638   0.6871   0.7313   0.7551   0.8190   0.8437   0.8794   0.9370
  0.9867   1.0017   1.0397   1.0486   1.0800   1.1028   1.1319   1.1682
  1.1879   1.2026   1.2128   1.2308   1.2669   1.3229   1.3717   1.3939
  1.4058   1.4670   1.4954   1.5268   1.5559   1.6058   1.6398   1.6723
  1.7023   1.7831   1.8254   1.9307   1.9662   2.0225   2.0949   2.1576
  2.2380   2.3023   2.3079   2.3536   2.3788   2.4020   2.5916   2.6368
  2.7137   2.8009   2.8442   3.1271   3.1587   3.2079   3.2793   3.3099
  3.3861   3.4271   3.4922   3.4949   3.5337   3.7097   3.7400   3.7940
  3.8153   3.8310   3.8755   3.9062   4.0118   4.1480   4.2318   4.2436
  4.2619   4.3087   4.3918   4.4430   4.6543   4.7271   4.8216   4.9624
  5.0373   5.0829   5.1771   5.1994   5.2311   5.2475   5.2603   5.2831
  5.3614   5.3681   5.4337   5.4490   5.4689   5.5711   5.6016   5.6261
  5.6485   5.7492   5.8242   6.0091   6.0762   6.1413   6.2153   6.4932
  6.6874   6.8183   6.9913   7.0029   7.0458   7.1538   7.2017   7.2569
  7.2773   7.2845   7.3689   7.4071   7.4461   7.5749   7.6147   7.7109
  7.7919   7.9138   8.1303  24.7605  50.4659  50.4989  50.5867
 --------------------------------------------------------------
 
          Ground-State Mulliken Net Atomic Charges

     Atom                 Charge (a.u.)
  ----------------------------------------
      1 O                    -0.346465
      2 O                    -0.154585
      3 C                    -0.135939
      4 O                    -0.449914
      5 H                     0.184885
      6 H                     0.214945
      7 H                     0.339346
      8 H                     0.347726
  ----------------------------------------
  Sum of atomic charges =     0.000000

 -----------------------------------------------------------------
                    Cartesian Multipole Moments
 -----------------------------------------------------------------
[...]
     5   -5.474044797569665e-03  -2.333626118053027e-02  -7.709812390425473e-03
     6   -3.873846524076015e-03  -3.756078618245458e-02  -1.004764754006870e-02
     7   -1.388764576850698e-01  -6.991795459740059e-02   1.716980308417033e-02
     8    1.329681057147359e-03  -1.212766319806519e-03  -4.606751447971226e-04

Order 1, Length 24
    Atom      X          Y          Z
     1   -1.938075578325532e-03  -5.514662787042422e-04   1.719832950583965e-03
     2   -8.997407158274595e-03  -5.152119202701912e-02  -2.910875910182638e-02
     3    1.418954758654441e-02  -4.072050883749660e-02  -6.371427426189338e-02
     4   -7.950531124967544e-02   7.483814238581310e-02   9.730528312533190e-02
     5   -1.808009683224953e-03   8.805199594679578e-03   4.782643625299291e-03
     6    5.060706087253320e-04   3.512546690120851e-03   7.165776275032200e-03
     7    7.757615204503795e-02   5.567158033608118e-03  -1.938809494127479e-02
     8   -2.298372273020039e-05   7.028732416136076e-05   1.237613350864812e-03


     5 Order 1, Length 24
    Atom      X          Y          Z
     1    3.780176896501799e-03   4.609281953805942e-04  -2.089994257681095e-03
     2    2.359365009786156e-03   8.941869092314004e-04  -2.343446967424008e-05
     3   -2.518239874921215e-01  -7.404355642447706e-02   1.008759900546309e-01
     4    5.252814661870004e-04  -5.474044797569665e-03  -1.808009683224953e-03
     5    2.573188725522300e-01   8.547533070451011e-02  -1.076609176988119e-01
     6   -1.496344183031336e-02  -7.356973891215635e-03   9.960759650302568e-03
     7    2.564646341296221e-03   9.937792982189157e-05   6.909954505476676e-04
     8    2.391055035663961e-04  -5.524751243428573e-05   5.462242408428191e-05

Order 1, Length 24
    Atom      X          Y          Z
     1    1.179636339494092e-03   3.136535905469623e-03  -3.036215546649852e-03
     2    1.825876222571029e-03   1.329543020944473e-03   2.069730169147503e-03
     3   -6.564818542749346e-02  -7.708189484902439e-02   3.700167642776001e-02
     4   -3.489410285450600e-02  -2.333626118053027e-02   8.805199594679578e-03
     5    8.547533070451011e-02   9.440097152481736e-02  -3.825975136781899e-02
     6    1.094681702730760e-02   7.330476212663806e-03  -6.623759230188660e-03
     7    5.872040211784289e-04  -5.664688400180170e-03   6.822357048039088e-04
     8    5.274213735164517e-04  -1.146463266120184e-04  -6.391137915048874e-04

Order 1, Length 24
    Atom      X          Y          Z
     1    4.855598451774212e-04   2.102418934452771e-03  -8.500857982604672e-03
     2    3.131963233689022e-02   7.738788095468615e-03  -2.275435821676500e-02
     3    9.036638097065404e-02   4.244029491152694e-02  -9.838331473129477e-02
     4   -8.477373319568444e-03  -7.709812390425473e-03   4.782643625299291e-03
     5   -1.076609176988119e-01  -3.825975136781899e-02   1.167322808966085e-01
     6   -7.158009130873324e-03  -3.517835164464518e-03   6.978300622637249e-03
     7    3.553724295162406e-04  -1.972851694012200e-03   1.703870639381323e-03
     8    7.693835659125980e-04  -8.212509281438254e-04  -5.585275932869413e-04


     6 Order 1, Length 24
    Atom      X          Y          Z
     1    4.104159902323077e-03  -6.545087379756260e-04   1.234557891065193e-03
     2   -4.795600418214301e-03   1.591246138431921e-03  -5.891825835357190e-03
     3   -2.371077598707112e-01   1.099102289699769e-01  -5.884465953285243e-02
     4    8.437007932509670e-03  -3.873846524076015e-03   5.060706087253320e-04
     5   -1.496344183031336e-02   1.094681702730760e-02  -7.158009130873324e-03
     6    2.426218431614291e-01  -1.176210924083282e-01   6.924225254398876e-02
     7    1.885102284747992e-03   1.448488891643545e-04   7.058113069728410e-04
     8   -1.812945721880951e-04  -4.436935429747244e-04   2.058056348989581e-04

Order 1, Length 24
    Atom      X          Y          Z
     1    7.764094595446887e-04  -1.108408126900811e-03   1.657419130637984e-04
     2   -4.724563012156671e-03   8.180225845290077e-03  -3.418024166868882e-03
     3    1.024879781671285e-01  -1.136237186576233e-01   3.948788348368140e-02
     4    2.452079626950452e-02  -3.756078618245458e-02   3.512546690120851e-03
     5   -7.356973891215635e-03   7.330476212663806e-03  -3.517835164464518e-03
     6   -1.176210924083282e-01   1.348035435514283e-01  -3.546719429513167e-02
     7    1.931617841701928e-03   2.051852889261196e-03  -7.876039103775400e-04
     8   -1.413428335299304e-05  -7.316872573219876e-05   2.449383825667279e-05

Order 1, Length 24
    Atom      X          Y          Z
     1   -2.389796887084735e-03  -6.539522676325293e-04   4.209926351772803e-03
     2   -3.320560697673204e-02   1.252013574829200e-02  -3.441850837849168e-02
     3   -4.829894368522160e-02   3.986117867524533e-02  -6.511793016132494e-02
     4    4.250253557695392e-03  -1.004764754006870e-02   7.165776275032200e-03
     5    9.960759650302568e-03  -6.623759230188660e-03   6.978300622637249e-03
     6    6.924225254398876e-02  -3.546719429513167e-02   8.183354957383430e-02
     7    1.853053364272171e-04   6.996736141751069e-04  -8.590802564272262e-04
     8    2.557696873950329e-04  -2.884596583283473e-04   2.079925035155123e-04


     7 Order 1, Length 24
    Atom      X          Y          Z
     1   -8.936040915337345e-05   1.385866268581433e-04   6.113545635061505e-04
     2    4.937619523262887e-04   9.024264512738755e-04   1.818320004681104e-03
     3   -2.851920046336338e-03   1.010462222692682e-03  -1.579252620837679e-03
     4   -4.720790595373018e-01  -1.388764576850698e-01   7.757615204503795e-02
     5    2.564646341296221e-03   5.872040211784289e-04   3.553724295162406e-04
     6    1.885102284747992e-03   1.931617841701928e-03   1.853053364272171e-04
     7    4.702411917432885e-01   1.341324814950754e-01  -7.843708149663431e-02
     8   -1.643621276346970e-04   1.736814341177717e-04  -5.301899300374229e-04

Order 1, Length 24
    Atom      X          Y          Z
     1    7.355930186673247e-04   9.408757391211451e-04  -1.321366831186823e-04
     2    8.444357732807603e-05  -3.002992025479740e-04   2.313899482341423e-04
     3   -4.492041748780705e-02  -2.057318300855098e-02   7.212077764005591e-03
     4   -9.040448483292360e-02  -6.991795459740059e-02   5.567158033608118e-03
     5    9.937792982189157e-05  -5.664688400180170e-03  -1.972851694012200e-03
     6    1.448488891643545e-04   2.051852889261196e-03   6.996736141751069e-04
     7    1.341324814950754e-01   9.352113509874138e-02  -1.094472738426125e-02
     8    1.281365136193996e-04  -5.773603452286744e-05  -6.605611140697808e-04

Order 1, Length 24
    Atom      X          Y          Z
     1    4.209643759678502e-04   8.044721184964499e-05   3.072189889980222e-04
     2   -1.267135538798923e-03  -1.978289227386060e-03  -1.203742060984344e-03
     3   -9.282594504213613e-03  -4.331281151316096e-03   1.197263072482996e-04
     4    8.707870299882277e-02   1.716980308417033e-02  -1.938809494127479e-02
     5    6.909954505476676e-04   6.822357048039088e-04   1.703870639381323e-03
     6    7.058113069728410e-04  -7.876039103775400e-04  -8.590802564272262e-04
     7   -7.843708149663431e-02  -1.094472738426125e-02   2.010351968141265e-02
     8    9.034630544446359e-05   1.094192568632899e-04  -7.834218382660260e-04


     8 Order 1, Length 24
    Atom      X          Y          Z
     1   -4.137563873591410e-02   8.499576988622781e-02  -3.930852112267254e-03
     2   -1.404489127471677e-02  -4.321296579604732e-02   2.144355426772451e-02
     3   -1.830253703667267e-03  -2.926823928008913e-03  -1.494651489005890e-03
     4    6.707867697333153e-04   1.329681057147359e-03  -2.298372273020039e-05
     5    2.391055035663961e-04   5.274213735164517e-04   7.693835659125980e-04
     6   -1.812945721880951e-04  -1.413428335299304e-05   2.557696873950329e-04
     7   -1.643621276346970e-04   1.281365136193996e-04   9.034630544446359e-05
     8    5.668656130210117e-02  -4.082707276525405e-02  -1.711058450342938e-02

Order 1, Length 24
    Atom      X          Y          Z
     1    3.831472021566480e-02  -4.773007316023331e-01   1.197308441454468e-01
     2    1.185873210941899e-03   2.508850912011863e-03  -4.576848434934591e-03
     3    1.851434325577676e-03   2.012752697972553e-03   2.890133881494741e-03
     4   -1.996620194007002e-04  -1.212766319806519e-03   7.028732416136076e-05
     5   -5.524751243428573e-05  -1.146463266120184e-04  -8.212509281438254e-04
     6   -4.436935429747244e-04  -7.316872573219876e-05  -2.884596583283473e-04
     7    1.736814341177717e-04  -5.773603452286744e-05   1.094192568632899e-04
     8   -4.082707276525405e-02   4.742374422933805e-01  -1.171141203848959e-01

Order 1, Length 24
    Atom      X          Y          Z
     1    1.106649785472493e-02   9.505763794317035e-02  -3.466571259619684e-02
     2    3.786933630943375e-03   1.870232504838858e-02  -9.537129730285348e-03
     3    2.928142959052447e-03   5.090030694054806e-03  -3.510596898931747e-03
     4   -4.012210912098049e-04  -4.606751447971226e-04   1.237613350864812e-03
     5    5.462242408428191e-05  -6.391137915048874e-04  -5.585275932869413e-04
     6    2.058056348989581e-04   2.449383825667279e-05   2.079925035155123e-04
     7   -5.301899300374229e-04  -6.605611140697808e-04  -7.834218382660260e-04
     8   -1.711058450342938e-02  -1.171141203848959e-01   4.760978884785786e-02




 # Finishing finite difference calculation for IDERIV #
 ######################################################
 ######################################################
 Requested basis set is 6-311++G(2df,2p)
 There are 56 shells and 176 basis functions
 **********************************************************************
 **                                                                  **
 **                       VIBRATIONAL ANALYSIS                       **
 **                       --------------------                       **
 **                                                                  **
 **        VIBRATIONAL FREQUENCIES (CM**-1) AND NORMAL MODES         **
 **     FORCE CONSTANTS (mDYN/ANGSTROM) AND REDUCED MASSES (AMU)     **
 **                  INFRARED INTENSITIES (KM/MOL)                   **
 **                                                                  **
 **********************************************************************
 

 Mode:                 1                      2                      3
 Frequency:       174.91                 293.50                 329.18
 Force Cnst:      0.0813                 0.0579                 0.0707
 Red. Mass:       4.5126                 1.1405                 1.1070
 IR Active:          YES                    YES                    YES
 IR Intens:       19.542                394.851                 40.073
 Raman Active:       YES                    YES                    YES
               X      Y      Z        X      Y      Z        X      Y      Z
 O         -0.024  0.260  0.162   -0.039 -0.014 -0.061   -0.001 -0.001 -0.050
 O         -0.007 -0.194  0.025    0.011 -0.020  0.014    0.036 -0.031  0.006
 C         -0.142 -0.050  0.027    0.016  0.003  0.012   -0.020  0.028  0.008
 O          0.178 -0.025 -0.227   -0.017  0.021 -0.041   -0.007  0.026  0.014
 H         -0.296  0.237 -0.039    0.017 -0.013  0.002   -0.070  0.033 -0.080
 H         -0.315 -0.204  0.243    0.029  0.037  0.033   -0.061  0.019  0.102
 H          0.295 -0.334 -0.074    0.091 -0.068  0.444    0.182 -0.171  0.800
 H         -0.340  0.243  0.189    0.386  0.227  0.760   -0.253 -0.118 -0.431
 TransDip  -0.116 -0.041  0.071    0.244  0.064  0.584   -0.026 -0.091  0.179

 Mode:                 4                      5                      6
 Frequency:       437.97                 613.69                 942.32
 Force Cnst:      0.3162                 1.3128                 2.3259
 Red. Mass:       2.7978                 5.9161                 4.4457
 IR Active:          YES                    YES                    YES
 IR Intens:       28.786                 16.857                 30.338
 Raman Active:       YES                    YES                    YES
               X      Y      Z        X      Y      Z        X      Y      Z
 O          0.005 -0.006  0.205    0.006 -0.005 -0.143    0.295  0.056 -0.177
 O         -0.134  0.112 -0.017    0.117  0.304  0.202   -0.264 -0.072  0.023
 C          0.141 -0.066 -0.062   -0.029 -0.183  0.258   -0.106 -0.007  0.175
 O         -0.029 -0.033 -0.156   -0.079 -0.122 -0.255    0.013  0.037  0.003
 H          0.375 -0.295  0.206   -0.217 -0.068  0.003    0.223 -0.241  0.638
 H          0.362  0.108 -0.387   -0.188 -0.290  0.529    0.168  0.210 -0.229
 H          0.097 -0.083  0.523   -0.034 -0.238 -0.185    0.108 -0.305 -0.045
 H         -0.013 -0.089 -0.113    0.087 -0.040 -0.306    0.070  0.080 -0.045
 TransDip   0.118 -0.095  0.081    0.017 -0.105  0.078   -0.012 -0.051  0.168

 Mode:                 7                      8                      9
 Frequency:      1057.21                1182.04                1236.68
 Force Cnst:      0.9635                 4.0540                 3.4141
 Red. Mass:       1.4632                 4.9246                 3.7889
 IR Active:          YES                    YES                    YES
 IR Intens:       58.844                 67.160                316.784
 Raman Active:       YES                    YES                    YES
               X      Y      Z        X      Y      Z        X      Y      Z
 O          0.064  0.013 -0.019    0.091  0.006 -0.048    0.027 -0.001 -0.006
 O         -0.109 -0.016  0.026   -0.042  0.009  0.362   -0.047  0.009  0.056
 C          0.124 -0.011 -0.019   -0.039  0.152 -0.341    0.030 -0.322 -0.114
 O         -0.012 -0.031 -0.011   -0.010 -0.119 -0.007    0.007  0.300  0.056
 H         -0.157  0.482 -0.152   -0.052 -0.145 -0.583   -0.082 -0.529 -0.483
 H         -0.223 -0.417  0.230    0.021  0.303 -0.239   -0.105 -0.362  0.211
 H         -0.166  0.586  0.189    0.040 -0.361 -0.120    0.136 -0.170 -0.114
 H         -0.030  0.017  0.020   -0.156  0.037  0.128   -0.113  0.006  0.059
 TransDip   0.013  0.224  0.101   -0.075 -0.008 -0.252   -0.044 -0.513 -0.244

 Mode:                10                     11                     12
 Frequency:      1301.07                1385.32                1406.90
 Force Cnst:      1.3492                 1.3504                 1.3059
 Red. Mass:       1.3528                 1.1943                 1.1198
 IR Active:          YES                    YES                    YES
 IR Intens:       17.751                 28.095                 69.359
 Raman Active:       YES                    YES                    YES
               X      Y      Z        X      Y      Z        X      Y      Z
 O         -0.002  0.007  0.015    0.001  0.002 -0.002   -0.038  0.045  0.007
 O         -0.074 -0.012 -0.057   -0.010  0.004  0.001   -0.009 -0.048  0.038
 C          0.111  0.057  0.040   -0.087 -0.020 -0.001   -0.005  0.004 -0.001
 O         -0.022 -0.026  0.010    0.073 -0.027 -0.017    0.001  0.010 -0.001
 H         -0.068 -0.088 -0.425    0.016 -0.480 -0.144   -0.020 -0.053 -0.069
 H          0.067  0.328  0.657    0.070  0.406  0.305   -0.037 -0.140 -0.166
 H          0.077 -0.428 -0.147   -0.114  0.658  0.148   -0.001  0.026  0.012
 H          0.146 -0.000 -0.059    0.048 -0.001 -0.032    0.848  0.007 -0.464
 TransDip   0.107  0.001  0.082   -0.036  0.165  0.020    0.210  0.064 -0.151

 Mode:                13                     14                     15
 Frequency:      1437.49                1479.40                3085.85
 Force Cnst:      1.5789                 1.4824                 5.9435
 Red. Mass:       1.2968                 1.1496                 1.0593
 IR Active:          YES                    YES                    YES
 IR Intens:       87.161                 16.969                 47.051
 Raman Active:       YES                    YES                    YES
               X      Y      Z        X      Y      Z        X      Y      Z
 O         -0.010  0.008 -0.001    0.002  0.003 -0.002   -0.000 -0.000  0.000
 O          0.010  0.010  0.016   -0.003  0.002  0.008   -0.000 -0.000 -0.001
 C         -0.022 -0.074 -0.137   -0.013 -0.108  0.025   -0.024  0.051 -0.039
 O         -0.006  0.003  0.019    0.005  0.009  0.005   -0.000 -0.000  0.000
 H          0.216  0.346  0.645   -0.394  0.524 -0.210   -0.420 -0.168  0.218
 H         -0.048  0.254  0.534    0.454  0.493 -0.248    0.702 -0.437  0.243
 H          0.010 -0.068  0.007   -0.004  0.037  0.014    0.003  0.000  0.001
 H          0.162  0.004 -0.091    0.039 -0.001 -0.032   -0.001  0.003  0.000
 TransDip   0.054 -0.181 -0.232    0.000 -0.057 -0.119   -0.046  0.185 -0.110

 Mode:                16                     17                     18
 Frequency:      3163.33                3760.72                3823.60
 Force Cnst:      6.5495                 8.9027                 9.1882
 Red. Mass:       1.1109                 1.0684                 1.0667
 IR Active:          YES                    YES                    YES
 IR Intens:       16.054                123.478                135.467
 Raman Active:       YES                    YES                    YES
               X      Y      Z        X      Y      Z        X      Y      Z
 O          0.001  0.000 -0.001    0.005 -0.061  0.016    0.000 -0.001  0.000
 O         -0.001 -0.000  0.001    0.001  0.001 -0.001    0.000  0.000  0.000
 C         -0.095 -0.004  0.020    0.001  0.000  0.001   -0.002  0.000  0.000
 O          0.002  0.000 -0.001    0.001  0.000 -0.000   -0.059 -0.019  0.009
 H          0.721  0.296 -0.380   -0.000 -0.000 -0.002    0.013  0.006 -0.004
 H          0.395 -0.250  0.140   -0.002  0.001 -0.001    0.005  0.002  0.002
 H         -0.016  0.003  0.007   -0.015 -0.005  0.003    0.942  0.291 -0.154
 H          0.000  0.001 -0.001   -0.085  0.965 -0.240   -0.002  0.015 -0.005
 TransDip  -0.127 -0.002 -0.017    0.032  0.322 -0.148    0.325  0.181 -0.019

 STANDARD THERMODYNAMIC QUANTITIES AT   298.15 K  AND     1.00 ATM

   This Molecule has  0 Imaginary Frequencies
   Zero point vibrational energy:       38.757 kcal/mol

   Atom    1 Element O  Has Mass   15.99491
   Atom    2 Element O  Has Mass   15.99491
   Atom    3 Element C  Has Mass   12.00000
   Atom    4 Element O  Has Mass   15.99491
   Atom    5 Element H  Has Mass    1.00783
   Atom    6 Element H  Has Mass    1.00783
   Atom    7 Element H  Has Mass    1.00783
   Atom    8 Element H  Has Mass    1.00783
   Molecular Mass:    64.016050 amu
   Principal axes and moments of inertia in amu*Bohr^2:
                             1           2           3
    Eigenvalues --      102.87701   307.65475   367.28855
          X              -0.22487     0.64139     0.73352
          Y               0.41058     0.74508    -0.52563
          Z               0.88366    -0.18297     0.43089
   Rotational Symmetry Number is   1
   The Molecule is an Asymmetric Top
   Translational Enthalpy:        0.889 kcal/mol
   Rotational Enthalpy:           0.889 kcal/mol
   Vibrational Enthalpy:         40.004 kcal/mol
   gas constant (RT):             0.592 kcal/mol
   Translational Entropy:        38.388  cal/mol.K
   Rotational Entropy:           23.967  cal/mol.K
   Vibrational Entropy:           6.724  cal/mol.K

   Total Enthalpy:               42.374 kcal/mol
   Total Entropy:                69.079  cal/mol.K
 Total job time:  787.47s(wall), 11894.02s(cpu) 
 Thu Aug  1 14:03:13 2024

        *************************************************************
        *                                                           *
        *  Thank you very much for using Q-Chem.  Have a nice day.  *
        *                                                           *
        *************************************************************


