
Running Job 1 of 1 Q_in.in
qchem Q_in.in_455353.0 /scratch/ari.fischer/qChem2257874.hpc-mn1/qchem455353/ 0
/usr/local/qchem-5.4.1/exe/qcprog.exe_s Q_in.in_455353.0 /scratch/ari.fischer/qChem2257874.hpc-mn1/qchem455353/
                  Welcome to Q-Chem
     A Quantum Leap Into The Future Of Chemistry


 Q-Chem 5.4, Q-Chem, Inc., Pleasanton, CA (2021)

 License issued to: Nanyang Technological University (site)

 E. Epifanovsky,  A. T. B. Gilbert,  Xintian Feng,  Joonho Lee,  Yuezhi Mao,  
 N. Mardirossian,  P. Pokhilko,  A. White,  M. Wormit,  M. P. Coons,  
 A. L. Dempwolff,  Zhengting Gan,  D. Hait,  P. R. Horn,  L. D. Jacobson,  
 I. Kaliman,  J. Kussmann,  A. W. Lange,  Ka Un Lao,  D. S. Levine,  Jie Liu,  
 S. C. McKenzie,  A. F. Morrison,  K. Nanda,  F. Plasser,  D. R. Rehn,  
 M. L. Vidal,  Zhi-Qiang You,  Ying Zhu,  B. Alam,  B. Albrecht,  
 A. Aldossary,  E. Alguire,  J. H. Andersen,  D. Barton,  K. Begam,  A. Behn,  
 Y. A. Bernard,  E. J. Berquist,  H. Burton,  A. Carreras,  K. Carter-Fenk,  
 R. Chakraborty,  A. D. Chien,  K. D. Closser,  V. Cofer-Shabica,  
 S. Dasgupta,  Jia Deng,  M. de Wergifosse,  M. Diedenhofen,  Hainam Do,  
 S. Ehlert,  Po-Tung Fang,  S. Fatehi,  Qingguo Feng,  T. Friedhoff,  
 J. Gayvert,  Qinghui Ge,  G. Gidofalvi,  M. Goldey,  J. Gomes,  
 C. Gonzalez-Espinoza,  S. Gulania,  A. Gunina,  M. W. D. Hanson-Heine,  
 P. H. P. Harbach,  A. W. Hauser,  M. F. Herbst,  M. Hernandez Vera,  
 M. Hodecker,  Z. C. Holden,  S. Houck,  Xunkun Huang,  Kerwin Hui,  
 B. C. Huynh,  M. Ivanov,  Hyunjun Ji,  Hanjie Jiang,  B. Kaduk,  S. Kaehler,  
 K. Khistyaev,  Jaehoon Kim,  P. Klunzinger,  Z. Koczor-Benda,  
 Joong Hoon Koh,  D. Kosenkov,  L. Koulias,  T. Kowalczyk,  C. M. Krauter,  
 K. Kue,  A. Kunitsa,  T. Kus,  A. Landau,  K. V. Lawler,  D. Lefrancois,  
 S. Lehtola,  Rain Li,  Yi-Pei Li,  Jiashu Liang,  M. Liebenthal,  
 Hung-Hsuan Lin,  You-Sheng Lin,  Fenglai Liu,  Kuan-Yu Liu,  
 M. Loipersberger,  A. Luenser,  A. Manjanath,  P. Manohar,  E. Mansoor,  
 S. F. Manzer,  Shan-Ping Mao,  A. V. Marenich,  T. Markovich,  S. Mason,  
 S. A. Maurer,  P. F. McLaughlin,  M. F. S. J. Menger,  J.-M. Mewes,  
 S. A. Mewes,  P. Morgante,  J. W. Mullinax,  K. J. Oosterbaan,  G. Paran,  
 Alexander C. Paul,  Suranjan K. Paul,  F. Pavosevic,  Zheng Pei,  S. Prager,  
 E. I. Proynov,  E. Ramos,  B. Rana,  A. E. Rask,  A. Rettig,  R. M. Richard,  
 F. Rob,  E. Rossomme,  T. Scheele,  M. Scheurer,  M. Schneider,  
 N. Sergueev,  S. M. Sharada,  W. Skomorowski,  D. W. Small,  C. J. Stein,  
 Yu-Chuan Su,  E. J. Sundstrom,  Zhen Tao,  J. Thirman,  T. Tsuchimochi,  
 N. M. Tubman,  S. P. Veccham,  O. Vydrov,  J. Wenzel,  J. Witte,  A. Yamada,  
 Kun Yao,  S. Yeganeh,  S. R. Yost,  A. Zech,  Igor Ying Zhang,  Xing Zhang,  
 Yu Zhang,  D. Zuev,  A. Aspuru-Guzik,  A. T. Bell,  N. A. Besley,  
 K. B. Bravaya,  B. R. Brooks,  D. Casanova,  Jeng-Da Chai,  S. Coriani,  
 C. J. Cramer,  A. E. DePrince, III,  R. A. DiStasio Jr.,  A. Dreuw,  
 B. D. Dunietz,  T. R. Furlani,  W. A. Goddard III,  S. Grimme,  
 S. Hammes-Schiffer,  T. Head-Gordon,  W. J. Hehre,  Chao-Ping Hsu,  
 T.-C. Jagau,  Yousung Jung,  A. Klamt,  Jing Kong,  D. S. Lambrecht,  
 WanZhen Liang,  N. J. Mayhall,  C. W. McCurdy,  J. B. Neaton,  
 C. Ochsenfeld,  J. A. Parkhill,  R. Peverati,  V. A. Rassolov,  Yihan Shao,  
 L. V. Slipchenko,  T. Stauch,  R. P. Steele,  J. E. Subotnik,  
 A. J. W. Thom,  A. Tkatchenko,  D. G. Truhlar,  T. Van Voorhis,  
 T. A. Wesolowski,  K. B. Whaley,  H. L. Woodcock III,  P. M. Zimmerman,  
 S. Faraji,  P. M. W. Gill,  M. Head-Gordon,  J. M. Herbert,  A. I. Krylov

 Additional authors for Version 5.4.1: 
 S. Kotaru,  Shaozhi Li,  Xiangyuan Li,  F. Matz,  A. Molle,  Haisheng Ren,  
 Yingli Su,  Hung-Yi Tsai,  C. Utku,  Fang Wang

 Contributors to earlier versions of Q-Chem not listed above: 
 R. D. Adamson,  B. Austin,  R. Baer,  J. Baker,  G. J. O. Beran,  
 K. Brandhorst,  S. T. Brown,  E. F. C. Byrd,  A. K. Chakraborty,  
 G. K. L. Chan,  Chun-Min Chang,  Yunqing Chen,  C.-L. Cheng,  
 Siu Hung Chien,  D. M. Chipman,  D. L. Crittenden,  H. Dachsel,  
 R. J. Doerksen,  A. D. Dutoi,  R. G. Edgar,  J. Fosso-Tande,  
 L. Fusti-Molnar,  D. Ghosh,  A. Ghysels,  A. Golubeva-Zadorozhnaya,  
 J. Gonthier,  M. S. Gordon,  S. R. Gwaltney,  G. Hawkins,  J. E. Herr,  
 A. Heyden,  S. Hirata,  E. G. Hohenstein,  G. Kedziora,  F. J. Keil,  
 C. Kelley,  Jihan Kim,  R. A. King,  R. Z. Khaliullin,  P. P. Korambath,  
 W. Kurlancheek,  A. Laurent,  A. M. Lee,  M. S. Lee,  S. V. Levchenko,  
 Ching Yeh Lin,  D. Liotard,  E. Livshits,  R. C. Lochan,  I. Lotan,  
 L. A. Martinez-Martinez,  P. E. Maslen,  N. Nair,  D. P. O'Neill,  
 D. Neuhauser,  E. Neuscamman,  C. M. Oana,  R. Olivares-Amaya,  R. Olson,  
 T. M. Perrine,  B. Peters,  P. A. Pieniazek,  A. Prociuk,  Y. M. Rhee,  
 J. Ritchie,  M. A. Rohrdanz,  E. Rosta,  N. J. Russ,  H. F. Schaefer III,  
 M. W. Schmidt,  N. E. Schultz,  S. Sharma,  N. Shenvi,  C. D. Sherrill,  
 A. C. Simmonett,  A. Sodt,  T. Stein,  D. Stuck,  K. S. Thanthiriwatte,  
 V. Vanovschi,  L. Vogt,  Tao Wang,  A. Warshel,  M. A. Watson,  
 C. F. Williams,  Q. Wu,  X. Xu,  Jun Yang,  W. Zhang,  Yan Zhao

 Please cite Q-Chem as follows:
 Y. Shao et al., Mol. Phys. 113, 184-215 (2015)
 DOI: 10.1080/00268976.2014.952696

 Q-Chem 5.4.1 for Intel X86 EM64T Linux

 Parts of Q-Chem use Armadillo 9.800.1 (Horizon Scraper).
 http://arma.sourceforge.net/

 Q-Chem begins on Wed Jul 31 21:10:30 2024  

 Host: 
0

     Scratch files written to /scratch/ari.fischer/qChem2257874.hpc-mn1/qchem455353//
 Aug1521 |scratch|qcdevops|jenkins|workspace|build_RNUM 8249   
 Processing $rem in /usr/local/qchem-5.4.1/config/preferences:
 Processing $rem in /home/ari.fischer/.qchemrc:
 Symmetry turned off for PCM/SM12/SMD calculation

 Checking the input file for inconsistencies... 	...done.

--------------------------------------------------------------
User input:
--------------------------------------------------------------
$molecule
0 1
O         5.3758408312    1.0978109892    3.5372726765
O         4.1325142784    0.8075496310    4.1995342571
C         4.3436896055    1.0376506295    5.5803525241
O         4.4740308200    2.3996570517    5.8862882232
H         3.4261314772    0.6700662262    6.0449237695
H         5.2141454001    0.4635652418    5.9129952653
H         5.3910860218    2.6519758416    5.6894661476
H         5.2560353659    2.0381815890    3.3059395367
$end

$rem
BASIS = 6-311++G(2df,2p)
GUI = 2
JOB_TYPE = Optimization
METHOD = wB97M-V
SCF_ALGORITHM = DIIS_GDM
MAX_SCF_CYCLES = 400
GEOM_OPT_MAX_CYCLES = 150
SCF_CONVERGENCE = 7
THRESH = 12
Solvent_method = SMD
$end
--------------------------------------------------------------
 ----------------------------------------------------------------
             Standard Nuclear Orientation (Angstroms)
    I     Atom           X                Y                Z
 ----------------------------------------------------------------
    1      O       5.3758408312     1.0978109892     3.5372726765
    2      O       4.1325142784     0.8075496310     4.1995342571
    3      C       4.3436896055     1.0376506295     5.5803525241
    4      O       4.4740308200     2.3996570517     5.8862882232
    5      H       3.4261314772     0.6700662262     6.0449237695
    6      H       5.2141454001     0.4635652418     5.9129952653
    7      H       5.3910860218     2.6519758416     5.6894661476
    8      H       5.2560353659     2.0381815890     3.3059395367
 ----------------------------------------------------------------
 Nuclear Repulsion Energy =         134.04072150 hartrees
 There are       17 alpha and       17 beta electrons
 Requested basis set is 6-311++G(2df,2p)
 There are 56 shells and 176 basis functions

 Total QAlloc Memory Limit 288000 MB
 Mega-Array Size       188 MB
 MEM_STATIC part       192 MB
 
 Citation of the SMD model:
 Marenich, A.V.; Cramer, C.J.; Truhlar, D.G.
 J. Phys. Chem. B 2009, 113, 6378-6396.
 iSolventCode=           1
 Solvent: water                                                           
 
 vradii
            1           2           3           4           5           6
    1   1.5200000   1.5200000   1.8500000   1.5200000   1.2000000   1.2000000
            7           8
    1   1.2000000   1.2000000
 Changing PCM_VDW_RADII to SMD_RADIUS
 Discretize the solute cavity surface with Lebedev spheres
	Using 110 Lebedev grid points for each H atom
	Using 194 Lebedev grid points for other atoms
	Atomic van der Waals radii will be scaled by 1.20
 Remove points where switching function is < 1.0e-08
 Keep 700 surface tesserae and discard 516 interior tesserae
 Molecular Surface Area = 82.383 Angst**2
 A cutoff of  1.0D-12 yielded   1571 shell pairs
 There are     15674 function pairs (     19508 Cartesian)
 Smallest overlap matrix eigenvalue = 5.73E-04

 Scale SEOQF with 1.000000e-02/1.000000e-01/1.000000e-02

 Standard Electronic Orientation quadrupole field applied
 Nucleus-field energy     =    -0.0000000005 hartrees
 Guess from superposition of atomic densities
 Warning:  Energy on first SCF cycle will be non-variational
 SAD guess density has 34.000000 electrons

 -----------------------------------------------------------------------
  General SCF calculation program by
  Eric Jon Sundstrom, Paul Horn, Yuezhi Mao, Dmitri Zuev, Alec White,
  David Stuck, Shaama M.S., Shane Yost, Joonho Lee, David Small,
  Daniel Levine, Susi Lehtola, Hugh Burton, Evgeny Epifanovsky,
  Bang C. Huynh
 -----------------------------------------------------------------------
 Exchange:     0.1500 Hartree-Fock + 1.0000 wB97M-V + LR-HF
 Correlation:  1.0000 wB97M-V
 Using SG-2 standard quadrature grid
 Nonlocal Correlation:  VV10 with C = 0.0100 and b = 6.00 and scale = 1.00000
 Grid used for NLC:  SG-1 standard quadrature
 
 Citation of the SMD model:
 Marenich, A.V.; Cramer, C.J.; Truhlar, D.G.
 J. Phys. Chem. B 2009, 113, 6378-6396.
 iSolventCode=           1
 Solvent: water                                                           
 
 vradii
            1           2           3           4           5           6
    1   1.5200000   1.5200000   1.8500000   1.5200000   1.2000000   1.2000000
            7           8
    1   1.2000000   1.2000000
 using 16 threads for integral computing
 -------------------------------------------------------
 OpenMP Integral computing Module                
 Release: version 1.0, May 2013, Q-Chem Inc. Pittsburgh 
 -------------------------------------------------------
 -------------------------------------------------------
 OpenMP BLAS3 based DFT computing Module                
 Release: version 1.0, May 2013, Q-Chem Inc. Pittsburgh 
 -------------------------------------------------------
 A restricted SCF calculation will be
 performed using DIIS, GDM
 SCF converges when RMS gradient is below 1.0e-07
 ---------------------------------------
  Cycle       Energy         DIIS error
 ---------------------------------------
    1    -266.5105490199      3.47e-02  
    2    -266.0518374851      4.43e-03  Done DIIS. Switching to GDM
 ---------------------------------------
  Cycle       Energy        RMS Gradient
 ---------------------------------------
    1    -266.0518374851      3.51e-02   Normal BFGS step
    2    -266.0701153464      4.35e-02   Normal BFGS step
    3    -266.1101548163      4.15e-03   Normal BFGS step
    4    -266.1107011337      3.19e-03   Normal BFGS step
    5    -266.1110038663      1.22e-03   Normal BFGS step
    6    -266.1110276352      4.75e-04   Normal BFGS step
    7    -266.1110361839      1.39e-04   Normal BFGS step
    8    -266.1110365414      1.04e-04   Normal BFGS step
    9    -266.1110367395      1.06e-05   Normal BFGS step
   10    -266.1110367420      5.07e-06   Normal BFGS step
   11    -266.1110367425      6.51e-07   Normal BFGS step
   12    -266.1110367425      2.37e-07   Normal BFGS step
   13    -266.1110367425      8.38e-08  Convergence criterion met
 ---------------------------------------
 SCF time:   CPU 183.91s  wall 12.00s 
(3)  G-ENP(liq) elect-nuc-pol free energy of system     -266.111036742 a.u.
(4)  G-CDS(liq) cavity-dispersion-solvent structure 
     free energy                                                2.2127 kcal/mol
(6)  G-S(liq) free energy of system                     -266.107510635 a.u.
 SCF   energy in the final basis set =     -266.1075106354
 Total energy in the final basis set =     -266.1075106354
 
 --------------------------------------------------------------
 
                    Orbital Energies (a.u.)
 --------------------------------------------------------------
 
 Alpha MOs
 -- Occupied --
-19.4044 -19.3964 -19.3504 -10.4383  -1.2722  -1.1690  -1.0432  -0.7869
 -0.6601  -0.6477  -0.6038  -0.5735  -0.5138  -0.4737  -0.4379  -0.4107
 -0.4064
 -- Virtual --
  0.0285   0.0458   0.0576   0.0641   0.0867   0.1075   0.1265   0.1511
  0.1556   0.2009   0.2115   0.2150   0.2409   0.2439   0.2638   0.2704
  0.2749   0.2820   0.2932   0.3014   0.3046   0.3207   0.3565   0.3732
  0.4009   0.4231   0.4367   0.5597   0.5836   0.6008   0.6132   0.6395
  0.6643   0.6861   0.7249   0.7460   0.8167   0.8450   0.8768   0.9423
  0.9913   1.0091   1.0415   1.0485   1.0825   1.1017   1.1324   1.1689
  1.1885   1.2013   1.2115   1.2299   1.2685   1.3230   1.3664   1.3945
  1.4010   1.4630   1.4901   1.5227   1.5535   1.6012   1.6396   1.6733
  1.7049   1.7830   1.8313   1.9266   1.9553   2.0264   2.0968   2.1576
  2.2359   2.2961   2.3004   2.3499   2.3883   2.4010   2.5965   2.6363
  2.7125   2.8036   2.8534   3.1230   3.1546   3.2060   3.2722   3.3230
  3.3855   3.4179   3.4865   3.4935   3.5298   3.7043   3.7366   3.7924
  3.8112   3.8281   3.8815   3.8916   4.0130   4.1418   4.2272   4.2365
  4.2548   4.2922   4.3831   4.4340   4.6450   4.7232   4.8200   4.9624
  5.0360   5.0747   5.1774   5.1961   5.2280   5.2449   5.2596   5.2873
  5.3606   5.3676   5.4252   5.4530   5.4680   5.5762   5.5890   5.6077
  5.6321   5.7446   5.8188   5.9852   6.0459   6.1337   6.1869   6.4856
  6.6812   6.7883   6.9912   6.9983   7.0428   7.1446   7.1944   7.2361
  7.2475   7.2842   7.3780   7.4027   7.4365   7.5599   7.5983   7.7001
  7.7896   7.9017   8.1377  24.7429  50.4646  50.4970  50.5819
 --------------------------------------------------------------
 
          Ground-State Mulliken Net Atomic Charges

     Atom                 Charge (a.u.)
  ----------------------------------------
      1 O                    -0.344086
      2 O                    -0.159483
      3 C                    -0.137788
      4 O                    -0.447013
      5 H                     0.183915
      6 H                     0.214619
      7 H                     0.340380
      8 H                     0.349456
  ----------------------------------------
  Sum of atomic charges =     0.000000

 -----------------------------------------------------------------
                    Cartesian Multipole Moments
 -----------------------------------------------------------------
    Charge (ESU x 10^10)
                -0.0000
    Dipole Moment (Debye)
         X       1.7863      Y       1.1833      Z       0.9346
       Tot       2.3377
    Quadrupole Moments (Debye-Ang)
        XX      -6.8899     XY      11.9689     YY     -20.9048
        XZ      13.3695     YZ       0.8846     ZZ     -16.0294
    Octopole Moments (Debye-Ang^2)
       XXX    -209.1016    XXY      55.9504    XYY     -76.7214
       YYY     -89.4899    XXZ      -5.9547    XYZ      36.9954
       YYZ    -117.5935    XZZ     -26.4079    YZZ     -50.8045
       ZZZ    -301.8363
    Hexadecapole Moments (Debye-Ang^3)
      XXXX   -2338.4727   XXXY     128.8377   XXYY    -321.8887
      XYYY    -360.2380   YYYY    -329.4248   XXXZ    -824.3603
      XXYZ     175.4292   XYYZ    -435.2879   YYYZ    -498.3260
      XXZZ    -450.5519   XYZZ     -60.3610   YYZZ    -731.2230
      XZZZ   -1117.2749   YZZZ    -708.7924   ZZZZ   -3340.3848
 -----------------------------------------------------------------
 Calculating analytic gradient of the SCF energy
 Gradient of CDS energy
            1           2           3           4           5           6
    1  -0.0001548   0.0002895  -0.0002584  -0.0003443  -0.0001851   0.0002933
    2  -0.0002385   0.0002283   0.0028692  -0.0037730   0.0001111   0.0001650
    3   0.0001526   0.0002157   0.0016162  -0.0012060  -0.0002089  -0.0003688
            7           8
    1   0.0002801   0.0000797
    2   0.0003637   0.0002742
    3   0.0002210  -0.0004217
 Gradient of SCF Energy
            1           2           3           4           5           6
    1   0.0079953  -0.0082333   0.0042717  -0.0276792  -0.0061058   0.0082375
    2  -0.0241416  -0.0024310   0.0121033  -0.0020048  -0.0035595  -0.0053354
    3   0.0010552  -0.0013621  -0.0093271   0.0096283   0.0039339   0.0048833
            7           8
    1   0.0228735  -0.0013597
    2   0.0029145   0.0224545
    3  -0.0070481  -0.0017634
 Max gradient component =       2.768E-02
 RMS gradient           =       1.139E-02
 Computing fast CPCM-SWIG gradient
 Updating gradient with PCM contributions...
 -- total gradient after adding PCM contribution --
---------------------------------------------------
  Atom         X              Y              Z     
---------------------------------------------------
   1       0.005917      -0.006202       0.000718
   2      -0.005102      -0.001801      -0.001269
   3       0.003731       0.005009      -0.002170
   4      -0.008305       0.000107       0.003152
   5      -0.002486      -0.000844       0.001202
   6       0.002099      -0.002524       0.001159
   7       0.006694      -0.000283      -0.002311
   8      -0.002548       0.006539      -0.000481
---------------------------------------------------
 Number of fixed atoms: 0
 Gradient time:  CPU 30.64 s  wall 2.39 s
 Geometry Optimization Parameters
   NAtoms,    NIC,     NZ,  NCons,   NDum,   NFix, NCnnct, MaxDiis
        8      39       0       0       0       0       0       0


** GEOMETRY OPTIMIZATION IN DELOCALIZED INTERNAL COORDINATES **
   Searching for a Minimum

   Optimization Cycle:   1

                       Coordinates (Angstroms)
     ATOM                X               Y               Z
      1  O         5.3758408312    1.0978109892    3.5372726765
      2  O         4.1325142784    0.8075496310    4.1995342571
      3  C         4.3436896055    1.0376506295    5.5803525241
      4  O         4.4740308200    2.3996570517    5.8862882232
      5  H         3.4261314772    0.6700662262    6.0449237695
      6  H         5.2141454001    0.4635652418    5.9129952653
      7  H         5.3910860218    2.6519758416    5.6894661476
      8  H         5.2560353659    2.0381815890    3.3059395367
   Point Group: c1    Number of degrees of freedom:    18


   Energy is   -266.107510635


 Attempting to generate delocalized internal coordinates
 Initial Hessian constructed with Jon Baker's OPTIMIZE code

 18 Hessian modes will be used to form the next step
  Hessian Eigenvalues:
     0.004041    0.013569    0.015379    0.078764    0.097022    0.123607
     0.145529    0.160000    0.160000    0.223481    0.250000    0.342983
     0.345619    0.398197    0.431149    0.452882    0.522113    0.531153

 Minimum search - taking simple RFO step
 Searching for Lamda that Minimizes Along All modes
 Value Taken    Lamda =  -0.00065663
 Step Taken.  Stepsize is  0.134800

                             Maximum     Tolerance    Cnvgd?
         Gradient           0.005365      0.000300      NO
         Displacement       0.079784      0.001200      NO
         Energy change     *********      0.000001      NO


 New Cartesian Coordinates Obtained by Inverse Iteration

 Displacement from previous Coordinates is:  0.228733
 ----------------------------------------------------------------
             Standard Nuclear Orientation (Angstroms)
    I     Atom           X                Y                Z
 ----------------------------------------------------------------
    1      O       5.3765050686     1.0933249959     3.5337312165
    2      O       4.1342327310     0.8380772184     4.2040820209
    3      C       4.3426861352     1.0384081539     5.5880587511
    4      O       4.4715433088     2.3951977137     5.9175375592
    5      H       3.4296686593     0.6611005271     6.0433431053
    6      H       5.2134093489     0.4671342189     5.9077064942
    7      H       5.3796251616     2.6703612180     5.7439884122
    8      H       5.2658033866     2.0028531540     3.2183248407
 ----------------------------------------------------------------
 Nuclear Repulsion Energy =         133.90259716 hartrees
 There are       17 alpha and       17 beta electrons
 Discretize the solute cavity surface with Lebedev spheres
	Using 110 Lebedev grid points for each H atom
	Using 194 Lebedev grid points for other atoms
	Atomic van der Waals radii will be scaled by 1.20
 Remove points where switching function is < 1.0e-08
 Keep 695 surface tesserae and discard 521 interior tesserae
 Molecular Surface Area = 82.452 Angst**2
 Applying Cartesian multipole field
    Component          Value
    ---------          -----
     (2,0,0)        1.00000E-12
     (0,2,0)        2.00000E-11
     (0,0,2)       -3.00000E-12
 Nucleus-field energy     =    -0.0000000005 hartrees
 Requested basis set is 6-311++G(2df,2p)
 There are 56 shells and 176 basis functions
 A cutoff of  1.0D-12 yielded   1569 shell pairs
 There are     15670 function pairs (     19504 Cartesian)
 Smallest overlap matrix eigenvalue = 5.77E-04
 Guess MOs from SCF MO coefficient file

 -----------------------------------------------------------------------
  General SCF calculation program by
  Eric Jon Sundstrom, Paul Horn, Yuezhi Mao, Dmitri Zuev, Alec White,
  David Stuck, Shaama M.S., Shane Yost, Joonho Lee, David Small,
  Daniel Levine, Susi Lehtola, Hugh Burton, Evgeny Epifanovsky,
  Bang C. Huynh
 -----------------------------------------------------------------------
 Exchange:     0.1500 Hartree-Fock + 1.0000 wB97M-V + LR-HF
 Correlation:  1.0000 wB97M-V
 Using SG-2 standard quadrature grid
 Nonlocal Correlation:  VV10 with C = 0.0100 and b = 6.00 and scale = 1.00000
 Grid used for NLC:  SG-1 standard quadrature
 
 Citation of the SMD model:
 Marenich, A.V.; Cramer, C.J.; Truhlar, D.G.
 J. Phys. Chem. B 2009, 113, 6378-6396.
 iSolventCode=           1
 Solvent: water                                                           
 
 vradii
            1           2           3           4           5           6
    1   1.5200000   1.5200000   1.8500000   1.5200000   1.2000000   1.2000000
            7           8
    1   1.2000000   1.2000000
 -------------------------------------------------------
 OpenMP BLAS3 based DFT computing Module                
 Release: version 1.0, May 2013, Q-Chem Inc. Pittsburgh 
 -------------------------------------------------------
 A restricted SCF calculation will be
 performed using Roothaan-Hall, DIIS, GDM
 SCF converges when RMS gradient is below 1.0e-07
 ---------------------------------------
  Cycle       Energy         DIIS error
 ---------------------------------------
    1    -266.0840341747      9.89e-04  Roothaan Step
 ---------------------------------------
  Cycle       Energy         DIIS error
 ---------------------------------------
    1    -266.1073031875      8.31e-04  
    2    -266.1105902599      5.17e-04  Done DIIS. Switching to GDM
 ---------------------------------------
  Cycle       Energy        RMS Gradient
 ---------------------------------------
    1    -266.1105902599      4.89e-03   Normal BFGS step
    2    -266.1108281083      5.60e-03   Normal BFGS step
    3    -266.1113647858      5.15e-04   Normal BFGS step
    4    -266.1113727644      3.77e-04   Normal BFGS step
    5    -266.1113762279      1.02e-04   Normal BFGS step
    6    -266.1113764407      5.43e-05   Normal BFGS step
    7    -266.1113765149      1.67e-05   Normal BFGS step
    8    -266.1113765232      6.83e-06   Normal BFGS step
    9    -266.1113765248      3.16e-06   Normal BFGS step
   10    -266.1113765249      9.44e-07   Normal BFGS step
   11    -266.1113765249      3.68e-07   Normal BFGS step
   12    -266.1113765250      9.47e-08  Convergence criterion met
 ---------------------------------------
 SCF time:   CPU 179.74s  wall 12.00s 
(3)  G-ENP(liq) elect-nuc-pol free energy of system     -266.111376525 a.u.
(4)  G-CDS(liq) cavity-dispersion-solvent structure 
     free energy                                                2.2699 kcal/mol
(6)  G-S(liq) free energy of system                     -266.107759176 a.u.
 SCF   energy in the final basis set =     -266.1077591763
 Total energy in the final basis set =     -266.1077591763
 
 --------------------------------------------------------------
 
                    Orbital Energies (a.u.)
 --------------------------------------------------------------
 
 Alpha MOs
 -- Occupied --
-19.4038 -19.3954 -19.3486 -10.4377  -1.2726  -1.1692  -1.0445  -0.7890
 -0.6624  -0.6479  -0.6039  -0.5752  -0.5128  -0.4725  -0.4393  -0.4123
 -0.4025
 -- Virtual --
  0.0284   0.0459   0.0572   0.0635   0.0872   0.1076   0.1276   0.1508
  0.1563   0.2024   0.2131   0.2161   0.2402   0.2466   0.2656   0.2707
  0.2748   0.2818   0.2926   0.3014   0.3057   0.3204   0.3576   0.3746
  0.4009   0.4203   0.4415   0.5614   0.5902   0.6037   0.6096   0.6402
  0.6627   0.6881   0.7304   0.7730   0.8185   0.8475   0.8739   0.9170
  0.9934   1.0009   1.0407   1.0480   1.0813   1.1024   1.1309   1.1711
  1.1868   1.2037   1.2112   1.2340   1.2682   1.3237   1.3707   1.3956
  1.4033   1.4645   1.4931   1.5271   1.5555   1.6022   1.6429   1.6685
  1.7018   1.7782   1.8365   1.9205   1.9629   2.0194   2.0981   2.1607
  2.2371   2.2939   2.3005   2.3452   2.3836   2.4062   2.5903   2.6424
  2.7109   2.8079   2.8481   3.1275   3.1582   3.2086   3.2764   3.3178
  3.3867   3.4168   3.4912   3.4941   3.5339   3.7104   3.7478   3.7917
  3.8131   3.8332   3.8657   3.9047   4.0028   4.1429   4.2327   4.2444
  4.2642   4.3064   4.3905   4.4423   4.6496   4.7285   4.8178   4.9718
  5.0379   5.0831   5.1789   5.1976   5.2315   5.2436   5.2597   5.2795
  5.3572   5.3683   5.4364   5.4477   5.4782   5.5619   5.6079   5.6223
  5.6427   5.7419   5.8196   6.0100   6.0674   6.1363   6.2051   6.4921
  6.6865   6.8032   6.9855   7.0026   7.0455   7.1504   7.1967   7.2550
  7.2732   7.2786   7.3687   7.4035   7.4475   7.5766   7.6131   7.7077
  7.7901   7.9052   8.1333  24.7582  50.4653  50.4978  50.5847
 --------------------------------------------------------------
 
          Ground-State Mulliken Net Atomic Charges

     Atom                 Charge (a.u.)
  ----------------------------------------
      1 O                    -0.347055
      2 O                    -0.155771
      3 C                    -0.136092
      4 O                    -0.450640
      5 H                     0.185666
      6 H                     0.215214
      7 H                     0.340220
      8 H                     0.348457
  ----------------------------------------
  Sum of atomic charges =     0.000000

 -----------------------------------------------------------------
                    Cartesian Multipole Moments
 -----------------------------------------------------------------
    Charge (ESU x 10^10)
                -0.0000
    Dipole Moment (Debye)
         X       1.7941      Y       1.1196      Z       0.7728
       Tot       2.2516
    Quadrupole Moments (Debye-Ang)
        XX      -6.8433     XY      11.7364     YY     -21.0529
        XZ      12.6467     YZ       0.3408     ZZ     -16.9821
    Octopole Moments (Debye-Ang^2)
       XXX    -208.9800    XXY      54.9349    XYY     -77.2889
       YYY     -90.0183    XXZ      -9.5602    XYZ      34.8882
       YYZ    -118.5486    XZZ     -30.1175    YZZ     -53.4604
       ZZZ    -306.6715
    Hexadecapole Moments (Debye-Ang^3)
      XXXX   -2339.0940   XXXY     123.6801   XXYY    -324.3942
      XYYY    -361.9189   YYYY    -329.6098   XXXZ    -843.8003
      XXYZ     165.9727   XYYZ    -438.3062   YYYZ    -500.9274
      XXZZ    -467.7433   XYZZ     -68.4926   YYZZ    -735.3574
      XZZZ   -1130.8431   YZZZ    -721.1605   ZZZZ   -3373.9697
 -----------------------------------------------------------------
 Calculating analytic gradient of the SCF energy
 Gradient of CDS energy
            1           2           3           4           5           6
    1  -0.0001656   0.0003326  -0.0003026  -0.0003389  -0.0001742   0.0002783
    2  -0.0002342   0.0002681   0.0027473  -0.0037226   0.0001149   0.0001796
    3   0.0001625   0.0005279   0.0013650  -0.0012667  -0.0002128  -0.0003652
            7           8
    1   0.0002777   0.0000927
    2   0.0003783   0.0002685
    3   0.0002185  -0.0004292
 Gradient of SCF Energy
            1           2           3           4           5           6
    1   0.0036437  -0.0046817  -0.0003565  -0.0186968  -0.0036599   0.0058002
    2  -0.0161589  -0.0013772   0.0063572  -0.0024729  -0.0029754  -0.0028606
    3   0.0003882   0.0013114  -0.0056858   0.0055808   0.0028407   0.0035520
            7           8
    1   0.0161940   0.0017571
    2   0.0038253   0.0156625
    3  -0.0040919  -0.0038954
 Max gradient component =       1.870E-02
 RMS gradient           =       7.642E-03
 Computing fast CPCM-SWIG gradient
 Updating gradient with PCM contributions...
 -- total gradient after adding PCM contribution --
---------------------------------------------------
  Atom         X              Y              Z     
---------------------------------------------------
   1       0.001440       0.000795      -0.001317
   2      -0.001300      -0.000766       0.001129
   3      -0.000928      -0.000402       0.001195
   4      -0.000238      -0.000253       0.000095
   5      -0.000173      -0.000203       0.000218
   6      -0.000165      -0.000196       0.000015
   7       0.000675       0.000570      -0.000216
   8       0.000689       0.000456      -0.001119
---------------------------------------------------
 Number of fixed atoms: 0
 Gradient time:  CPU 30.67 s  wall 2.48 s
 Geometry Optimization Parameters
   NAtoms,    NIC,     NZ,  NCons,   NDum,   NFix, NCnnct, MaxDiis
        8      39       0       0       0       0       0       0

 Cartesian Hessian Update
 Hessian updated using BFGS update


** GEOMETRY OPTIMIZATION IN DELOCALIZED INTERNAL COORDINATES **
   Searching for a Minimum

   Optimization Cycle:   2

                       Coordinates (Angstroms)
     ATOM                X               Y               Z
      1  O         5.3765050686    1.0933249959    3.5337312165
      2  O         4.1342327310    0.8380772184    4.2040820209
      3  C         4.3426861352    1.0384081539    5.5880587511
      4  O         4.4715433088    2.3951977137    5.9175375592
      5  H         3.4296686593    0.6611005271    6.0433431053
      6  H         5.2134093489    0.4671342189    5.9077064942
      7  H         5.3796251616    2.6703612180    5.7439884122
      8  H         5.2658033866    2.0028531540    3.2183248407
   Point Group: c1    Number of degrees of freedom:    18


   Energy is   -266.107759176

 Hessian updated using BFGS update

 18 Hessian modes will be used to form the next step
  Hessian Eigenvalues:
     0.005250    0.012522    0.015263    0.078992    0.096592    0.123343
     0.145140    0.155773    0.175570    0.223861    0.280159    0.320456
     0.344658    0.389940    0.428197    0.453021    0.501352    0.527031

 Minimum search - taking simple RFO step
 Searching for Lamda that Minimizes Along All modes
 Value Taken    Lamda =  -0.00021315
 Step Taken.  Stepsize is  0.157836

                             Maximum     Tolerance    Cnvgd?
         Gradient           0.002931      0.000300      NO
         Displacement       0.102365      0.001200      NO
         Energy change     -0.000249      0.000001      NO


 New Cartesian Coordinates Obtained by Inverse Iteration

 Displacement from previous Coordinates is:  0.244386
 ----------------------------------------------------------------
             Standard Nuclear Orientation (Angstroms)
    I     Atom           X                Y                Z
 ----------------------------------------------------------------
    1      O       5.3452167460     1.0660775603     3.5134989047
    2      O       4.1122045550     0.8339385588     4.1990344477
    3      C       4.3450638606     1.0393584603     5.5766538264
    4      O       4.4687114045     2.3978552303     5.8998645643
    5      H       3.4444335098     0.6576575654     6.0484709227
    6      H       5.2258788466     0.4785343198     5.8815881860
    7      H       5.3697984049     2.6813876400     5.7187271096
    8      H       5.3021664727     2.0116478652     3.3189344387
 ----------------------------------------------------------------
 Nuclear Repulsion Energy =         134.19120864 hartrees
 There are       17 alpha and       17 beta electrons
 Discretize the solute cavity surface with Lebedev spheres
	Using 110 Lebedev grid points for each H atom
	Using 194 Lebedev grid points for other atoms
	Atomic van der Waals radii will be scaled by 1.20
 Remove points where switching function is < 1.0e-08
 Keep 701 surface tesserae and discard 515 interior tesserae
 Molecular Surface Area = 82.216 Angst**2
 Applying Cartesian multipole field
    Component          Value
    ---------          -----
     (2,0,0)        1.00000E-12
     (0,2,0)        2.00000E-11
     (0,0,2)       -3.00000E-12
 Nucleus-field energy     =    -0.0000000005 hartrees
 Requested basis set is 6-311++G(2df,2p)
 There are 56 shells and 176 basis functions
 A cutoff of  1.0D-12 yielded   1569 shell pairs
 There are     15668 function pairs (     19502 Cartesian)
 Smallest overlap matrix eigenvalue = 5.74E-04
 Guess MOs from SCF MO coefficient file

 -----------------------------------------------------------------------
  General SCF calculation program by
  Eric Jon Sundstrom, Paul Horn, Yuezhi Mao, Dmitri Zuev, Alec White,
  David Stuck, Shaama M.S., Shane Yost, Joonho Lee, David Small,
  Daniel Levine, Susi Lehtola, Hugh Burton, Evgeny Epifanovsky,
  Bang C. Huynh
 -----------------------------------------------------------------------
 Exchange:     0.1500 Hartree-Fock + 1.0000 wB97M-V + LR-HF
 Correlation:  1.0000 wB97M-V
 Using SG-2 standard quadrature grid
 Nonlocal Correlation:  VV10 with C = 0.0100 and b = 6.00 and scale = 1.00000
 Grid used for NLC:  SG-1 standard quadrature
 
 Citation of the SMD model:
 Marenich, A.V.; Cramer, C.J.; Truhlar, D.G.
 J. Phys. Chem. B 2009, 113, 6378-6396.
 iSolventCode=           1
 Solvent: water                                                           
 
 vradii
            1           2           3           4           5           6
    1   1.5200000   1.5200000   1.8500000   1.5200000   1.2000000   1.2000000
            7           8
    1   1.2000000   1.2000000
 -------------------------------------------------------
 OpenMP BLAS3 based DFT computing Module                
 Release: version 1.0, May 2013, Q-Chem Inc. Pittsburgh 
 -------------------------------------------------------
 A restricted SCF calculation will be
 performed using Roothaan-Hall, DIIS, GDM
 SCF converges when RMS gradient is below 1.0e-07
 ---------------------------------------
  Cycle       Energy         DIIS error
 ---------------------------------------
    1    -266.0812531553      1.21e-03  Roothaan Step
 ---------------------------------------
  Cycle       Energy         DIIS error
 ---------------------------------------
    1    -266.1067381727      8.98e-04  
    2    -266.1104657035      5.60e-04  Done DIIS. Switching to GDM
 ---------------------------------------
  Cycle       Energy        RMS Gradient
 ---------------------------------------
    1    -266.1104657035      4.97e-03   Normal BFGS step
    2    -266.1107469563      5.13e-03   Normal BFGS step
    3    -266.1113444752      5.50e-04   Normal BFGS step
    4    -266.1113526006      2.76e-04   Normal BFGS step
    5    -266.1113546702      8.52e-05   Normal BFGS step
    6    -266.1113549117      2.54e-05   Normal BFGS step
    7    -266.1113549332      1.96e-05   Normal BFGS step
    8    -266.1113549403      8.04e-06   Normal BFGS step
    9    -266.1113549414      2.93e-06   Normal BFGS step
   10    -266.1113549416      1.07e-06   Normal BFGS step
   11    -266.1113549416      4.52e-07   Normal BFGS step
   12    -266.1113549416      7.49e-08  Convergence criterion met
 ---------------------------------------
 SCF time:   CPU 180.37s  wall 11.00s 
(3)  G-ENP(liq) elect-nuc-pol free energy of system     -266.111354942 a.u.
(4)  G-CDS(liq) cavity-dispersion-solvent structure 
     free energy                                                2.2315 kcal/mol
(6)  G-S(liq) free energy of system                     -266.107798885 a.u.
 SCF   energy in the final basis set =     -266.1077988853
 Total energy in the final basis set =     -266.1077988853
 
 --------------------------------------------------------------
 
                    Orbital Energies (a.u.)
 --------------------------------------------------------------
 
 Alpha MOs
 -- Occupied --
-19.4040 -19.3953 -19.3485 -10.4371  -1.2757  -1.1700  -1.0444  -0.7905
 -0.6629  -0.6508  -0.6058  -0.5732  -0.5147  -0.4726  -0.4378  -0.4097
 -0.4068
 -- Virtual --
  0.0286   0.0459   0.0583   0.0635   0.0878   0.1078   0.1298   0.1511
  0.1556   0.2024   0.2119   0.2149   0.2443   0.2452   0.2656   0.2699
  0.2754   0.2827   0.2921   0.3017   0.3048   0.3217   0.3574   0.3756
  0.4014   0.4244   0.4355   0.5613   0.5895   0.6040   0.6193   0.6424
  0.6652   0.6865   0.7277   0.7461   0.8178   0.8428   0.8787   0.9443
  0.9863   1.0037   1.0408   1.0488   1.0796   1.1017   1.1342   1.1670
  1.1896   1.2025   1.2137   1.2302   1.2658   1.3226   1.3718   1.3936
  1.4085   1.4680   1.4970   1.5278   1.5573   1.6039   1.6386   1.6742
  1.7039   1.7868   1.8209   1.9394   1.9676   2.0209   2.0929   2.1539
  2.2393   2.3047   2.3124   2.3572   2.3743   2.4012   2.5912   2.6313
  2.7121   2.7988   2.8491   3.1270   3.1591   3.2077   3.2829   3.3102
  3.3857   3.4274   3.4943   3.4961   3.5347   3.7035   3.7419   3.7950
  3.8173   3.8317   3.8804   3.9081   4.0197   4.1538   4.2343   4.2456
  4.2681   4.3102   4.3944   4.4455   4.6550   4.7268   4.8240   4.9624
  5.0367   5.0843   5.1764   5.2004   5.2301   5.2463   5.2607   5.2861
  5.3635   5.3684   5.4294   5.4535   5.4702   5.5730   5.6012   5.6302
  5.6524   5.7522   5.8293   6.0149   6.0789   6.1435   6.2156   6.4961
  6.6904   6.8199   6.9943   7.0033   7.0464   7.1583   7.2040   7.2593
  7.2803   7.2927   7.3692   7.4082   7.4450   7.5744   7.6201   7.7125
  7.7910   7.9146   8.1299  24.7666  50.4674  50.4997  50.5887
 --------------------------------------------------------------
 
          Ground-State Mulliken Net Atomic Charges

     Atom                 Charge (a.u.)
  ----------------------------------------
      1 O                    -0.344797
      2 O                    -0.154080
      3 C                    -0.136963
      4 O                    -0.449373
      5 H                     0.184787
      6 H                     0.215287
      7 H                     0.338669
      8 H                     0.346470
  ----------------------------------------
  Sum of atomic charges =     0.000000

 -----------------------------------------------------------------
                    Cartesian Multipole Moments
 -----------------------------------------------------------------
    Charge (ESU x 10^10)
                -0.0000
    Dipole Moment (Debye)
         X       1.9823      Y       1.2076      Z       1.0117
       Tot       2.5321
    Quadrupole Moments (Debye-Ang)
        XX      -4.9749     XY      12.5129     YY     -20.7169
        XZ      14.5393     YZ       1.2109     ZZ     -15.5301
    Octopole Moments (Debye-Ang^2)
       XXX    -193.9317    XXY      60.6976    XYY     -74.6874
       YYY     -88.5831    XXZ       3.4844    XYZ      40.4504
       YYZ    -115.8497    XZZ     -20.1703    YZZ     -48.5548
       ZZZ    -299.3227
    Hexadecapole Moments (Debye-Ang^3)
      XXXX   -2225.0742   XXXY     164.2495   XXYY    -306.5006
      XYYY    -352.3719   YYYY    -325.0884   XXXZ    -755.9505
      XXYZ     200.7241   XYYZ    -421.6170   YYYZ    -491.9579
      XXZZ    -403.2274   XYZZ     -39.8085   YYZZ    -719.7190
      XZZZ   -1084.1789   YZZZ    -696.2953   ZZZZ   -3330.9969
 -----------------------------------------------------------------
 Calculating analytic gradient of the SCF energy
 Gradient of CDS energy
            1           2           3           4           5           6
    1  -0.0001678   0.0003895  -0.0003535  -0.0003330  -0.0001767   0.0002685
    2  -0.0002434   0.0003307   0.0027295  -0.0037695   0.0001157   0.0001874
    3   0.0001494   0.0008496   0.0010342  -0.0012660  -0.0002123  -0.0003707
            7           8
    1   0.0002671   0.0001060
    2   0.0003758   0.0002739
    3   0.0002325  -0.0004168
 Gradient of SCF Energy
            1           2           3           4           5           6
    1   0.0010852  -0.0038982   0.0004756  -0.0176020  -0.0028231   0.0057378
    2  -0.0162296  -0.0001326   0.0066857  -0.0032515  -0.0027624  -0.0020480
    3  -0.0004741   0.0003540  -0.0068686   0.0057253   0.0020565   0.0034803
            7           8
    1   0.0147217   0.0023030
    2   0.0037365   0.0140019
    3  -0.0045946   0.0003213
 Max gradient component =       1.760E-02
 RMS gradient           =       7.210E-03
 Computing fast CPCM-SWIG gradient
 Updating gradient with PCM contributions...
 -- total gradient after adding PCM contribution --
---------------------------------------------------
  Atom         X              Y              Z     
---------------------------------------------------
   1       0.000043       0.001907      -0.000272
   2      -0.000536       0.000230       0.000377
   3       0.000244      -0.000165      -0.000112
   4       0.002287      -0.000397      -0.000396
   5       0.000714       0.000050      -0.000721
   6      -0.000713       0.000593      -0.000098
   7      -0.002001      -0.000026       0.000249
   8      -0.000039      -0.002192       0.000974
---------------------------------------------------
 Number of fixed atoms: 0
 Gradient time:  CPU 30.16 s  wall 2.36 s
 Geometry Optimization Parameters
   NAtoms,    NIC,     NZ,  NCons,   NDum,   NFix, NCnnct, MaxDiis
        8      39       0       0       0       0       0       0

 Cartesian Hessian Update
 Hessian updated using BFGS update


** GEOMETRY OPTIMIZATION IN DELOCALIZED INTERNAL COORDINATES **
   Searching for a Minimum

   Optimization Cycle:   3

                       Coordinates (Angstroms)
     ATOM                X               Y               Z
      1  O         5.3452167460    1.0660775603    3.5134989047
      2  O         4.1122045550    0.8339385588    4.1990344477
      3  C         4.3450638606    1.0393584603    5.5766538264
      4  O         4.4687114045    2.3978552303    5.8998645643
      5  H         3.4444335098    0.6576575654    6.0484709227
      6  H         5.2258788466    0.4785343198    5.8815881860
      7  H         5.3697984049    2.6813876400    5.7187271096
      8  H         5.3021664727    2.0116478652    3.3189344387
   Point Group: c1    Number of degrees of freedom:    18


   Energy is   -266.107798885

 Hessian updated using BFGS update

 18 Hessian modes will be used to form the next step
  Hessian Eigenvalues:
     0.007624    0.013155    0.015606    0.079037    0.096651    0.123169
     0.145805    0.160007    0.172159    0.223642    0.285496    0.342159
     0.346096    0.380692    0.435313    0.455065    0.522884    0.527022

 Minimum search - taking simple RFO step
 Searching for Lamda that Minimizes Along All modes
 Value Taken    Lamda =  -0.00008564
 Step Taken.  Stepsize is  0.068694

                             Maximum     Tolerance    Cnvgd?
         Gradient           0.001567      0.000300      NO
         Displacement       0.042900      0.001200      NO
         Energy change     -0.000040      0.000001      NO


 New Cartesian Coordinates Obtained by Inverse Iteration

 Displacement from previous Coordinates is:  0.110459
 ----------------------------------------------------------------
             Standard Nuclear Orientation (Angstroms)
    I     Atom           X                Y                Z
 ----------------------------------------------------------------
    1      O       5.3595404438     1.0768413545     3.5228352965
    2      O       4.1237260193     0.8327469187     4.2000973912
    3      C       4.3442896038     1.0396041627     5.5803480695
    4      O       4.4686760928     2.3981623741     5.9040025782
    5      H       3.4373914579     0.6612539133     6.0458497687
    6      H       5.2215244947     0.4751689519     5.8939798409
    7      H       5.3766283198     2.6725020334     5.7334457213
    8      H       5.2816973681     2.0101774914     3.2762137338
 ----------------------------------------------------------------
 Nuclear Repulsion Energy =         134.09516907 hartrees
 There are       17 alpha and       17 beta electrons
 Discretize the solute cavity surface with Lebedev spheres
	Using 110 Lebedev grid points for each H atom
	Using 194 Lebedev grid points for other atoms
	Atomic van der Waals radii will be scaled by 1.20
 Remove points where switching function is < 1.0e-08
 Keep 700 surface tesserae and discard 516 interior tesserae
 Molecular Surface Area = 82.316 Angst**2
 Applying Cartesian multipole field
    Component          Value
    ---------          -----
     (2,0,0)        1.00000E-12
     (0,2,0)        2.00000E-11
     (0,0,2)       -3.00000E-12
 Nucleus-field energy     =    -0.0000000005 hartrees
 Requested basis set is 6-311++G(2df,2p)
 There are 56 shells and 176 basis functions
 A cutoff of  1.0D-12 yielded   1569 shell pairs
 There are     15668 function pairs (     19502 Cartesian)
 Smallest overlap matrix eigenvalue = 5.74E-04
 Guess MOs from SCF MO coefficient file

 -----------------------------------------------------------------------
  General SCF calculation program by
  Eric Jon Sundstrom, Paul Horn, Yuezhi Mao, Dmitri Zuev, Alec White,
  David Stuck, Shaama M.S., Shane Yost, Joonho Lee, David Small,
  Daniel Levine, Susi Lehtola, Hugh Burton, Evgeny Epifanovsky,
  Bang C. Huynh
 -----------------------------------------------------------------------
 Exchange:     0.1500 Hartree-Fock + 1.0000 wB97M-V + LR-HF
 Correlation:  1.0000 wB97M-V
 Using SG-2 standard quadrature grid
 Nonlocal Correlation:  VV10 with C = 0.0100 and b = 6.00 and scale = 1.00000
 Grid used for NLC:  SG-1 standard quadrature
 
 Citation of the SMD model:
 Marenich, A.V.; Cramer, C.J.; Truhlar, D.G.
 J. Phys. Chem. B 2009, 113, 6378-6396.
 iSolventCode=           1
 Solvent: water                                                           
 
 vradii
            1           2           3           4           5           6
    1   1.5200000   1.5200000   1.8500000   1.5200000   1.2000000   1.2000000
            7           8
    1   1.2000000   1.2000000
 -------------------------------------------------------
 OpenMP BLAS3 based DFT computing Module                
 Release: version 1.0, May 2013, Q-Chem Inc. Pittsburgh 
 -------------------------------------------------------
 A restricted SCF calculation will be
 performed using Roothaan-Hall, DIIS, GDM
 SCF converges when RMS gradient is below 1.0e-07
 ---------------------------------------
  Cycle       Energy         DIIS error
 ---------------------------------------
    1    -266.0844364701      8.89e-04  Roothaan Step
 ---------------------------------------
  Cycle       Energy         DIIS error
 ---------------------------------------
    1    -266.1072637296      8.52e-04  
    2    -266.1106029479      5.36e-04  Done DIIS. Switching to GDM
 ---------------------------------------
  Cycle       Energy        RMS Gradient
 ---------------------------------------
    1    -266.1106029479      5.18e-03   Normal BFGS step
    2    -266.1108326935      5.85e-03   Normal BFGS step
    3    -266.1114073947      4.92e-04   Normal BFGS step
    4    -266.1114146207      3.56e-04   Normal BFGS step
    5    -266.1114180407      9.35e-05   Normal BFGS step
    6    -266.1114182182      5.38e-05   Normal BFGS step
    7    -266.1114182916      1.52e-05   Normal BFGS step
    8    -266.1114182984      6.47e-06   Normal BFGS step
    9    -266.1114183000      2.94e-06   Normal BFGS step
   10    -266.1114183001      8.40e-07   Normal BFGS step
   11    -266.1114183001      2.92e-07   Normal BFGS step
   12    -266.1114183001      7.24e-08  Convergence criterion met
 ---------------------------------------
 SCF time:   CPU 181.48s  wall 11.00s 
(3)  G-ENP(liq) elect-nuc-pol free energy of system     -266.111418300 a.u.
(4)  G-CDS(liq) cavity-dispersion-solvent structure 
     free energy                                                2.2469 kcal/mol
(6)  G-S(liq) free energy of system                     -266.107837576 a.u.
 SCF   energy in the final basis set =     -266.1078375758
 Total energy in the final basis set =     -266.1078375758
 
 --------------------------------------------------------------
 
                    Orbital Energies (a.u.)
 --------------------------------------------------------------
 
 Alpha MOs
 -- Occupied --
-19.4038 -19.3954 -19.3487 -10.4374  -1.2749  -1.1697  -1.0439  -0.7895
 -0.6627  -0.6494  -0.6049  -0.5744  -0.5141  -0.4722  -0.4385  -0.4107
 -0.4050
 -- Virtual --
  0.0285   0.0460   0.0578   0.0636   0.0878   0.1078   0.1292   0.1512
  0.1559   0.2021   0.2123   0.2154   0.2423   0.2460   0.2660   0.2700
  0.2752   0.2821   0.2922   0.3017   0.3048   0.3212   0.3575   0.3754
  0.4011   0.4224   0.4381   0.5618   0.5893   0.6035   0.6141   0.6410
  0.6639   0.6875   0.7305   0.7563   0.8188   0.8448   0.8777   0.9339
  0.9883   1.0017   1.0402   1.0484   1.0804   1.1024   1.1323   1.1686
  1.1881   1.2030   1.2124   1.2314   1.2670   1.3233   1.3714   1.3947
  1.4059   1.4662   1.4950   1.5267   1.5561   1.6040   1.6406   1.6720
  1.7034   1.7830   1.8276   1.9303   1.9669   2.0213   2.0956   2.1577
  2.2382   2.3024   2.3067   2.3523   2.3801   2.4026   2.5918   2.6374
  2.7128   2.8020   2.8474   3.1270   3.1594   3.2080   3.2796   3.3122
  3.3857   3.4237   3.4934   3.4948   3.5335   3.7109   3.7395   3.7933
  3.8151   3.8320   3.8738   3.9056   4.0115   4.1483   4.2321   4.2441
  4.2634   4.3074   4.3918   4.4428   4.6539   4.7270   4.8201   4.9636
  5.0373   5.0832   5.1777   5.1992   5.2309   5.2466   5.2598   5.2832
  5.3609   5.3680   5.4357   5.4493   5.4717   5.5703   5.6027   5.6252
  5.6471   5.7493   5.8246   6.0099   6.0758   6.1415   6.2142   6.4938
  6.6882   6.8177   6.9911   7.0033   7.0462   7.1541   7.2007   7.2570
  7.2765   7.2842   7.3695   7.4072   7.4465   7.5752   7.6145   7.7107
  7.7919   7.9138   8.1304  24.7610  50.4659  50.4993  50.5869
 --------------------------------------------------------------
 
          Ground-State Mulliken Net Atomic Charges

     Atom                 Charge (a.u.)
  ----------------------------------------
      1 O                    -0.346111
      2 O                    -0.154874
      3 C                    -0.136433
      4 O                    -0.449736
      5 H                     0.184812
      6 H                     0.215104
      7 H                     0.339326
      8 H                     0.347913
  ----------------------------------------
  Sum of atomic charges =     0.000000

 -----------------------------------------------------------------
                    Cartesian Multipole Moments
 -----------------------------------------------------------------
    Charge (ESU x 10^10)
                 0.0000
    Dipole Moment (Debye)
         X       1.8979      Y       1.1726      Z       0.9248
       Tot       2.4149
    Quadrupole Moments (Debye-Ang)
        XX      -5.8173     XY      12.1741     YY     -20.8889
        XZ      13.8171     YZ       0.8810     ZZ     -15.9770
    Octopole Moments (Debye-Ang^2)
       XXX    -200.7556    XXY      58.1203    XYY     -75.9847
       YYY     -89.3521    XXZ      -1.5800    XYZ      38.2385
       YYZ    -117.0792    XZZ     -23.3728    YZZ     -50.2004
       ZZZ    -300.8413
    Hexadecapole Moments (Debye-Ang^3)
      XXXX   -2277.0332   XXXY     145.9953   XXYY    -315.2612
      XYYY    -357.3039   YYYY    -327.8354   XXXZ    -790.6157
      XXYZ     186.6397   XYYZ    -429.2470   YYYZ    -496.4745
      XXZZ    -424.3159   XYZZ     -49.8138   YYZZ    -726.1731
      XZZZ   -1094.5685   YZZZ    -702.7656   ZZZZ   -3335.2161
 -----------------------------------------------------------------
 Calculating analytic gradient of the SCF energy
 Gradient of CDS energy
            1           2           3           4           5           6
    1  -0.0001652   0.0003600  -0.0003377  -0.0003278  -0.0001773   0.0002769
    2  -0.0002391   0.0003016   0.0027165  -0.0037300   0.0001175   0.0001857
    3   0.0001555   0.0006873   0.0011818  -0.0012523  -0.0002099  -0.0003673
            7           8
    1   0.0002732   0.0000979
    2   0.0003751   0.0002728
    3   0.0002275  -0.0004226
 Gradient of SCF Energy
            1           2           3           4           5           6
    1   0.0019203  -0.0035211   0.0005584  -0.0193527  -0.0035120   0.0062477
    2  -0.0176536  -0.0003979   0.0070511  -0.0026992  -0.0027126  -0.0026850
    3   0.0005644   0.0000173  -0.0069723   0.0059647   0.0026921   0.0036459
            7           8
    1   0.0161314   0.0015280
    2   0.0033866   0.0157106
    3  -0.0043880  -0.0015241
 Max gradient component =       1.935E-02
 RMS gradient           =       7.835E-03
 Computing fast CPCM-SWIG gradient
 Updating gradient with PCM contributions...
 -- total gradient after adding PCM contribution --
---------------------------------------------------
  Atom         X              Y              Z     
---------------------------------------------------
   1       0.000245      -0.000030      -0.000024
   2      -0.000153       0.000079      -0.000047
   3       0.000207       0.000224      -0.000107
   4      -0.000007      -0.000235       0.000239
   5       0.000005       0.000059      -0.000020
   6      -0.000028      -0.000033       0.000048
   7      -0.000115      -0.000029      -0.000097
   8      -0.000154      -0.000035       0.000009
---------------------------------------------------
 Number of fixed atoms: 0
 Gradient time:  CPU 30.89 s  wall 2.48 s
 Geometry Optimization Parameters
   NAtoms,    NIC,     NZ,  NCons,   NDum,   NFix, NCnnct, MaxDiis
        8      39       0       0       0       0       0       0

 Cartesian Hessian Update
 Hessian updated using BFGS update


** GEOMETRY OPTIMIZATION IN DELOCALIZED INTERNAL COORDINATES **
   Searching for a Minimum

   Optimization Cycle:   4

                       Coordinates (Angstroms)
     ATOM                X               Y               Z
      1  O         5.3595404438    1.0768413545    3.5228352965
      2  O         4.1237260193    0.8327469187    4.2000973912
      3  C         4.3442896038    1.0396041627    5.5803480695
      4  O         4.4686760928    2.3981623741    5.9040025782
      5  H         3.4373914579    0.6612539133    6.0458497687
      6  H         5.2215244947    0.4751689519    5.8939798409
      7  H         5.3766283198    2.6725020334    5.7334457213
      8  H         5.2816973681    2.0101774914    3.2762137338
   Point Group: c1    Number of degrees of freedom:    18


   Energy is   -266.107837576

 Hessian updated using BFGS update

 18 Hessian modes will be used to form the next step
  Hessian Eigenvalues:
     0.009202    0.013236    0.014432    0.078897    0.096693    0.123360
     0.146327    0.159121    0.172585    0.224885    0.284335    0.339907
     0.344933    0.381100    0.436312    0.452288    0.507843    0.527191

 Minimum search - taking simple RFO step
 Searching for Lamda that Minimizes Along All modes
 Value Taken    Lamda =  -0.00000468
 Step Taken.  Stepsize is  0.018955

                             Maximum     Tolerance    Cnvgd?
         Gradient           0.000244      0.000300     YES
         Displacement       0.009355      0.001200      NO
         Energy change     -0.000039      0.000001      NO


 New Cartesian Coordinates Obtained by Inverse Iteration

 Displacement from previous Coordinates is:  0.021610
 ----------------------------------------------------------------
             Standard Nuclear Orientation (Angstroms)
    I     Atom           X                Y                Z
 ----------------------------------------------------------------
    1      O       5.3570310608     1.0765979493     3.5207469809
    2      O       4.1230460357     0.8295505793     4.2000485362
    3      C       4.3438835379     1.0391882008     5.5798265338
    4      O       4.4686519516     2.3989765441     5.8993462726
    5      H       3.4375287007     0.6611627246     6.0468838225
    6      H       5.2219553657     0.4761195674     5.8937351701
    7      H       5.3777901004     2.6717578325     5.7317665599
    8      H       5.2835870473     2.0131038020     3.2844185240
 ----------------------------------------------------------------
 Nuclear Repulsion Energy =         134.10765745 hartrees
 There are       17 alpha and       17 beta electrons
 Discretize the solute cavity surface with Lebedev spheres
	Using 110 Lebedev grid points for each H atom
	Using 194 Lebedev grid points for other atoms
	Atomic van der Waals radii will be scaled by 1.20
 Remove points where switching function is < 1.0e-08
 Keep 701 surface tesserae and discard 515 interior tesserae
 Molecular Surface Area = 82.322 Angst**2
 Applying Cartesian multipole field
    Component          Value
    ---------          -----
     (2,0,0)        1.00000E-12
     (0,2,0)        2.00000E-11
     (0,0,2)       -3.00000E-12
 Nucleus-field energy     =    -0.0000000005 hartrees
 Requested basis set is 6-311++G(2df,2p)
 There are 56 shells and 176 basis functions
 A cutoff of  1.0D-12 yielded   1569 shell pairs
 There are     15668 function pairs (     19502 Cartesian)
 Smallest overlap matrix eigenvalue = 5.74E-04
 Guess MOs from SCF MO coefficient file

 -----------------------------------------------------------------------
  General SCF calculation program by
  Eric Jon Sundstrom, Paul Horn, Yuezhi Mao, Dmitri Zuev, Alec White,
  David Stuck, Shaama M.S., Shane Yost, Joonho Lee, David Small,
  Daniel Levine, Susi Lehtola, Hugh Burton, Evgeny Epifanovsky,
  Bang C. Huynh
 -----------------------------------------------------------------------
 Exchange:     0.1500 Hartree-Fock + 1.0000 wB97M-V + LR-HF
 Correlation:  1.0000 wB97M-V
 Using SG-2 standard quadrature grid
 Nonlocal Correlation:  VV10 with C = 0.0100 and b = 6.00 and scale = 1.00000
 Grid used for NLC:  SG-1 standard quadrature
 
 Citation of the SMD model:
 Marenich, A.V.; Cramer, C.J.; Truhlar, D.G.
 J. Phys. Chem. B 2009, 113, 6378-6396.
 iSolventCode=           1
 Solvent: water                                                           
 
 vradii
            1           2           3           4           5           6
    1   1.5200000   1.5200000   1.8500000   1.5200000   1.2000000   1.2000000
            7           8
    1   1.2000000   1.2000000
 -------------------------------------------------------
 OpenMP BLAS3 based DFT computing Module                
 Release: version 1.0, May 2013, Q-Chem Inc. Pittsburgh 
 -------------------------------------------------------
 A restricted SCF calculation will be
 performed using Roothaan-Hall, DIIS, GDM
 SCF converges when RMS gradient is below 1.0e-07
 ---------------------------------------
  Cycle       Energy         DIIS error
 ---------------------------------------
    1    -266.0850252425      8.08e-04  Roothaan Step
 ---------------------------------------
  Cycle       Energy         DIIS error
 ---------------------------------------
    1    -266.1072624983      8.51e-04  
    2    -266.1106055208      5.36e-04  Done DIIS. Switching to GDM
 ---------------------------------------
  Cycle       Energy        RMS Gradient
 ---------------------------------------
    1    -266.1106055208      5.20e-03   Normal BFGS step
    2    -266.1108353444      5.76e-03   Normal BFGS step
    3    -266.1114057444      5.25e-04   Normal BFGS step
    4    -266.1114127572      3.39e-04   Normal BFGS step
    5    -266.1114158130      9.35e-05   Normal BFGS step
    6    -266.1114159896      5.07e-05   Normal BFGS step
    7    -266.1114160538      1.57e-05   Normal BFGS step
    8    -266.1114160610      6.27e-06   Normal BFGS step
    9    -266.1114160625      2.89e-06   Normal BFGS step
   10    -266.1114160626      8.96e-07   Normal BFGS step
   11    -266.1114160627      3.38e-07   Normal BFGS step
   12    -266.1114160627      6.82e-08  Convergence criterion met
 ---------------------------------------
 SCF time:   CPU 184.33s  wall 13.00s 
(3)  G-ENP(liq) elect-nuc-pol free energy of system     -266.111416063 a.u.
(4)  G-CDS(liq) cavity-dispersion-solvent structure 
     free energy                                                2.2438 kcal/mol
(6)  G-S(liq) free energy of system                     -266.107840262 a.u.
 SCF   energy in the final basis set =     -266.1078402616
 Total energy in the final basis set =     -266.1078402616
 
 --------------------------------------------------------------
 
                    Orbital Energies (a.u.)
 --------------------------------------------------------------
 
 Alpha MOs
 -- Occupied --
-19.4038 -19.3954 -19.3487 -10.4374  -1.2750  -1.1695  -1.0439  -0.7895
 -0.6626  -0.6496  -0.6051  -0.5740  -0.5141  -0.4722  -0.4384  -0.4104
 -0.4053
 -- Virtual --
  0.0285   0.0459   0.0578   0.0636   0.0877   0.1078   0.1293   0.1512
  0.1558   0.2021   0.2121   0.2154   0.2425   0.2460   0.2659   0.2700
  0.2752   0.2821   0.2921   0.3017   0.3048   0.3213   0.3574   0.3755
  0.4012   0.4224   0.4372   0.5617   0.5890   0.6033   0.6146   0.6410
  0.6641   0.6872   0.7307   0.7545   0.8187   0.8441   0.8784   0.9363
  0.9878   1.0021   1.0401   1.0484   1.0803   1.1024   1.1323   1.1684
  1.1882   1.2027   1.2127   1.2309   1.2669   1.3231   1.3714   1.3942
  1.4058   1.4666   1.4951   1.5267   1.5559   1.6044   1.6402   1.6723
  1.7028   1.7833   1.8262   1.9312   1.9664   2.0220   2.0953   2.1571
  2.2381   2.3025   2.3073   2.3532   2.3797   2.4021   2.5916   2.6365
  2.7135   2.8016   2.8464   3.1268   3.1588   3.2080   3.2792   3.3118
  3.3857   3.4251   3.4928   3.4946   3.5335   3.7097   3.7393   3.7937
  3.8152   3.8312   3.8755   3.9055   4.0121   4.1482   4.2319   4.2437
  4.2629   4.3076   4.3917   4.4428   4.6540   4.7273   4.8209   4.9628
  5.0373   5.0829   5.1773   5.1993   5.2307   5.2467   5.2599   5.2835
  5.3614   5.3680   5.4338   5.4496   5.4701   5.5706   5.6010   5.6255
  5.6475   5.7490   5.8244   6.0094   6.0764   6.1405   6.2149   6.4931
  6.6877   6.8182   6.9914   7.0029   7.0458   7.1540   7.2012   7.2562
  7.2767   7.2837   7.3692   7.4072   7.4455   7.5755   7.6146   7.7109
  7.7918   7.9136   8.1303  24.7603  50.4658  50.4992  50.5867
 --------------------------------------------------------------
 
          Ground-State Mulliken Net Atomic Charges

     Atom                 Charge (a.u.)
  ----------------------------------------
      1 O                    -0.346102
      2 O                    -0.154781
      3 C                    -0.136388
      4 O                    -0.449836
      5 H                     0.184942
      6 H                     0.215018
      7 H                     0.339320
      8 H                     0.347827
  ----------------------------------------
  Sum of atomic charges =     0.000000

 -----------------------------------------------------------------
                    Cartesian Multipole Moments
 -----------------------------------------------------------------
    Charge (ESU x 10^10)
                 0.0000
    Dipole Moment (Debye)
         X       1.9089      Y       1.1782      Z       0.9593
       Tot       2.4397
    Quadrupole Moments (Debye-Ang)
        XX      -5.6980     XY      12.2246     YY     -20.8776
        XZ      14.0265     YZ       0.9649     ZZ     -15.6904
    Octopole Moments (Debye-Ang^2)
       XXX    -199.7314    XXY      58.5218    XYY     -75.8551
       YYY     -89.2983    XXZ      -0.2581    XYZ      38.7403
       YYZ    -116.8999    XZZ     -21.8382    YZZ     -49.5819
       ZZZ    -298.7590
    Hexadecapole Moments (Debye-Ang^3)
      XXXX   -2268.9327   XXXY     148.9568   XXYY    -314.1878
      XYYY    -356.8882   YYYY    -327.8221   XXXZ    -781.9865
      XXYZ     189.8081   XYYZ    -428.0919   YYYZ    -495.9194
      XXZZ    -415.4021   XYZZ     -46.4778   YYZZ    -724.7584
      XZZZ   -1084.1350   YZZZ    -698.4154   ZZZZ   -3319.5778
 -----------------------------------------------------------------
 Calculating analytic gradient of the SCF energy
 Gradient of CDS energy
            1           2           3           4           5           6
    1  -0.0001648   0.0003607  -0.0003479  -0.0003198  -0.0001767   0.0002775
    2  -0.0002401   0.0003044   0.0026563  -0.0036700   0.0001152   0.0001862
    3   0.0001545   0.0006876   0.0011562  -0.0012278  -0.0002106  -0.0003679
            7           8
    1   0.0002729   0.0000981
    2   0.0003744   0.0002737
    3   0.0002292  -0.0004213
 Gradient of SCF Energy
            1           2           3           4           5           6
    1   0.0016915  -0.0033684   0.0001879  -0.0195190  -0.0035776   0.0063496
    2  -0.0176199  -0.0005120   0.0068607  -0.0025442  -0.0028111  -0.0026889
    3   0.0003225   0.0001747  -0.0069448   0.0058680   0.0027877   0.0035978
            7           8
    1   0.0164196   0.0018164
    2   0.0034606   0.0158548
    3  -0.0043981  -0.0014077
 Max gradient component =       1.952E-02
 RMS gradient           =       7.876E-03
 Computing fast CPCM-SWIG gradient
 Updating gradient with PCM contributions...
 -- total gradient after adding PCM contribution --
---------------------------------------------------
  Atom         X              Y              Z     
---------------------------------------------------
   1       0.000102       0.000055      -0.000104
   2      -0.000010      -0.000052       0.000124
   3      -0.000130       0.000015      -0.000065
   4      -0.000026      -0.000060       0.000154
   5      -0.000036      -0.000029       0.000044
   6       0.000022      -0.000040      -0.000020
   7       0.000052       0.000041      -0.000104
   8       0.000027       0.000068      -0.000031
---------------------------------------------------
 Number of fixed atoms: 0
 Gradient time:  CPU 29.79 s  wall 2.33 s
 Geometry Optimization Parameters
   NAtoms,    NIC,     NZ,  NCons,   NDum,   NFix, NCnnct, MaxDiis
        8      39       0       0       0       0       0       0

 Cartesian Hessian Update
 Hessian updated using BFGS update


** GEOMETRY OPTIMIZATION IN DELOCALIZED INTERNAL COORDINATES **
   Searching for a Minimum

   Optimization Cycle:   5

                       Coordinates (Angstroms)
     ATOM                X               Y               Z
      1  O         5.3570310608    1.0765979493    3.5207469809
      2  O         4.1230460357    0.8295505793    4.2000485362
      3  C         4.3438835379    1.0391882008    5.5798265338
      4  O         4.4686519516    2.3989765441    5.8993462726
      5  H         3.4375287007    0.6611627246    6.0468838225
      6  H         5.2219553657    0.4761195674    5.8937351701
      7  H         5.3777901004    2.6717578325    5.7317665599
      8  H         5.2835870473    2.0131038020    3.2844185240
   Point Group: c1    Number of degrees of freedom:    18


   Energy is   -266.107840262

 Hessian updated using BFGS update

 18 Hessian modes will be used to form the next step
  Hessian Eigenvalues:
     0.006560    0.013299    0.014018    0.086452    0.096598    0.123387
     0.144782    0.159446    0.180667    0.228439    0.284911    0.341785
     0.347160    0.388098    0.436668    0.460318    0.513343    0.528509

 Minimum search - taking simple RFO step
 Searching for Lamda that Minimizes Along All modes
 Value Taken    Lamda =  -0.00000173
 Step Taken.  Stepsize is  0.013554

                             Maximum     Tolerance    Cnvgd?
         Gradient           0.000192      0.000300     YES
         Displacement       0.006955      0.001200      NO
         Energy change     -0.000003      0.000001      NO


 New Cartesian Coordinates Obtained by Inverse Iteration

 Displacement from previous Coordinates is:  0.010753
 ----------------------------------------------------------------
             Standard Nuclear Orientation (Angstroms)
    I     Atom           X                Y                Z
 ----------------------------------------------------------------
    1      O       5.3555526667     1.0755292963     3.5194918955
    2      O       4.1225414843     0.8284815694     4.1996424632
    3      C       4.3442061881     1.0394474173     5.5791057839
    4      O       4.4681217438     2.3997829292     5.8970131272
    5      H       3.4381656632     0.6613065570     6.0464714991
    6      H       5.2227204570     0.4773907636     5.8934399727
    7      H       5.3785046668     2.6715340668     5.7350613511
    8      H       5.2836609301     2.0129846003     3.2865463073
 ----------------------------------------------------------------
 Nuclear Repulsion Energy =         134.11801750 hartrees
 There are       17 alpha and       17 beta electrons
 Discretize the solute cavity surface with Lebedev spheres
	Using 110 Lebedev grid points for each H atom
	Using 194 Lebedev grid points for other atoms
	Atomic van der Waals radii will be scaled by 1.20
 Remove points where switching function is < 1.0e-08
 Keep 699 surface tesserae and discard 517 interior tesserae
 Molecular Surface Area = 82.315 Angst**2
 Applying Cartesian multipole field
    Component          Value
    ---------          -----
     (2,0,0)        1.00000E-12
     (0,2,0)        2.00000E-11
     (0,0,2)       -3.00000E-12
 Nucleus-field energy     =    -0.0000000005 hartrees
 Requested basis set is 6-311++G(2df,2p)
 There are 56 shells and 176 basis functions
 A cutoff of  1.0D-12 yielded   1569 shell pairs
 There are     15668 function pairs (     19502 Cartesian)
 Smallest overlap matrix eigenvalue = 5.74E-04
 Guess MOs from SCF MO coefficient file

 -----------------------------------------------------------------------
  General SCF calculation program by
  Eric Jon Sundstrom, Paul Horn, Yuezhi Mao, Dmitri Zuev, Alec White,
  David Stuck, Shaama M.S., Shane Yost, Joonho Lee, David Small,
  Daniel Levine, Susi Lehtola, Hugh Burton, Evgeny Epifanovsky,
  Bang C. Huynh
 -----------------------------------------------------------------------
 Exchange:     0.1500 Hartree-Fock + 1.0000 wB97M-V + LR-HF
 Correlation:  1.0000 wB97M-V
 Using SG-2 standard quadrature grid
 Nonlocal Correlation:  VV10 with C = 0.0100 and b = 6.00 and scale = 1.00000
 Grid used for NLC:  SG-1 standard quadrature
 
 Citation of the SMD model:
 Marenich, A.V.; Cramer, C.J.; Truhlar, D.G.
 J. Phys. Chem. B 2009, 113, 6378-6396.
 iSolventCode=           1
 Solvent: water                                                           
 
 vradii
            1           2           3           4           5           6
    1   1.5200000   1.5200000   1.8500000   1.5200000   1.2000000   1.2000000
            7           8
    1   1.2000000   1.2000000
 -------------------------------------------------------
 OpenMP BLAS3 based DFT computing Module                
 Release: version 1.0, May 2013, Q-Chem Inc. Pittsburgh 
 -------------------------------------------------------
 A restricted SCF calculation will be
 performed using Roothaan-Hall, DIIS, GDM
 SCF converges when RMS gradient is below 1.0e-07
 ---------------------------------------
  Cycle       Energy         DIIS error
 ---------------------------------------
    1    -266.0850253704      8.07e-04  Roothaan Step
 ---------------------------------------
  Cycle       Energy         DIIS error
 ---------------------------------------
    1    -266.1072570231      8.52e-04  
    2    -266.1106056410      5.35e-04  Done DIIS. Switching to GDM
 ---------------------------------------
  Cycle       Energy        RMS Gradient
 ---------------------------------------
    1    -266.1106056410      5.22e-03   Normal BFGS step
    2    -266.1108362929      5.75e-03   Normal BFGS step
    3    -266.1114064484      5.22e-04   Normal BFGS step
    4    -266.1114135198      3.43e-04   Normal BFGS step
    5    -266.1114166342      9.39e-05   Normal BFGS step
    6    -266.1114168141      5.12e-05   Normal BFGS step
    7    -266.1114168792      1.57e-05   Normal BFGS step
    8    -266.1114168865      6.77e-06   Normal BFGS step
    9    -266.1114168880      3.12e-06   Normal BFGS step
   10    -266.1114168881      9.61e-07   Normal BFGS step
   11    -266.1114168882      3.34e-07   Normal BFGS step
   12    -266.1114168882      7.01e-08  Convergence criterion met
 ---------------------------------------
 SCF time:   CPU 178.67s  wall 11.00s 
(3)  G-ENP(liq) elect-nuc-pol free energy of system     -266.111416888 a.u.
(4)  G-CDS(liq) cavity-dispersion-solvent structure 
     free energy                                                2.2436 kcal/mol
(6)  G-S(liq) free energy of system                     -266.107841408 a.u.
 SCF   energy in the final basis set =     -266.1078414082
 Total energy in the final basis set =     -266.1078414082
 
 --------------------------------------------------------------
 
                    Orbital Energies (a.u.)
 --------------------------------------------------------------
 
 Alpha MOs
 -- Occupied --
-19.4038 -19.3954 -19.3487 -10.4374  -1.2751  -1.1696  -1.0439  -0.7896
 -0.6627  -0.6496  -0.6052  -0.5740  -0.5141  -0.4720  -0.4385  -0.4103
 -0.4054
 -- Virtual --
  0.0285   0.0460   0.0578   0.0636   0.0878   0.1078   0.1294   0.1513
  0.1558   0.2021   0.2120   0.2154   0.2426   0.2460   0.2659   0.2701
  0.2752   0.2820   0.2921   0.3016   0.3049   0.3214   0.3574   0.3757
  0.4012   0.4223   0.4370   0.5617   0.5891   0.6033   0.6147   0.6410
  0.6640   0.6871   0.7310   0.7544   0.8189   0.8439   0.8790   0.9371
  0.9873   1.0020   1.0399   1.0485   1.0801   1.1026   1.1321   1.1682
  1.1881   1.2026   1.2128   1.2308   1.2669   1.3229   1.3715   1.3940
  1.4059   1.4668   1.4953   1.5267   1.5559   1.6051   1.6399   1.6724
  1.7025   1.7833   1.8256   1.9312   1.9668   2.0224   2.0951   2.1573
  2.2381   2.3026   2.3079   2.3536   2.3791   2.4020   2.5918   2.6364
  2.7135   2.8010   2.8453   3.1269   3.1587   3.2079   3.2793   3.3108
  3.3859   3.4263   3.4926   3.4947   3.5336   3.7095   3.7397   3.7939
  3.8153   3.8310   3.8758   3.9059   4.0122   4.1483   4.2318   4.2434
  4.2625   4.3081   4.3918   4.4430   4.6545   4.7271   4.8212   4.9623
  5.0373   5.0829   5.1772   5.1994   5.2308   5.2471   5.2600   5.2833
  5.3614   5.3681   5.4337   5.4495   5.4693   5.5709   5.6011   5.6258
  5.6481   5.7493   5.8245   6.0093   6.0774   6.1410   6.2158   6.4931
  6.6874   6.8197   6.9916   7.0030   7.0459   7.1540   7.2015   7.2564
  7.2770   7.2841   7.3691   7.4074   7.4458   7.5755   7.6148   7.7111
  7.7919   7.9144   8.1300  24.7603  50.4658  50.4992  50.5867
 --------------------------------------------------------------
 
          Ground-State Mulliken Net Atomic Charges

     Atom                 Charge (a.u.)
  ----------------------------------------
      1 O                    -0.346290
      2 O                    -0.154573
      3 C                    -0.136224
      4 O                    -0.449894
      5 H                     0.184874
      6 H                     0.215014
      7 H                     0.339313
      8 H                     0.347781
  ----------------------------------------
  Sum of atomic charges =     0.000000

 -----------------------------------------------------------------
                    Cartesian Multipole Moments
 -----------------------------------------------------------------
    Charge (ESU x 10^10)
                 0.0000
    Dipole Moment (Debye)
         X       1.9180      Y       1.1793      Z       0.9805
       Tot       2.4558
    Quadrupole Moments (Debye-Ang)
        XX      -5.6075     XY      12.2446     YY     -20.8844
        XZ      14.1832     YZ       1.0167     ZZ     -15.4837
    Octopole Moments (Debye-Ang^2)
       XXX    -199.0113    XXY      58.7047    XYY     -75.8453
       YYY     -89.3275    XXZ       0.7970    XYZ      39.0839
       YYZ    -116.8003    XZZ     -20.5045    YZZ     -49.0748
       ZZZ    -297.0741
    Hexadecapole Moments (Debye-Ang^3)
      XXXX   -2263.5522   XXXY     150.3995   XXYY    -313.9097
      XYYY    -356.9059   YYYY    -328.0188   XXXZ    -775.0821
      XXYZ     192.0273   XYYZ    -427.3664   YYYZ    -495.7357
      XXZZ    -407.0167   XYZZ     -43.4238   YYZZ    -723.5295
      XZZZ   -1073.9104   YZZZ    -694.2882   ZZZZ   -3306.3606
 -----------------------------------------------------------------
 Calculating analytic gradient of the SCF energy
 Gradient of CDS energy
            1           2           3           4           5           6
    1  -0.0001649   0.0003592  -0.0003527  -0.0003136  -0.0001769   0.0002779
    2  -0.0002406   0.0003053   0.0026338  -0.0036499   0.0001146   0.0001878
    3   0.0001539   0.0006829   0.0011506  -0.0012188  -0.0002115  -0.0003667
            7           8
    1   0.0002726   0.0000985
    2   0.0003745   0.0002744
    3   0.0002303  -0.0004205
 Gradient of SCF Energy
            1           2           3           4           5           6
    1   0.0014689  -0.0032914   0.0002827  -0.0195945  -0.0035372   0.0063815
    2  -0.0176252  -0.0004542   0.0067781  -0.0024506  -0.0027876  -0.0026747
    3   0.0004005   0.0000266  -0.0069442   0.0057255   0.0027229   0.0036488
            7           8
    1   0.0164509   0.0018391
    2   0.0034133   0.0158009
    3  -0.0042537  -0.0013265
 Max gradient component =       1.959E-02
 RMS gradient           =       7.866E-03
 Computing fast CPCM-SWIG gradient
 Updating gradient with PCM contributions...
 -- total gradient after adding PCM contribution --
---------------------------------------------------
  Atom         X              Y              Z     
---------------------------------------------------
   1      -0.000094       0.000015       0.000033
   2       0.000067      -0.000005      -0.000025
   3      -0.000003      -0.000072      -0.000052
   4      -0.000019       0.000032       0.000108
   5       0.000005      -0.000005      -0.000027
   6       0.000015      -0.000027       0.000008
   7       0.000015       0.000013      -0.000053
   8       0.000014       0.000048       0.000009
---------------------------------------------------
 Number of fixed atoms: 0
 Gradient time:  CPU 31.48 s  wall 2.52 s
 Geometry Optimization Parameters
   NAtoms,    NIC,     NZ,  NCons,   NDum,   NFix, NCnnct, MaxDiis
        8      39       0       0       0       0       0       0

 Cartesian Hessian Update
 Hessian updated using BFGS update


** GEOMETRY OPTIMIZATION IN DELOCALIZED INTERNAL COORDINATES **
   Searching for a Minimum

   Optimization Cycle:   6

                       Coordinates (Angstroms)
     ATOM                X               Y               Z
      1  O         5.3555526667    1.0755292963    3.5194918955
      2  O         4.1225414843    0.8284815694    4.1996424632
      3  C         4.3442061881    1.0394474173    5.5791057839
      4  O         4.4681217438    2.3997829292    5.8970131272
      5  H         3.4381656632    0.6613065570    6.0464714991
      6  H         5.2227204570    0.4773907636    5.8934399727
      7  H         5.3785046668    2.6715340668    5.7350613511
      8  H         5.2836609301    2.0129846003    3.2865463073
   Point Group: c1    Number of degrees of freedom:    18


   Energy is   -266.107841408

 Hessian updated using BFGS update

 18 Hessian modes will be used to form the next step
  Hessian Eigenvalues:
     0.004391    0.011624    0.013641    0.088283    0.097747    0.123370
     0.146053    0.159063    0.179090    0.229028    0.285004    0.341396
     0.348051    0.435765    0.447973    0.459018    0.511396    0.527795

 Minimum search - taking simple RFO step
 Searching for Lamda that Minimizes Along All modes
 Value Taken    Lamda =  -0.00000079
 Step Taken.  Stepsize is  0.011917

                             Maximum     Tolerance    Cnvgd?
         Gradient           0.000061      0.000300     YES
         Displacement       0.006320      0.001200      NO
         Energy change     -0.000001      0.000001      NO


 New Cartesian Coordinates Obtained by Inverse Iteration

 Displacement from previous Coordinates is:  0.009744
 ----------------------------------------------------------------
             Standard Nuclear Orientation (Angstroms)
    I     Atom           X                Y                Z
 ----------------------------------------------------------------
    1      O       5.3553525149     1.0751051358     3.5189425548
    2      O       4.1226243577     0.8278882390     4.1993936263
    3      C       4.3442397302     1.0398193445     5.5787294091
    4      O       4.4676785742     2.4004134509     5.8955077674
    5      H       3.4384076469     0.6613775696     6.0462678270
    6      H       5.2230884273     0.4785626325     5.8933544713
    7      H       5.3793334033     2.6709719845     5.7392102492
    8      H       5.2827491456     2.0123188432     3.2853664949
 ----------------------------------------------------------------
 Nuclear Repulsion Energy =         134.11853604 hartrees
 There are       17 alpha and       17 beta electrons
 Discretize the solute cavity surface with Lebedev spheres
	Using 110 Lebedev grid points for each H atom
	Using 194 Lebedev grid points for other atoms
	Atomic van der Waals radii will be scaled by 1.20
 Remove points where switching function is < 1.0e-08
 Keep 700 surface tesserae and discard 516 interior tesserae
 Molecular Surface Area = 82.313 Angst**2
 Applying Cartesian multipole field
    Component          Value
    ---------          -----
     (2,0,0)        1.00000E-12
     (0,2,0)        2.00000E-11
     (0,0,2)       -3.00000E-12
 Nucleus-field energy     =    -0.0000000005 hartrees
 Requested basis set is 6-311++G(2df,2p)
 There are 56 shells and 176 basis functions
 A cutoff of  1.0D-12 yielded   1569 shell pairs
 There are     15668 function pairs (     19502 Cartesian)
 Smallest overlap matrix eigenvalue = 5.74E-04
 Guess MOs from SCF MO coefficient file

 -----------------------------------------------------------------------
  General SCF calculation program by
  Eric Jon Sundstrom, Paul Horn, Yuezhi Mao, Dmitri Zuev, Alec White,
  David Stuck, Shaama M.S., Shane Yost, Joonho Lee, David Small,
  Daniel Levine, Susi Lehtola, Hugh Burton, Evgeny Epifanovsky,
  Bang C. Huynh
 -----------------------------------------------------------------------
 Exchange:     0.1500 Hartree-Fock + 1.0000 wB97M-V + LR-HF
 Correlation:  1.0000 wB97M-V
 Using SG-2 standard quadrature grid
 Nonlocal Correlation:  VV10 with C = 0.0100 and b = 6.00 and scale = 1.00000
 Grid used for NLC:  SG-1 standard quadrature
 
 Citation of the SMD model:
 Marenich, A.V.; Cramer, C.J.; Truhlar, D.G.
 J. Phys. Chem. B 2009, 113, 6378-6396.
 iSolventCode=           1
 Solvent: water                                                           
 
 vradii
            1           2           3           4           5           6
    1   1.5200000   1.5200000   1.8500000   1.5200000   1.2000000   1.2000000
            7           8
    1   1.2000000   1.2000000
 -------------------------------------------------------
 OpenMP BLAS3 based DFT computing Module                
 Release: version 1.0, May 2013, Q-Chem Inc. Pittsburgh 
 -------------------------------------------------------
 A restricted SCF calculation will be
 performed using Roothaan-Hall, DIIS, GDM
 SCF converges when RMS gradient is below 1.0e-07
 ---------------------------------------
  Cycle       Energy         DIIS error
 ---------------------------------------
    1    -266.0850539383      8.06e-04  Roothaan Step
 ---------------------------------------
  Cycle       Energy         DIIS error
 ---------------------------------------
    1    -266.1072668788      8.51e-04  
    2    -266.1106091382      5.35e-04  Done DIIS. Switching to GDM
 ---------------------------------------
  Cycle       Energy        RMS Gradient
 ---------------------------------------
    1    -266.1106091382      5.25e-03   Normal BFGS step
    2    -266.1108390779      5.76e-03   Normal BFGS step
    3    -266.1114097028      5.19e-04   Normal BFGS step
    4    -266.1114167556      3.48e-04   Normal BFGS step
    5    -266.1114199389      9.32e-05   Normal BFGS step
    6    -266.1114201171      5.19e-05   Normal BFGS step
    7    -266.1114201836      1.55e-05   Normal BFGS step
    8    -266.1114201908      6.82e-06   Normal BFGS step
    9    -266.1114201923      3.15e-06   Normal BFGS step
   10    -266.1114201924      9.63e-07   Normal BFGS step
   11    -266.1114201924      3.26e-07   Normal BFGS step
   12    -266.1114201924      7.08e-08  Convergence criterion met
 ---------------------------------------
 SCF time:   CPU 180.42s  wall 11.00s 
(3)  G-ENP(liq) elect-nuc-pol free energy of system     -266.111420192 a.u.
(4)  G-CDS(liq) cavity-dispersion-solvent structure 
     free energy                                                2.2454 kcal/mol
(6)  G-S(liq) free energy of system                     -266.107841893 a.u.
 SCF   energy in the final basis set =     -266.1078418928
 Total energy in the final basis set =     -266.1078418928
 
 --------------------------------------------------------------
 
                    Orbital Energies (a.u.)
 --------------------------------------------------------------
 
 Alpha MOs
 -- Occupied --
-19.4038 -19.3954 -19.3487 -10.4374  -1.2751  -1.1696  -1.0439  -0.7895
 -0.6627  -0.6495  -0.6052  -0.5741  -0.5141  -0.4718  -0.4386  -0.4103
 -0.4053
 -- Virtual --
  0.0285   0.0460   0.0578   0.0636   0.0878   0.1078   0.1295   0.1513
  0.1558   0.2021   0.2120   0.2154   0.2425   0.2462   0.2660   0.2701
  0.2752   0.2819   0.2921   0.3015   0.3049   0.3214   0.3574   0.3759
  0.4012   0.4221   0.4370   0.5618   0.5893   0.6033   0.6145   0.6410
  0.6638   0.6871   0.7313   0.7553   0.8190   0.8437   0.8795   0.9370
  0.9869   1.0018   1.0397   1.0486   1.0800   1.1028   1.1320   1.1682
  1.1879   1.2026   1.2128   1.2308   1.2669   1.3229   1.3717   1.3939
  1.4059   1.4669   1.4954   1.5268   1.5559   1.6058   1.6398   1.6723
  1.7023   1.7830   1.8257   1.9306   1.9668   2.0227   2.0951   2.1578
  2.2381   2.3025   2.3079   2.3537   2.3789   2.4021   2.5918   2.6368
  2.7137   2.8007   2.8442   3.1271   3.1587   3.2080   3.2793   3.3100
  3.3861   3.4272   3.4923   3.4949   3.5337   3.7098   3.7400   3.7940
  3.8153   3.8310   3.8756   3.9062   4.0118   4.1480   4.2317   4.2434
  4.2620   4.3087   4.3919   4.4430   4.6546   4.7270   4.8212   4.9622
  5.0373   5.0828   5.1772   5.1995   5.2311   5.2475   5.2602   5.2830
  5.3612   5.3682   5.4340   5.4491   5.4689   5.5710   5.6015   5.6259
  5.6485   5.7493   5.8245   6.0093   6.0774   6.1414   6.2160   6.4932
  6.6874   6.8199   6.9915   7.0030   7.0460   7.1539   7.2016   7.2567
  7.2773   7.2844   7.3690   7.4075   7.4462   7.5754   7.6148   7.7110
  7.7920   7.9146   8.1300  24.7605  50.4658  50.4991  50.5868
 --------------------------------------------------------------
 
          Ground-State Mulliken Net Atomic Charges

     Atom                 Charge (a.u.)
  ----------------------------------------
      1 O                    -0.346516
      2 O                    -0.154473
      3 C                    -0.136045
      4 O                    -0.449936
      5 H                     0.184849
      6 H                     0.214969
      7 H                     0.339349
      8 H                     0.347804
  ----------------------------------------
  Sum of atomic charges =     0.000000

 -----------------------------------------------------------------
                    Cartesian Multipole Moments
 -----------------------------------------------------------------
    Charge (ESU x 10^10)
                 0.0000
    Dipole Moment (Debye)
         X       1.9207      Y       1.1779      Z       0.9929
       Tot       2.4622
    Quadrupole Moments (Debye-Ang)
        XX      -5.5811     XY      12.2413     YY     -20.9011
        XZ      14.2691     YZ       1.0406     ZZ     -15.3355
    Octopole Moments (Debye-Ang^2)
       XXX    -198.8045    XXY      58.7095    XYY     -75.9154
       YYY     -89.4026    XXZ       1.3627    XYZ      39.2478
       YYZ    -116.7864    XZZ     -19.5791    YZZ     -48.7339
       ZZZ    -295.7232
    Hexadecapole Moments (Debye-Ang^3)
      XXXX   -2262.0400   XXXY     150.5670   XXYY    -314.1949
      XYYY    -357.2246   YYYY    -328.3445   XXXZ    -771.4463
      XXYZ     193.1034   XYYZ    -427.1730   YYYZ    -495.8520
      XXZZ    -401.3030   XYZZ     -41.3444   YYZZ    -722.8202
      XZZZ   -1065.8582   YZZZ    -691.0736   ZZZZ   -3295.2942
 -----------------------------------------------------------------
 Calculating analytic gradient of the SCF energy
 Gradient of CDS energy
            1           2           3           4           5           6
    1  -0.0001649   0.0003586  -0.0003558  -0.0003110  -0.0001768   0.0002786
    2  -0.0002409   0.0003055   0.0026416  -0.0036590   0.0001137   0.0001894
    3   0.0001539   0.0006802   0.0011515  -0.0012178  -0.0002120  -0.0003662
            7           8
    1   0.0002728   0.0000985
    2   0.0003745   0.0002750
    3   0.0002308  -0.0004203
 Gradient of SCF Energy
            1           2           3           4           5           6
    1   0.0014649  -0.0032537   0.0002487  -0.0195922  -0.0035278   0.0063950
    2  -0.0175592  -0.0004189   0.0067840  -0.0024521  -0.0027947  -0.0026365
    3   0.0004113   0.0000145  -0.0069155   0.0055386   0.0027346   0.0036423
            7           8
    1   0.0164555   0.0018096
    2   0.0033608   0.0157166
    3  -0.0040815  -0.0013442
 Max gradient component =       1.959E-02
 RMS gradient           =       7.841E-03
 Computing fast CPCM-SWIG gradient
 Updating gradient with PCM contributions...
 -- total gradient after adding PCM contribution --
---------------------------------------------------
  Atom         X              Y              Z     
---------------------------------------------------
   1      -0.000111       0.000013       0.000039
   2       0.000104       0.000029      -0.000045
   3      -0.000015      -0.000066      -0.000012
   4       0.000012       0.000012       0.000037
   5       0.000014      -0.000011      -0.000020
   6       0.000007       0.000005      -0.000013
   7      -0.000006      -0.000007      -0.000001
   8      -0.000006       0.000025       0.000015
---------------------------------------------------
 Number of fixed atoms: 0
 Gradient time:  CPU 30.24 s  wall 2.36 s
 Geometry Optimization Parameters
   NAtoms,    NIC,     NZ,  NCons,   NDum,   NFix, NCnnct, MaxDiis
        8      39       0       0       0       0       0       0

 Cartesian Hessian Update
 Hessian updated using BFGS update


** GEOMETRY OPTIMIZATION IN DELOCALIZED INTERNAL COORDINATES **
   Searching for a Minimum

   Optimization Cycle:   7

                       Coordinates (Angstroms)
     ATOM                X               Y               Z
      1  O         5.3553525149    1.0751051358    3.5189425548
      2  O         4.1226243577    0.8278882390    4.1993936263
      3  C         4.3442397302    1.0398193445    5.5787294091
      4  O         4.4676785742    2.4004134509    5.8955077674
      5  H         3.4384076469    0.6613775696    6.0462678270
      6  H         5.2230884273    0.4785626325    5.8933544713
      7  H         5.3793334033    2.6709719845    5.7392102492
      8  H         5.2827491456    2.0123188432    3.2853664949
   Point Group: c1    Number of degrees of freedom:    18


   Energy is   -266.107841893

 Hessian updated using BFGS update

 18 Hessian modes will be used to form the next step
  Hessian Eigenvalues:
     0.003866    0.010285    0.013644    0.089269    0.097626    0.123383
     0.146293    0.158963    0.178552    0.228051    0.288390    0.342203
     0.348200    0.435927    0.437153    0.458962    0.512315    0.527681

 Minimum search - taking simple RFO step
 Searching for Lamda that Minimizes Along All modes
 Value Taken    Lamda =  -0.00000012
 Step Taken.  Stepsize is  0.003819

                             Maximum     Tolerance    Cnvgd?
         Gradient           0.000060      0.000300     YES
         Displacement       0.002165      0.001200      NO
         Energy change     -0.000000      0.000001     YES


                       Distance Matrix (Angstroms)
             O (  1)   O (  2)   C (  3)   O (  4)   H (  5)   H (  6)
   O (  2)  1.429597
   C (  3)  2.294846  1.413009
   O (  4)  2.862249  2.338525  1.402427
   H (  5)  3.198941  1.976568  1.087356  2.026419
   H (  6)  2.451773  2.050013  1.089208  2.064984  1.800525
   H (  7)  2.734402  2.710592  1.938513  0.963714  2.810684  2.203368
   H (  8)  0.968607  1.893201  2.661967  2.761846  3.584580  3.026148
             H (  7)
   H (  8)  2.542538
 
 Final energy is   -266.107841892847     


 ******************************
 **  OPTIMIZATION CONVERGED  **
 ******************************

                       Coordinates (Angstroms)
     ATOM                X               Y               Z
      1  O         5.3553525149    1.0751051358    3.5189425548
      2  O         4.1226243577    0.8278882390    4.1993936263
      3  C         4.3442397302    1.0398193445    5.5787294091
      4  O         4.4676785742    2.4004134509    5.8955077674
      5  H         3.4384076469    0.6613775696    6.0462678270
      6  H         5.2230884273    0.4785626325    5.8933544713
      7  H         5.3793334033    2.6709719845    5.7392102492
      8  H         5.2827491456    2.0123188432    3.2853664949

Z-matrix Print:
$molecule
0 1
O 
C  1 1.413009
H  2 1.087356 1 103.702078
H  2 1.089208 1 109.343814 3 119.190744 0
O  2 1.402427 1 112.322045 3 -116.700454 0
H  5 0.963714 2 108.602517 1 -84.173477 0
O  1 1.429597 2 107.665133 3 -169.871819 0
H  7 0.968607 1 102.560370 2 -92.220811 0
$end

 
 --------------------------------------------------------------
 
                    Orbital Energies (a.u.)
 --------------------------------------------------------------
 
 Alpha MOs
 -- Occupied --
-19.4038 -19.3954 -19.3487 -10.4374  -1.2751  -1.1696  -1.0439  -0.7895
 -0.6627  -0.6495  -0.6052  -0.5741  -0.5141  -0.4718  -0.4386  -0.4103
 -0.4053
 -- Virtual --
  0.0285   0.0460   0.0578   0.0636   0.0878   0.1078   0.1295   0.1513
  0.1558   0.2021   0.2120   0.2154   0.2425   0.2462   0.2660   0.2701
  0.2752   0.2819   0.2921   0.3015   0.3049   0.3214   0.3574   0.3759
  0.4012   0.4221   0.4370   0.5618   0.5893   0.6033   0.6145   0.6410
  0.6638   0.6871   0.7313   0.7553   0.8190   0.8437   0.8795   0.9370
  0.9869   1.0018   1.0397   1.0486   1.0800   1.1028   1.1320   1.1682
  1.1879   1.2026   1.2128   1.2308   1.2669   1.3229   1.3717   1.3939
  1.4059   1.4669   1.4954   1.5268   1.5559   1.6058   1.6398   1.6723
  1.7023   1.7830   1.8257   1.9306   1.9668   2.0227   2.0951   2.1578
  2.2381   2.3025   2.3079   2.3537   2.3789   2.4021   2.5918   2.6368
  2.7137   2.8007   2.8442   3.1271   3.1587   3.2080   3.2793   3.3100
  3.3861   3.4272   3.4923   3.4949   3.5337   3.7098   3.7400   3.7940
  3.8153   3.8310   3.8756   3.9062   4.0118   4.1480   4.2317   4.2434
  4.2620   4.3087   4.3919   4.4430   4.6546   4.7270   4.8212   4.9622
  5.0373   5.0828   5.1772   5.1995   5.2311   5.2475   5.2602   5.2830
  5.3612   5.3682   5.4340   5.4491   5.4689   5.5710   5.6015   5.6259
  5.6485   5.7493   5.8245   6.0093   6.0774   6.1414   6.2160   6.4932
  6.6874   6.8199   6.9915   7.0030   7.0460   7.1539   7.2016   7.2567
  7.2773   7.2844   7.3690   7.4075   7.4462   7.5754   7.6148   7.7110
  7.7920   7.9146   8.1300  24.7605  50.4658  50.4991  50.5868
 --------------------------------------------------------------
 
          Ground-State Mulliken Net Atomic Charges

     Atom                 Charge (a.u.)
  ----------------------------------------
      1 O                    -0.346516
      2 O                    -0.154473
      3 C                    -0.136045
      4 O                    -0.449936
      5 H                     0.184849
      6 H                     0.214969
      7 H                     0.339349
      8 H                     0.347804
  ----------------------------------------
  Sum of atomic charges =     0.000000

 -----------------------------------------------------------------
                    Cartesian Multipole Moments
 -----------------------------------------------------------------
    Charge (ESU x 10^10)
                 0.0000
    Dipole Moment (Debye)
         X       1.9207      Y       1.1779      Z       0.9929
       Tot       2.4622
    Quadrupole Moments (Debye-Ang)
        XX      -5.5811     XY      12.2413     YY     -20.9011
        XZ      14.2691     YZ       1.0406     ZZ     -15.3355
    Octopole Moments (Debye-Ang^2)
       XXX    -198.8045    XXY      58.7095    XYY     -75.9154
       YYY     -89.4026    XXZ       1.3627    XYZ      39.2478
       YYZ    -116.7864    XZZ     -19.5791    YZZ     -48.7339
       ZZZ    -295.7232
    Hexadecapole Moments (Debye-Ang^3)
      XXXX   -2262.0400   XXXY     150.5670   XXYY    -314.1949
      XYYY    -357.2246   YYYY    -328.3445   XXXZ    -771.4463
      XXYZ     193.1034   XYYZ    -427.1730   YYYZ    -495.8520
      XXZZ    -401.3030   XYZZ     -41.3444   YYZZ    -722.8202
      XZZZ   -1065.8582   YZZZ    -691.0736   ZZZZ   -3295.2942
 -----------------------------------------------------------------
 Total job time:  101.49s(wall), 1531.31s(cpu) 
 Wed Jul 31 21:12:12 2024

        *************************************************************
        *                                                           *
        *  Thank you very much for using Q-Chem.  Have a nice day.  *
        *                                                           *
        *************************************************************


