
Running Job 1 of 1 Q_in.in
qchem Q_in.in_449339.0 /scratch/ari.fischer/qChem2103774.hpc-mn1/qchem449339/ 0
/usr/local/qchem-5.4.1/exe/qcprog.exe_s Q_in.in_449339.0 /scratch/ari.fischer/qChem2103774.hpc-mn1/qchem449339/
                  Welcome to Q-Chem
     A Quantum Leap Into The Future Of Chemistry


 Q-Chem 5.4, Q-Chem, Inc., Pleasanton, CA (2021)

 License issued to: Nanyang Technological University (site)

 E. Epifanovsky,  A. T. B. Gilbert,  Xintian Feng,  Joonho Lee,  Yuezhi Mao,  
 N. Mardirossian,  P. Pokhilko,  A. White,  M. Wormit,  M. P. Coons,  
 A. L. Dempwolff,  Zhengting Gan,  D. Hait,  P. R. Horn,  L. D. Jacobson,  
 I. Kaliman,  J. Kussmann,  A. W. Lange,  Ka Un Lao,  D. S. Levine,  Jie Liu,  
 S. C. McKenzie,  A. F. Morrison,  K. Nanda,  F. Plasser,  D. R. Rehn,  
 M. L. Vidal,  Zhi-Qiang You,  Ying Zhu,  B. Alam,  B. Albrecht,  
 A. Aldossary,  E. Alguire,  J. H. Andersen,  D. Barton,  K. Begam,  A. Behn,  
 Y. A. Bernard,  E. J. Berquist,  H. Burton,  A. Carreras,  K. Carter-Fenk,  
 R. Chakraborty,  A. D. Chien,  K. D. Closser,  V. Cofer-Shabica,  
 S. Dasgupta,  Jia Deng,  M. de Wergifosse,  M. Diedenhofen,  Hainam Do,  
 S. Ehlert,  Po-Tung Fang,  S. Fatehi,  Qingguo Feng,  T. Friedhoff,  
 J. Gayvert,  Qinghui Ge,  G. Gidofalvi,  M. Goldey,  J. Gomes,  
 C. Gonzalez-Espinoza,  S. Gulania,  A. Gunina,  M. W. D. Hanson-Heine,  
 P. H. P. Harbach,  A. W. Hauser,  M. F. Herbst,  M. Hernandez Vera,  
 M. Hodecker,  Z. C. Holden,  S. Houck,  Xunkun Huang,  Kerwin Hui,  
 B. C. Huynh,  M. Ivanov,  Hyunjun Ji,  Hanjie Jiang,  B. Kaduk,  S. Kaehler,  
 K. Khistyaev,  Jaehoon Kim,  P. Klunzinger,  Z. Koczor-Benda,  
 Joong Hoon Koh,  D. Kosenkov,  L. Koulias,  T. Kowalczyk,  C. M. Krauter,  
 K. Kue,  A. Kunitsa,  T. Kus,  A. Landau,  K. V. Lawler,  D. Lefrancois,  
 S. Lehtola,  Rain Li,  Yi-Pei Li,  Jiashu Liang,  M. Liebenthal,  
 Hung-Hsuan Lin,  You-Sheng Lin,  Fenglai Liu,  Kuan-Yu Liu,  
 M. Loipersberger,  A. Luenser,  A. Manjanath,  P. Manohar,  E. Mansoor,  
 S. F. Manzer,  Shan-Ping Mao,  A. V. Marenich,  T. Markovich,  S. Mason,  
 S. A. Maurer,  P. F. McLaughlin,  M. F. S. J. Menger,  J.-M. Mewes,  
 S. A. Mewes,  P. Morgante,  J. W. Mullinax,  K. J. Oosterbaan,  G. Paran,  
 Alexander C. Paul,  Suranjan K. Paul,  F. Pavosevic,  Zheng Pei,  S. Prager,  
 E. I. Proynov,  E. Ramos,  B. Rana,  A. E. Rask,  A. Rettig,  R. M. Richard,  
 F. Rob,  E. Rossomme,  T. Scheele,  M. Scheurer,  M. Schneider,  
 N. Sergueev,  S. M. Sharada,  W. Skomorowski,  D. W. Small,  C. J. Stein,  
 Yu-Chuan Su,  E. J. Sundstrom,  Zhen Tao,  J. Thirman,  T. Tsuchimochi,  
 N. M. Tubman,  S. P. Veccham,  O. Vydrov,  J. Wenzel,  J. Witte,  A. Yamada,  
 Kun Yao,  S. Yeganeh,  S. R. Yost,  A. Zech,  Igor Ying Zhang,  Xing Zhang,  
 Yu Zhang,  D. Zuev,  A. Aspuru-Guzik,  A. T. Bell,  N. A. Besley,  
 K. B. Bravaya,  B. R. Brooks,  D. Casanova,  Jeng-Da Chai,  S. Coriani,  
 C. J. Cramer,  A. E. DePrince, III,  R. A. DiStasio Jr.,  A. Dreuw,  
 B. D. Dunietz,  T. R. Furlani,  W. A. Goddard III,  S. Grimme,  
 S. Hammes-Schiffer,  T. Head-Gordon,  W. J. Hehre,  Chao-Ping Hsu,  
 T.-C. Jagau,  Yousung Jung,  A. Klamt,  Jing Kong,  D. S. Lambrecht,  
 WanZhen Liang,  N. J. Mayhall,  C. W. McCurdy,  J. B. Neaton,  
 C. Ochsenfeld,  J. A. Parkhill,  R. Peverati,  V. A. Rassolov,  Yihan Shao,  
 L. V. Slipchenko,  T. Stauch,  R. P. Steele,  J. E. Subotnik,  
 A. J. W. Thom,  A. Tkatchenko,  D. G. Truhlar,  T. Van Voorhis,  
 T. A. Wesolowski,  K. B. Whaley,  H. L. Woodcock III,  P. M. Zimmerman,  
 S. Faraji,  P. M. W. Gill,  M. Head-Gordon,  J. M. Herbert,  A. I. Krylov

 Additional authors for Version 5.4.1: 
 S. Kotaru,  Shaozhi Li,  Xiangyuan Li,  F. Matz,  A. Molle,  Haisheng Ren,  
 Yingli Su,  Hung-Yi Tsai,  C. Utku,  Fang Wang

 Contributors to earlier versions of Q-Chem not listed above: 
 R. D. Adamson,  B. Austin,  R. Baer,  J. Baker,  G. J. O. Beran,  
 K. Brandhorst,  S. T. Brown,  E. F. C. Byrd,  A. K. Chakraborty,  
 G. K. L. Chan,  Chun-Min Chang,  Yunqing Chen,  C.-L. Cheng,  
 Siu Hung Chien,  D. M. Chipman,  D. L. Crittenden,  H. Dachsel,  
 R. J. Doerksen,  A. D. Dutoi,  R. G. Edgar,  J. Fosso-Tande,  
 L. Fusti-Molnar,  D. Ghosh,  A. Ghysels,  A. Golubeva-Zadorozhnaya,  
 J. Gonthier,  M. S. Gordon,  S. R. Gwaltney,  G. Hawkins,  J. E. Herr,  
 A. Heyden,  S. Hirata,  E. G. Hohenstein,  G. Kedziora,  F. J. Keil,  
 C. Kelley,  Jihan Kim,  R. A. King,  R. Z. Khaliullin,  P. P. Korambath,  
 W. Kurlancheek,  A. Laurent,  A. M. Lee,  M. S. Lee,  S. V. Levchenko,  
 Ching Yeh Lin,  D. Liotard,  E. Livshits,  R. C. Lochan,  I. Lotan,  
 L. A. Martinez-Martinez,  P. E. Maslen,  N. Nair,  D. P. O'Neill,  
 D. Neuhauser,  E. Neuscamman,  C. M. Oana,  R. Olivares-Amaya,  R. Olson,  
 T. M. Perrine,  B. Peters,  P. A. Pieniazek,  A. Prociuk,  Y. M. Rhee,  
 J. Ritchie,  M. A. Rohrdanz,  E. Rosta,  N. J. Russ,  H. F. Schaefer III,  
 M. W. Schmidt,  N. E. Schultz,  S. Sharma,  N. Shenvi,  C. D. Sherrill,  
 A. C. Simmonett,  A. Sodt,  T. Stein,  D. Stuck,  K. S. Thanthiriwatte,  
 V. Vanovschi,  L. Vogt,  Tao Wang,  A. Warshel,  M. A. Watson,  
 C. F. Williams,  Q. Wu,  X. Xu,  Jun Yang,  W. Zhang,  Yan Zhao

 Please cite Q-Chem as follows:
 Y. Shao et al., Mol. Phys. 113, 184-215 (2015)
 DOI: 10.1080/00268976.2014.952696

 Q-Chem 5.4.1 for Intel X86 EM64T Linux

 Parts of Q-Chem use Armadillo 9.800.1 (Horizon Scraper).
 http://arma.sourceforge.net/

 Q-Chem begins on Wed May 15 19:17:39 2024  

 Host: 
0

     Scratch files written to /scratch/ari.fischer/qChem2103774.hpc-mn1/qchem449339//
 Aug1521 |scratch|qcdevops|jenkins|workspace|build_RNUM 8249   
 Processing $rem in /usr/local/qchem-5.4.1/config/preferences:
 Processing $rem in /home/ari.fischer/.qchemrc:
 Symmetry turned off for PCM/SM12/SMD calculation

 Checking the input file for inconsistencies... 	...done.

--------------------------------------------------------------
User input:
--------------------------------------------------------------
$molecule
-1 2
O         3.1845608223   -0.8694993751   -0.5477475164
C         2.2641637429    0.1215925277   -0.1508837950
C         2.6889849272    0.9520749622    1.0510928984
O         1.8460444151    1.6379770509    1.6270229097
C         4.1327241294    0.9920712884    1.3935512345
C         4.7083157677    1.9526915166    2.1225541063
C         4.0278516999    3.1413841573    2.7458198439
O         3.5003592911    2.7333561897    3.9947440349
O         5.0282542983    4.1295136091    2.8997987869
H         3.1518017020   -1.5627890501    0.1757202313
H         1.2708342222   -0.2905076240    0.0737874143
H         2.1383666960    0.8280711055   -0.9833169453
H         4.7446324382    0.1999469895    0.9760188979
H         5.7814410539    1.9059371246    2.3040678990
H         3.2230193808    3.5243558799    2.1115766004
H         2.8892370817    3.4309618490    4.2853931413
H         4.5756570249    4.9702132838    3.0774855310
O         2.9462143537   -2.4104463401    1.5740725503
O         2.6688682525   -1.3632855449    2.3413634767
$end

$rem
BASIS = 6-311++G(2df,2p)
GUI = 2
JOB_TYPE = Optimization
METHOD = wB97M-V
SCF_ALGORITHM = DIIS_GDM
MAX_SCF_CYCLES = 400
GEOM_OPT_MAX_CYCLES = 150
SCF_CONVERGENCE = 7
THRESH = 12
Solvent_method = SMD
$end
--------------------------------------------------------------
 ----------------------------------------------------------------
             Standard Nuclear Orientation (Angstroms)
    I     Atom           X                Y                Z
 ----------------------------------------------------------------
    1      O       3.1845608223    -0.8694993751    -0.5477475164
    2      C       2.2641637429     0.1215925277    -0.1508837950
    3      C       2.6889849272     0.9520749622     1.0510928984
    4      O       1.8460444151     1.6379770509     1.6270229097
    5      C       4.1327241294     0.9920712884     1.3935512345
    6      C       4.7083157677     1.9526915166     2.1225541063
    7      C       4.0278516999     3.1413841573     2.7458198439
    8      O       3.5003592911     2.7333561897     3.9947440349
    9      O       5.0282542983     4.1295136091     2.8997987869
   10      H       3.1518017020    -1.5627890501     0.1757202313
   11      H       1.2708342222    -0.2905076240     0.0737874143
   12      H       2.1383666960     0.8280711055    -0.9833169453
   13      H       4.7446324382     0.1999469895     0.9760188979
   14      H       5.7814410539     1.9059371246     2.3040678990
   15      H       3.2230193808     3.5243558799     2.1115766004
   16      H       2.8892370817     3.4309618490     4.2853931413
   17      H       4.5756570249     4.9702132838     3.0774855310
   18      O       2.9462143537    -2.4104463401     1.5740725503
   19      O       2.6688682525    -1.3632855449     2.3413634767
 ----------------------------------------------------------------
 Nuclear Repulsion Energy =         632.60626262 hartrees
 There are       44 alpha and       43 beta electrons
 Requested basis set is 6-311++G(2df,2p)
 There are 136 shells and 454 basis functions

 Total QAlloc Memory Limit 288000 MB
 Mega-Array Size       188 MB
 MEM_STATIC part       192 MB
 
 Citation of the SMD model:
 Marenich, A.V.; Cramer, C.J.; Truhlar, D.G.
 J. Phys. Chem. B 2009, 113, 6378-6396.
 iSolventCode=           1
 Solvent: water                                                           
 
 vradii
            1           2           3           4           5           6
    1   1.5200000   1.8500000   1.8500000   1.5200000   1.8500000   1.8500000
            7           8           9          10          11          12
    1   1.8500000   1.5200000   1.5200000   1.2000000   1.2000000   1.2000000
           13          14          15          16          17          18
    1   1.2000000   1.2000000   1.2000000   1.2000000   1.2000000   1.5200000
           19
    1   1.5200000
 Changing PCM_VDW_RADII to SMD_RADIUS
 Discretize the solute cavity surface with Lebedev spheres
	Using 110 Lebedev grid points for each H atom
	Using 194 Lebedev grid points for other atoms
	Atomic van der Waals radii will be scaled by 1.20
 Remove points where switching function is < 1.0e-08
 Keep 1550 surface tesserae and discard 1464 interior tesserae
 Molecular Surface Area = 178.856 Angst**2
 A cutoff of  1.0D-12 yielded   7726 shell pairs
 There are     85232 function pairs (    106094 Cartesian)
 Smallest overlap matrix eigenvalue = 3.05E-06

 Scale SEOQF with 1.000000e-02/1.000000e-01/1.000000e-01

 Standard Electronic Orientation quadrupole field applied
 Nucleus-field energy     =    -0.0000000094 hartrees
 Guess from superposition of atomic densities
 Warning:  Energy on first SCF cycle will be non-variational
 SAD guess density has 86.000000 electrons

 -----------------------------------------------------------------------
  General SCF calculation program by
  Eric Jon Sundstrom, Paul Horn, Yuezhi Mao, Dmitri Zuev, Alec White,
  David Stuck, Shaama M.S., Shane Yost, Joonho Lee, David Small,
  Daniel Levine, Susi Lehtola, Hugh Burton, Evgeny Epifanovsky,
  Bang C. Huynh
 -----------------------------------------------------------------------
 Exchange:     0.1500 Hartree-Fock + 1.0000 wB97M-V + LR-HF
 Correlation:  1.0000 wB97M-V
 Using SG-2 standard quadrature grid
 Nonlocal Correlation:  VV10 with C = 0.0100 and b = 6.00 and scale = 1.00000
 Grid used for NLC:  SG-1 standard quadrature
 
 Citation of the SMD model:
 Marenich, A.V.; Cramer, C.J.; Truhlar, D.G.
 J. Phys. Chem. B 2009, 113, 6378-6396.
 iSolventCode=           1
 Solvent: water                                                           
 
 vradii
            1           2           3           4           5           6
    1   1.5200000   1.8500000   1.8500000   1.5200000   1.8500000   1.8500000
            7           8           9          10          11          12
    1   1.8500000   1.5200000   1.5200000   1.2000000   1.2000000   1.2000000
           13          14          15          16          17          18
    1   1.2000000   1.2000000   1.2000000   1.2000000   1.2000000   1.5200000
           19
    1   1.5200000
 using 16 threads for integral computing
 -------------------------------------------------------
 OpenMP Integral computing Module                
 Release: version 1.0, May 2013, Q-Chem Inc. Pittsburgh 
 -------------------------------------------------------
 -------------------------------------------------------
 OpenMP BLAS3 based DFT computing Module                
 Release: version 1.0, May 2013, Q-Chem Inc. Pittsburgh 
 -------------------------------------------------------
 A unrestricted SCF calculation will be
 performed using DIIS, GDM
 SCF converges when RMS gradient is below 1.0e-07
 ---------------------------------------
  Cycle       Energy         DIIS error
 ---------------------------------------
    1    -648.3316344896      1.13e-02  
    2    -646.5165648899      1.59e-03  Done DIIS. Switching to GDM
 ---------------------------------------
  Cycle       Energy        RMS Gradient
 ---------------------------------------
    1    -646.5165648899      8.72e-02   Descent step
    2    -646.6953327636      1.54e-02   Normal BFGS step
    3    -646.7237846045      1.08e-02   Normal BFGS step
    4    -646.7258878207      1.01e-02   Normal BFGS step
    5    -646.7268859941      1.94e-03   Normal BFGS step
    6    -646.7269410066      1.45e-03   Normal BFGS step
    7    -646.7269615618      9.90e-04   Normal BFGS step
    8    -646.7269632103      2.74e-04   Normal BFGS step
    9    -646.7269644973      3.17e-04   Normal BFGS step
   10    -646.7269647615      1.58e-04   Normal BFGS step
   11    -646.7269648719      7.45e-05   Normal BFGS step
   12    -646.7269649042      1.95e-05   Normal BFGS step
   13    -646.7269649096      1.36e-05   Normal BFGS step
   14    -646.7269649109      1.18e-05   Normal BFGS step
   15    -646.7269649113      1.16e-05   Normal BFGS step
   16    -646.7269649120      1.06e-05   Normal BFGS step
   17    -646.7269649128      9.04e-06   Normal BFGS step
   18    -646.7269649140      7.66e-06   Normal BFGS step
   19    -646.7269649150      9.15e-06   Normal BFGS step
   20    -646.7269649157      8.35e-06   Normal BFGS step
   21    -646.7269649161      4.65e-06   Normal BFGS step
   22    -646.7269649163      1.90e-06   Normal BFGS step
   23    -646.7269649164      1.04e-06   Normal BFGS step
   24    -646.7269649164      5.18e-07   Normal BFGS step
   25    -646.7269649164      2.89e-07   Normal BFGS step
   26    -646.7269649164      6.60e-08  Convergence criterion met
 ---------------------------------------
 SCF time:   CPU 3382.92s  wall 291.00s 
<S^2> =          0.755120845
(3)  G-ENP(liq) elect-nuc-pol free energy of system     -646.726964916 a.u.
(4)  G-CDS(liq) cavity-dispersion-solvent structure 
     free energy                                                3.8329 kcal/mol
(6)  G-S(liq) free energy of system                     -646.720856818 a.u.
 SCF   energy in the final basis set =     -646.7208568180
 Total energy in the final basis set =     -646.7208568180
 
 --------------------------------------------------------------
 
                    Orbital Energies (a.u.)
 --------------------------------------------------------------
 
 Alpha MOs
 -- Occupied --
-19.3517 -19.3506 -19.3443 -19.3437 -19.3257 -19.3189 -10.4469 -10.4396
-10.3832 -10.3611 -10.3497  -1.2305  -1.1969  -1.1742  -1.1383  -1.1309
 -0.9244  -0.8817  -0.8406  -0.7978  -0.7187  -0.6623  -0.6416  -0.6305
 -0.6179  -0.5794  -0.5741  -0.5519  -0.5375  -0.5326  -0.5210  -0.5126
 -0.5027  -0.4988  -0.4902  -0.4568  -0.4399  -0.4162  -0.4127  -0.4012
 -0.3771  -0.3479  -0.3353  -0.3051
 -- Virtual --
  0.0173   0.0293   0.0396   0.0427   0.0555   0.0614   0.0626   0.0733
  0.0876   0.1064   0.1090   0.1159   0.1199   0.1268   0.1377   0.1453
  0.1519   0.1583   0.1622   0.1673   0.1707   0.1781   0.1806   0.1878
  0.1941   0.1956   0.2061   0.2105   0.2218   0.2232   0.2322   0.2522
  0.2572   0.2601   0.2671   0.2787   0.2871   0.2957   0.3005   0.3060
  0.3116   0.3146   0.3207   0.3238   0.3292   0.3407   0.3427   0.3471
  0.3531   0.3598   0.3615   0.3716   0.3779   0.3795   0.3878   0.3901
  0.3999   0.4072   0.4111   0.4142   0.4328   0.4360   0.4418   0.4499
  0.4522   0.4646   0.4723   0.5041   0.5058   0.5304   0.5553   0.5765
  0.5807   0.5880   0.6077   0.6113   0.6389   0.6467   0.6597   0.6652
  0.6706   0.6790   0.6859   0.6953   0.7008   0.7064   0.7122   0.7281
  0.7337   0.7547   0.7593   0.7660   0.7900   0.7957   0.8135   0.8174
  0.8345   0.8495   0.8596   0.8796   0.8884   0.9160   0.9234   0.9352
  0.9418   0.9848   0.9950   1.0143   1.0531   1.0569   1.0765   1.0809
  1.0910   1.0955   1.1197   1.1267   1.1325   1.1373   1.1465   1.1651
  1.1703   1.1805   1.1901   1.2028   1.2073   1.2139   1.2214   1.2263
  1.2425   1.2619   1.2797   1.2878   1.2908   1.3057   1.3109   1.3217
  1.3324   1.3468   1.3516   1.3604   1.3811   1.3932   1.4038   1.4247
  1.4332   1.4405   1.4514   1.4628   1.4761   1.4896   1.4947   1.5118
  1.5244   1.5286   1.5402   1.5489   1.5796   1.5951   1.6027   1.6101
  1.6299   1.6422   1.6562   1.6700   1.6890   1.7012   1.7038   1.7384
  1.7572   1.7700   1.7765   1.8126   1.8474   1.8620   1.8878   1.9126
  1.9343   1.9394   1.9834   2.0202   2.0773   2.1120   2.1473   2.1603
  2.1782   2.1967   2.2368   2.2555   2.2811   2.3059   2.3219   2.3446
  2.3520   2.3836   2.3948   2.4262   2.4895   2.5079   2.5372   2.5923
  2.5989   2.6340   2.6458   2.6884   2.7277   2.7620   2.7687   2.8099
  2.8233   2.8454   2.8496   2.8683   2.8996   2.9184   2.9374   2.9654
  2.9710   2.9819   2.9951   3.0122   3.0227   3.0660   3.0910   3.1381
  3.1700   3.1880   3.1962   3.2346   3.2545   3.2726   3.2855   3.3111
  3.3330   3.3427   3.3535   3.3832   3.3939   3.4085   3.4156   3.4333
  3.4522   3.4779   3.4919   3.5107   3.5203   3.5480   3.5703   3.6046
  3.6302   3.6432   3.6598   3.6797   3.6892   3.7093   3.7225   3.7491
  3.7540   3.7605   3.7908   3.8183   3.8328   3.8699   3.8823   3.8967
  3.9082   3.9127   3.9158   3.9499   3.9579   4.0153   4.0274   4.0591
  4.0764   4.1297   4.1694   4.1734   4.1829   4.1996   4.2131   4.2232
  4.2437   4.2862   4.2951   4.3284   4.3510   4.3900   4.4074   4.4304
  4.4364   4.4507   4.4653   4.4833   4.5177   4.5372   4.6062   4.6117
  4.6402   4.6956   4.7114   4.7659   4.7916   4.7975   4.8482   4.8622
  4.8711   4.9199   5.0395   5.1094   5.1268   5.1475   5.2004   5.2028
  5.2158   5.2238   5.2349   5.2359   5.2506   5.2570   5.2609   5.2661
  5.2788   5.2990   5.3023   5.3212   5.3321   5.3422   5.3458   5.3577
  5.3807   5.3907   5.4237   5.4243   5.4689   5.4881   5.5192   5.5263
  5.5592   5.5977   5.5989   5.6074   5.6177   5.6317   5.6398   5.6435
  5.6495   5.6744   5.6776   5.7175   5.7361   5.8198   5.8640   5.9825
  6.0297   6.0455   6.0517   6.0788   6.1580   6.3546   6.4366   6.4750
  6.5294   6.6531   6.7102   6.8266   6.8641   6.9573   6.9628   7.0015
  7.0144   7.0535   7.0662   7.1018   7.1219   7.1346   7.1614   7.1910
  7.2059   7.2345   7.2520   7.2864   7.2887   7.3270   7.3876   7.3948
  7.4096   7.4246   7.4279   7.5085   7.5297   7.6222   7.6468   7.6936
  7.7017   7.8043   7.8150   7.8602   7.8989   7.9918   8.0375  24.4004
 24.7455  24.8042  25.0090  25.2219  50.4790  50.5290  50.6025  50.6132
 50.6149  50.7623
 
 Beta MOs
 -- Occupied --
-19.3443 -19.3437 -19.3380 -19.3355 -19.3258 -19.3189 -10.4469 -10.4396
-10.3832 -10.3611 -10.3497  -1.2019  -1.1969  -1.1742  -1.1380  -1.1309
 -0.9243  -0.8496  -0.8308  -0.7977  -0.7187  -0.6621  -0.6416  -0.6297
 -0.6177  -0.5786  -0.5739  -0.5515  -0.5213  -0.5156  -0.5101  -0.4997
 -0.4926  -0.4881  -0.4568  -0.4499  -0.4362  -0.4161  -0.4126  -0.4009
 -0.3756  -0.3479  -0.2860
 -- Virtual --
  0.0152   0.0255   0.0295   0.0398   0.0429   0.0557   0.0616   0.0629
  0.0734   0.0880   0.1069   0.1093   0.1168   0.1204   0.1269   0.1384
  0.1455   0.1524   0.1586   0.1625   0.1679   0.1714   0.1792   0.1808
  0.1885   0.1954   0.1974   0.2071   0.2110   0.2224   0.2239   0.2353
  0.2529   0.2592   0.2618   0.2672   0.2833   0.2881   0.2961   0.3017
  0.3065   0.3126   0.3168   0.3213   0.3257   0.3299   0.3409   0.3446
  0.3494   0.3559   0.3609   0.3645   0.3740   0.3785   0.3807   0.3884
  0.3910   0.4004   0.4085   0.4118   0.4143   0.4332   0.4363   0.4438
  0.4523   0.4527   0.4654   0.4727   0.5045   0.5064   0.5306   0.5556
  0.5769   0.5808   0.5882   0.6079   0.6115   0.6392   0.6467   0.6598
  0.6657   0.6707   0.6791   0.6860   0.6953   0.7016   0.7068   0.7123
  0.7284   0.7338   0.7549   0.7594   0.7662   0.7901   0.7961   0.8139
  0.8180   0.8359   0.8496   0.8601   0.8798   0.8887   0.9162   0.9238
  0.9354   0.9420   0.9850   0.9957   1.0150   1.0541   1.0586   1.0774
  1.0819   1.0913   1.0964   1.1229   1.1308   1.1363   1.1381   1.1499
  1.1676   1.1781   1.1851   1.1986   1.2046   1.2123   1.2154   1.2244
  1.2358   1.2460   1.2643   1.2810   1.2882   1.2946   1.3072   1.3182
  1.3227   1.3364   1.3491   1.3535   1.3651   1.3846   1.3952   1.4058
  1.4262   1.4381   1.4412   1.4532   1.4754   1.4781   1.4907   1.4966
  1.5153   1.5264   1.5294   1.5431   1.5524   1.5807   1.5961   1.6069
  1.6137   1.6303   1.6444   1.6612   1.6794   1.6907   1.7043   1.7095
  1.7409   1.7580   1.7722   1.8000   1.8185   1.8538   1.8638   1.8954
  1.9133   1.9366   1.9467   1.9850   2.0227   2.0778   2.1152   2.1478
  2.1623   2.1789   2.2060   2.2400   2.2560   2.2863   2.3142   2.3399
  2.3463   2.3567   2.3850   2.3948   2.4263   2.4909   2.5093   2.5419
  2.5949   2.5991   2.6344   2.6459   2.6885   2.7294   2.7647   2.7732
  2.8104   2.8235   2.8455   2.8501   2.8686   2.8997   2.9185   2.9374
  2.9655   2.9712   2.9820   2.9953   3.0124   3.0229   3.0661   3.0912
  3.1382   3.1700   3.1880   3.1962   3.2348   3.2545   3.2728   3.2858
  3.3112   3.3331   3.3428   3.3537   3.3834   3.3940   3.4086   3.4157
  3.4333   3.4524   3.4780   3.4919   3.5108   3.5208   3.5480   3.5703
  3.6047   3.6302   3.6432   3.6599   3.6797   3.6892   3.7094   3.7227
  3.7492   3.7539   3.7605   3.7909   3.8184   3.8329   3.8699   3.8823
  3.8967   3.9084   3.9126   3.9159   3.9497   3.9578   4.0153   4.0274
  4.0591   4.0765   4.1297   4.1694   4.1735   4.1829   4.1996   4.2132
  4.2233   4.2439   4.2861   4.2951   4.3284   4.3512   4.3901   4.4076
  4.4308   4.4365   4.4510   4.4655   4.4834   4.5183   4.5382   4.6095
  4.6364   4.6480   4.7039   4.7118   4.7676   4.8157   4.8214   4.8506
  4.8642   4.8817   4.9203   5.0443   5.1473   5.1803   5.1999   5.2029
  5.2051   5.2163   5.2460   5.2489   5.2571   5.2603   5.2719   5.2837
  5.2936   5.3004   5.3069   5.3224   5.3246   5.3441   5.3475   5.3506
  5.3665   5.3858   5.4053   5.4240   5.4317   5.4691   5.4913   5.5195
  5.5270   5.5592   5.5996   5.6007   5.6155   5.6316   5.6373   5.6443
  5.6471   5.6528   5.6765   5.6873   5.7177   5.7377   5.8200   5.8641
  5.9826   6.0297   6.0455   6.0525   6.0789   6.1581   6.3549   6.4824
  6.4861   6.5294   6.6542   6.7103   6.8383   6.9110   7.0070   7.0229
  7.0273   7.0617   7.0644   7.0672   7.1210   7.1344   7.1607   7.1836
  7.1938   7.2118   7.2346   7.2521   7.2880   7.3129   7.3271   7.3879
  7.3954   7.4128   7.4282   7.4799   7.5091   7.5419   7.6223   7.6468
  7.6948   7.7039   7.8044   7.8152   7.8610   7.8989   8.0107   8.0536
 24.4004  24.7455  24.8042  25.0090  25.2219  50.4901  50.5383  50.6025
 50.6134  50.6160  50.7622
 --------------------------------------------------------------
 
          Ground-State Mulliken Net Atomic Charges

     Atom                 Charge (a.u.)    Spin (a.u.)
  --------------------------------------------------------
      1 O                    -0.468440       0.000340
      2 C                    -0.440819      -0.006297
      3 C                     0.135323       0.006293
      4 O                    -0.470973      -0.003960
      5 C                     0.201628       0.009858
      6 C                    -0.271764      -0.008891
      7 C                    -0.324445      -0.000375
      8 O                    -0.421486       0.000066
      9 O                    -0.446416       0.000021
     10 H                     0.342300      -0.003276
     11 H                     0.257724      -0.000439
     12 H                     0.197362      -0.000844
     13 H                     0.298949       0.002040
     14 H                     0.277499      -0.000240
     15 H                     0.255343       0.000155
     16 H                     0.335207      -0.000008
     17 H                     0.339966      -0.000002
     18 O                    -0.427375       0.477190
     19 O                    -0.369583       0.528366
  --------------------------------------------------------
  Sum of atomic charges =    -1.000000
  Sum of spin   charges =     1.000000

 -----------------------------------------------------------------
                    Cartesian Multipole Moments
 -----------------------------------------------------------------
    Charge (ESU x 10^10)
                -4.8032
    Dipole Moment (Debye)
         X     -14.4144      Y       8.3096      Z      -9.1369
       Tot      18.9818
    Quadrupole Moments (Debye-Ang)
        XX    -117.3438     XY      19.8336     YY     -66.4257
        XZ     -28.2545     YZ      16.9045     ZZ     -95.1923
    Octopole Moments (Debye-Ang^2)
       XXX    -873.1281    XXY     -52.1128    XYY    -239.9834
       YYY     -43.1672    XXZ    -222.6931    XYZ      27.0305
       YYZ     -77.4307    XZZ    -333.5890    YZZ      -9.5084
       ZZZ    -419.4760
    Hexadecapole Moments (Debye-Ang^3)
      XXXX   -5866.3107   XXXY   -1116.6362   XXYY   -1368.7931
      XYYY    -459.8857   YYYY   -1397.5271   XXXZ   -1748.3479
      XXYZ    -276.2504   XYYZ    -373.6077   YYYZ    -120.8007
      XXZZ   -1621.3315   XYZZ    -229.7793   YYZZ    -461.7388
      XZZZ   -1625.5814   YZZZ    -467.8258   ZZZZ   -2160.8110
 -----------------------------------------------------------------
 Calculating analytic gradient of the SCF energy
 Gradient of CDS energy
            1           2           3           4           5           6
    1  -0.0010034   0.0007007  -0.0013680   0.0008607   0.0002029   0.0002636
    2   0.0014428  -0.0014676   0.0010632  -0.0008111  -0.0001794  -0.0001074
    3   0.0007124  -0.0015032   0.0008917  -0.0006379  -0.0000604   0.0000898
            7           8           9          10          11          12
    1   0.0003952   0.0003465  -0.0004950   0.0001049  -0.0000136   0.0001268
    2   0.0007397   0.0001469  -0.0007343  -0.0003554  -0.0000889   0.0001468
    3   0.0003494  -0.0005669   0.0000413  -0.0001740   0.0003447  -0.0000551
           13          14          15          16          17          18
    1   0.0000199   0.0002111  -0.0001127  -0.0003599   0.0001685  -0.0000495
    2  -0.0001426   0.0000587  -0.0001225   0.0000203   0.0005022   0.0000133
    3  -0.0000841   0.0000522   0.0000377   0.0003881   0.0000094   0.0001971
           19
    1   0.0000015
    2  -0.0001247
    3  -0.0000322
 Gradient of SCF Energy
            1           2           3           4           5           6
    1   0.0140377  -0.0488975  -0.0241164   0.0109515   0.0494622   0.0072470
    2  -0.0319764   0.0118217   0.0031770  -0.0178380   0.0429573  -0.0689871
    3   0.0114926  -0.0191202   0.0248973  -0.0062199   0.0315498  -0.0563578
            7           8           9          10          11          12
    1  -0.0250869  -0.0045153   0.0176539  -0.0002009   0.0264131   0.0043522
    2   0.0193265  -0.0139172  -0.0051501   0.0212164   0.0134550  -0.0138204
    3  -0.0069090   0.0094652  -0.0000166  -0.0181907  -0.0083196   0.0188403
           13          14          15          16          17          18
    1  -0.0148559  -0.0237568   0.0163280   0.0039222  -0.0089107   0.0039872
    2   0.0287712   0.0000945  -0.0023334   0.0080945   0.0034854  -0.0179188
    3   0.0128384  -0.0044677   0.0125955  -0.0051673   0.0007640  -0.0149016
           19
    1  -0.0040147
    2   0.0195419
    3   0.0172273
 Max gradient component =       6.899E-02
 RMS gradient           =       2.172E-02
 Computing fast CPCM-SWIG gradient
 Updating gradient with PCM contributions...
 -- total gradient after adding PCM contribution --
---------------------------------------------------
  Atom         X              Y              Z     
---------------------------------------------------
   1       0.002759       0.005522      -0.006822
   2       0.003412      -0.004781       0.001245
   3       0.003226      -0.005102      -0.000317
   4      -0.005810       0.005948       0.004319
   5      -0.001710      -0.003483      -0.002362
   6       0.001377       0.004013       0.001965
   7      -0.000400       0.005079       0.004448
   8       0.003355      -0.008652      -0.000917
   9       0.006482      -0.006208      -0.002502
  10      -0.002099      -0.004169       0.006126
  11      -0.003712      -0.000482       0.000736
  12      -0.000544       0.001579      -0.002834
  13       0.001454      -0.002590      -0.001832
  14       0.002983      -0.000109       0.000930
  15      -0.002617       0.000382      -0.002673
  16      -0.003785       0.005886       0.000613
  17      -0.004622       0.004976       0.001429
  18       0.001379      -0.003279      -0.003945
  19      -0.001126       0.005471       0.002393
---------------------------------------------------
 Number of fixed atoms: 0
 Gradient time:  CPU 344.99 s  wall 29.62 s
 Geometry Optimization Parameters
   NAtoms,    NIC,     NZ,  NCons,   NDum,   NFix, NCnnct, MaxDiis
       19     113       0       0       0       0       0       0


** GEOMETRY OPTIMIZATION IN DELOCALIZED INTERNAL COORDINATES **
   Searching for a Minimum

   Optimization Cycle:   1

                       Coordinates (Angstroms)
     ATOM                X               Y               Z
      1  O         3.1845608223   -0.8694993751   -0.5477475164
      2  C         2.2641637429    0.1215925277   -0.1508837950
      3  C         2.6889849272    0.9520749622    1.0510928984
      4  O         1.8460444151    1.6379770509    1.6270229097
      5  C         4.1327241294    0.9920712884    1.3935512345
      6  C         4.7083157677    1.9526915166    2.1225541063
      7  C         4.0278516999    3.1413841573    2.7458198439
      8  O         3.5003592911    2.7333561897    3.9947440349
      9  O         5.0282542983    4.1295136091    2.8997987869
     10  H         3.1518017020   -1.5627890501    0.1757202313
     11  H         1.2708342222   -0.2905076240    0.0737874143
     12  H         2.1383666960    0.8280711055   -0.9833169453
     13  H         4.7446324382    0.1999469895    0.9760188979
     14  H         5.7814410539    1.9059371246    2.3040678990
     15  H         3.2230193808    3.5243558799    2.1115766004
     16  H         2.8892370817    3.4309618490    4.2853931413
     17  H         4.5756570249    4.9702132838    3.0774855310
     18  O         2.9462143537   -2.4104463401    1.5740725503
     19  O         2.6688682525   -1.3632855449    2.3413634767
   Point Group: c1    Number of degrees of freedom:    51


   Energy is   -646.720856818


 Attempting to generate delocalized internal coordinates
 Initial Hessian constructed with Jon Baker's OPTIMIZE code

 51 Hessian modes will be used to form the next step
  Hessian Eigenvalues:
     0.006336    0.006482    0.008541    0.008658    0.011250    0.013553
     0.013722    0.014379    0.017909    0.021390    0.030841    0.056931
     0.072236    0.075709    0.080522    0.082258    0.090240    0.119082
     0.143057    0.159911    0.160000    0.160000    0.160000    0.160000
     0.160000    0.185109    0.200000    0.200000    0.204670    0.220000
     0.220028    0.221322    0.248944    0.250000    0.302238    0.318769
     0.337889    0.338331    0.340776    0.343622    0.348853    0.354514
     0.430961    0.432938    0.440702    0.472407    0.529894    0.531363
     0.580555    0.601049    0.911193

 Minimum search - taking simple RFO step
 Searching for Lamda that Minimizes Along All modes
 Value Taken    Lamda =  -0.00234409
 Step Taken.  Stepsize is  0.200033

                             Maximum     Tolerance    Cnvgd?
         Gradient           0.009471      0.000300      NO
         Displacement       0.084494      0.001200      NO
         Energy change     *********      0.000001      NO


 New Cartesian Coordinates Obtained by Inverse Iteration

 Displacement from previous Coordinates is:  0.944212
 ----------------------------------------------------------------
             Standard Nuclear Orientation (Angstroms)
    I     Atom           X                Y                Z
 ----------------------------------------------------------------
    1      O       3.1955651182    -0.8736307613    -0.5159618438
    2      C       2.2886600004     0.1373383275    -0.1330607373
    3      C       2.7022128501     0.9751691513     1.0621981528
    4      O       1.8485148185     1.6429713542     1.6320179474
    5      C       4.1376884613     1.0268773291     1.4225873312
    6      C       4.7057733085     1.9911628959     2.1411965099
    7      C       4.0309116911     3.1843418405     2.7537597830
    8      O       3.5570988428     2.8168564784     4.0353965881
    9      O       5.0161951981     4.1941516650     2.8500165249
   10      H       3.1331763495    -1.6236748169     0.1383668681
   11      H       1.2922687217    -0.2617011134     0.0729537419
   12      H       2.1885611466     0.8424592956    -0.9635180576
   13      H       4.7577286751     0.2414919385     1.0176424565
   14      H       5.7769335848     1.9538173939     2.3079391074
   15      H       3.2041508752     3.5438564577     2.1439564995
   16      H       2.9464217159     3.5008243808     4.3367041361
   17      H       4.5721897209     5.0353262035     3.0099340857
   18      O       2.8701273736    -2.6214218825     1.4433302545
   19      O       2.5471528475    -1.6825965376     2.3166619520
 ----------------------------------------------------------------
 Nuclear Repulsion Energy =         623.83411798 hartrees
 There are       44 alpha and       43 beta electrons
 Discretize the solute cavity surface with Lebedev spheres
	Using 110 Lebedev grid points for each H atom
	Using 194 Lebedev grid points for other atoms
	Atomic van der Waals radii will be scaled by 1.20
 Remove points where switching function is < 1.0e-08
 Keep 1595 surface tesserae and discard 1419 interior tesserae
 Molecular Surface Area = 182.332 Angst**2
 Applying Cartesian multipole field
    Component          Value
    ---------          -----
     (2,0,0)        1.00000E-12
     (0,2,0)        2.00000E-11
     (0,0,2)       -3.00000E-11
 Nucleus-field energy     =    -0.0000000071 hartrees
 Requested basis set is 6-311++G(2df,2p)
 There are 136 shells and 454 basis functions
 A cutoff of  1.0D-12 yielded   7643 shell pairs
 There are     83912 function pairs (    104321 Cartesian)
 Smallest overlap matrix eigenvalue = 3.22E-06
 Guess MOs from SCF MO coefficient file

 -----------------------------------------------------------------------
  General SCF calculation program by
  Eric Jon Sundstrom, Paul Horn, Yuezhi Mao, Dmitri Zuev, Alec White,
  David Stuck, Shaama M.S., Shane Yost, Joonho Lee, David Small,
  Daniel Levine, Susi Lehtola, Hugh Burton, Evgeny Epifanovsky,
  Bang C. Huynh
 -----------------------------------------------------------------------
 Exchange:     0.1500 Hartree-Fock + 1.0000 wB97M-V + LR-HF
 Correlation:  1.0000 wB97M-V
 Using SG-2 standard quadrature grid
 Nonlocal Correlation:  VV10 with C = 0.0100 and b = 6.00 and scale = 1.00000
 Grid used for NLC:  SG-1 standard quadrature
 
 Citation of the SMD model:
 Marenich, A.V.; Cramer, C.J.; Truhlar, D.G.
 J. Phys. Chem. B 2009, 113, 6378-6396.
 iSolventCode=           1
 Solvent: water                                                           
 
 vradii
            1           2           3           4           5           6
    1   1.5200000   1.8500000   1.8500000   1.5200000   1.8500000   1.8500000
            7           8           9          10          11          12
    1   1.8500000   1.5200000   1.5200000   1.2000000   1.2000000   1.2000000
           13          14          15          16          17          18
    1   1.2000000   1.2000000   1.2000000   1.2000000   1.2000000   1.5200000
           19
    1   1.5200000
 -------------------------------------------------------
 OpenMP BLAS3 based DFT computing Module                
 Release: version 1.0, May 2013, Q-Chem Inc. Pittsburgh 
 -------------------------------------------------------
 A unrestricted SCF calculation will be
 performed using Roothaan-Hall, DIIS, GDM
 SCF converges when RMS gradient is below 1.0e-07
 ---------------------------------------
  Cycle       Energy         DIIS error
 ---------------------------------------
    1    -646.5736413388      3.99e-04  Roothaan Step
 ---------------------------------------
  Cycle       Energy         DIIS error
 ---------------------------------------
    1    -646.7111194801      3.01e-04  
    2    -646.7237939882      2.20e-04  Done DIIS. Switching to GDM
 ---------------------------------------
  Cycle       Energy        RMS Gradient
 ---------------------------------------
    1    -646.7237939882      1.49e-02   Normal BFGS step
    2    -646.7240576364      2.62e-02   Normal BFGS step
    3    -646.7275804647      3.59e-03   Normal BFGS step
    4    -646.7276283764      3.48e-03   Normal BFGS step
    5    -646.7277182864      9.83e-04   Normal BFGS step
    6    -646.7277222709      9.51e-04   Normal BFGS step
    7    -646.7277253844      8.28e-04   Normal BFGS step
    8    -646.7277268834      7.56e-04   Normal BFGS step
    9    -646.7277296544      6.49e-04   Normal BFGS step
   10    -646.7277356814      8.81e-04   Normal BFGS step
   11    -646.7277426726      7.03e-04   Normal BFGS step
   12    -646.7277480337      5.73e-04   Normal BFGS step
   13    -646.7277502080      3.93e-04   Normal BFGS step
   14    -646.7277508585      2.03e-04   Normal BFGS step
   15    -646.7277510571      9.86e-05   Normal BFGS step
   16    -646.7277511184      3.19e-05   Normal BFGS step
   17    -646.7277511280      1.67e-05   Normal BFGS step
   18    -646.7277511297      8.53e-06   Normal BFGS step
   19    -646.7277511302      4.70e-06   Normal BFGS step
   20    -646.7277511303      1.37e-06   Normal BFGS step
   21    -646.7277511303      6.03e-07   Normal BFGS step
   22    -646.7277511303      4.49e-07   Normal BFGS step
   23    -646.7277511303      2.19e-07   Normal BFGS step
   24    -646.7277511303      1.46e-07   Normal BFGS step
  GDM::WARNING energy changes are now smaller than effective accuracy.
  GDM::        calculation will continue, but THRESH should be increased
  GDM::        or SCF_CONVERGENCE decreased. 
  GDM::        effective_thresh = 3.57e-09
   25    -646.7277511302      6.73e-08  Convergence criterion met
 ---------------------------------------
 SCF time:   CPU 3462.81s  wall 267.00s 
<S^2> =          0.754922847
(3)  G-ENP(liq) elect-nuc-pol free energy of system     -646.727751130 a.u.
(4)  G-CDS(liq) cavity-dispersion-solvent structure 
     free energy                                                3.8939 kcal/mol
(6)  G-S(liq) free energy of system                     -646.721545827 a.u.
 SCF   energy in the final basis set =     -646.7215458265
 Total energy in the final basis set =     -646.7215458265
 
 --------------------------------------------------------------
 
                    Orbital Energies (a.u.)
 --------------------------------------------------------------
 
 Alpha MOs
 -- Occupied --
-19.3492 -19.3475 -19.3435 -19.3433 -19.3300 -19.3188 -10.4476 -10.4404
-10.3839 -10.3638 -10.3503  -1.2306  -1.1985  -1.1805  -1.1377  -1.1318
 -0.9290  -0.8776  -0.8455  -0.8020  -0.7223  -0.6641  -0.6447  -0.6334
 -0.6208  -0.5815  -0.5759  -0.5573  -0.5359  -0.5313  -0.5229  -0.5163
 -0.5041  -0.4986  -0.4918  -0.4592  -0.4383  -0.4177  -0.4132  -0.4037
 -0.3796  -0.3501  -0.3329  -0.3028
 -- Virtual --
  0.0132   0.0288   0.0397   0.0427   0.0557   0.0613   0.0626   0.0730
  0.0876   0.1058   0.1085   0.1159   0.1199   0.1272   0.1387   0.1451
  0.1532   0.1584   0.1628   0.1672   0.1691   0.1763   0.1809   0.1883
  0.1932   0.1961   0.2068   0.2114   0.2215   0.2230   0.2324   0.2506
  0.2568   0.2577   0.2681   0.2763   0.2848   0.2949   0.2973   0.3055
  0.3091   0.3111   0.3207   0.3214   0.3263   0.3368   0.3420   0.3444
  0.3515   0.3573   0.3640   0.3670   0.3775   0.3793   0.3871   0.3921
  0.3998   0.4091   0.4128   0.4160   0.4243   0.4340   0.4407   0.4437
  0.4524   0.4600   0.4682   0.4993   0.5111   0.5302   0.5490   0.5792
  0.5801   0.5862   0.6103   0.6120   0.6425   0.6446   0.6593   0.6686
  0.6733   0.6790   0.6834   0.6956   0.6984   0.7065   0.7152   0.7310
  0.7386   0.7500   0.7608   0.7647   0.7891   0.7957   0.8032   0.8199
  0.8265   0.8452   0.8600   0.8817   0.8907   0.9071   0.9155   0.9302
  0.9403   0.9797   0.9926   1.0145   1.0489   1.0561   1.0759   1.0773
  1.0882   1.0992   1.1163   1.1234   1.1303   1.1360   1.1389   1.1610
  1.1664   1.1757   1.1809   1.1968   1.2001   1.2048   1.2163   1.2203
  1.2429   1.2620   1.2722   1.2805   1.2826   1.2977   1.3024   1.3086
  1.3232   1.3436   1.3488   1.3620   1.3791   1.3932   1.3999   1.4209
  1.4253   1.4398   1.4481   1.4491   1.4767   1.4891   1.4950   1.5048
  1.5103   1.5262   1.5314   1.5421   1.5784   1.5885   1.5960   1.6053
  1.6257   1.6293   1.6545   1.6611   1.6843   1.6922   1.7007   1.7300
  1.7515   1.7559   1.7684   1.8095   1.8246   1.8571   1.8757   1.8836
  1.9098   1.9390   1.9817   2.0214   2.0702   2.1102   2.1352   2.1597
  2.1770   2.1936   2.2334   2.2480   2.2777   2.3073   2.3168   2.3418
  2.3446   2.3825   2.3952   2.4236   2.4765   2.5047   2.5314   2.5903
  2.5950   2.6246   2.6387   2.6809   2.7236   2.7464   2.7612   2.8035
  2.8183   2.8392   2.8432   2.8553   2.8929   2.9077   2.9352   2.9533
  2.9651   2.9766   2.9854   3.0060   3.0132   3.0685   3.0742   3.1378
  3.1691   3.1868   3.1991   3.2146   3.2569   3.2599   3.2759   3.3113
  3.3190   3.3382   3.3499   3.3788   3.3941   3.4008   3.4134   3.4294
  3.4450   3.4707   3.4857   3.4977   3.5094   3.5412   3.5692   3.6027
  3.6228   3.6421   3.6580   3.6705   3.6860   3.7059   3.7138   3.7462
  3.7566   3.7648   3.7935   3.8192   3.8296   3.8639   3.8822   3.8961
  3.9088   3.9161   3.9203   3.9429   3.9619   4.0112   4.0300   4.0621
  4.0741   4.1251   4.1590   4.1842   4.1887   4.2007   4.2165   4.2216
  4.2537   4.2925   4.3074   4.3372   4.3532   4.3984   4.4170   4.4333
  4.4380   4.4610   4.4705   4.4924   4.5217   4.5502   4.6010   4.6157
  4.6363   4.6855   4.7166   4.7770   4.7880   4.7929   4.8484   4.8685
  4.8834   4.9388   5.0409   5.1015   5.1211   5.1371   5.1969   5.1996
  5.2117   5.2154   5.2293   5.2379   5.2447   5.2514   5.2584   5.2631
  5.2805   5.2832   5.2970   5.3124   5.3247   5.3343   5.3388   5.3576
  5.3666   5.3851   5.4123   5.4219   5.4754   5.4914   5.5195   5.5259
  5.5641   5.5986   5.6044   5.6170   5.6266   5.6357   5.6405   5.6529
  5.6544   5.6670   5.6824   5.7317   5.7532   5.8332   5.8787   5.9844
  6.0488   6.0645   6.0732   6.0862   6.1591   6.3657   6.4582   6.4945
  6.5352   6.6520   6.7140   6.8219   6.8680   6.9327   6.9606   6.9694
  7.0116   7.0502   7.0668   7.0761   7.1268   7.1378   7.1696   7.1956
  7.2199   7.2446   7.2746   7.2821   7.2934   7.3481   7.3747   7.3795
  7.3877   7.4209   7.4285   7.5095   7.5212   7.6343   7.6483   7.7071
  7.7307   7.7981   7.8063   7.8486   7.8964   7.9830   8.0345  24.4063
 24.7548  24.8158  25.0240  25.2486  50.4745  50.5253  50.6055  50.6087
 50.6141  50.7622
 
 Beta MOs
 -- Occupied --
-19.3435 -19.3433 -19.3354 -19.3324 -19.3300 -19.3189 -10.4476 -10.4404
-10.3839 -10.3638 -10.3503  -1.2019  -1.1984  -1.1804  -1.1375  -1.1318
 -0.9289  -0.8503  -0.8309  -0.8017  -0.7223  -0.6640  -0.6447  -0.6328
 -0.6206  -0.5809  -0.5757  -0.5571  -0.5224  -0.5169  -0.5103  -0.4989
 -0.4957  -0.4889  -0.4591  -0.4486  -0.4357  -0.4175  -0.4131  -0.4034
 -0.3792  -0.3500  -0.2840
 -- Virtual --
  0.0127   0.0269   0.0289   0.0399   0.0430   0.0559   0.0615   0.0628
  0.0732   0.0879   0.1064   0.1088   0.1166   0.1203   0.1274   0.1393
  0.1454   0.1535   0.1588   0.1632   0.1679   0.1698   0.1772   0.1811
  0.1891   0.1944   0.1975   0.2079   0.2118   0.2223   0.2237   0.2356
  0.2517   0.2578   0.2601   0.2683   0.2805   0.2862   0.2953   0.2989
  0.3063   0.3095   0.3131   0.3220   0.3237   0.3267   0.3390   0.3422
  0.3487   0.3523   0.3594   0.3650   0.3701   0.3777   0.3801   0.3875
  0.3928   0.4004   0.4101   0.4132   0.4165   0.4267   0.4342   0.4423
  0.4458   0.4529   0.4606   0.4684   0.4996   0.5115   0.5303   0.5492
  0.5793   0.5804   0.5863   0.6105   0.6122   0.6426   0.6446   0.6596
  0.6688   0.6734   0.6792   0.6835   0.6956   0.6989   0.7067   0.7154
  0.7313   0.7386   0.7502   0.7609   0.7648   0.7892   0.7959   0.8034
  0.8203   0.8272   0.8452   0.8604   0.8818   0.8912   0.9074   0.9159
  0.9304   0.9403   0.9799   0.9928   1.0149   1.0515   1.0566   1.0769
  1.0795   1.0885   1.1009   1.1192   1.1293   1.1335   1.1382   1.1415
  1.1628   1.1743   1.1792   1.1936   1.1992   1.2020   1.2098   1.2205
  1.2292   1.2460   1.2644   1.2733   1.2817   1.2854   1.3010   1.3056
  1.3131   1.3235   1.3445   1.3496   1.3654   1.3820   1.3949   1.4013
  1.4232   1.4304   1.4429   1.4513   1.4642   1.4779   1.4910   1.4960
  1.5088   1.5114   1.5267   1.5378   1.5438   1.5799   1.5908   1.5982
  1.6085   1.6278   1.6333   1.6563   1.6701   1.6875   1.6974   1.7019
  1.7332   1.7533   1.7628   1.7832   1.8137   1.8387   1.8620   1.8788
  1.8925   1.9105   1.9390   1.9822   2.0241   2.0704   2.1127   2.1358
  2.1618   2.1775   2.1997   2.2391   2.2489   2.2835   2.3099   2.3395
  2.3453   2.3479   2.3848   2.3952   2.4236   2.4787   2.5056   2.5348
  2.5917   2.5969   2.6254   2.6388   2.6810   2.7247   2.7520   2.7621
  2.8047   2.8186   2.8395   2.8434   2.8558   2.8930   2.9078   2.9353
  2.9536   2.9652   2.9766   2.9854   3.0060   3.0133   3.0686   3.0744
  3.1378   3.1692   3.1868   3.1991   3.2148   3.2569   3.2600   3.2762
  3.3114   3.3192   3.3383   3.3501   3.3789   3.3942   3.4010   3.4134
  3.4294   3.4451   3.4708   3.4857   3.4977   3.5095   3.5413   3.5692
  3.6027   3.6228   3.6421   3.6581   3.6705   3.6860   3.7059   3.7140
  3.7462   3.7566   3.7648   3.7936   3.8192   3.8296   3.8639   3.8823
  3.8961   3.9088   3.9160   3.9203   3.9428   3.9619   4.0112   4.0300
  4.0621   4.0741   4.1250   4.1590   4.1842   4.1888   4.2007   4.2165
  4.2218   4.2538   4.2923   4.3075   4.3373   4.3533   4.3985   4.4172
  4.4336   4.4380   4.4613   4.4706   4.4923   4.5221   4.5511   4.6153
  4.6321   4.6424   4.6938   4.7169   4.7815   4.8099   4.8178   4.8529
  4.8774   4.8836   4.9390   5.0454   5.1409   5.1729   5.1930   5.1978
  5.2040   5.2159   5.2385   5.2496   5.2526   5.2631   5.2750   5.2827
  5.2885   5.2924   5.3029   5.3033   5.3165   5.3331   5.3372   5.3414
  5.3658   5.3791   5.3876   5.4196   5.4231   5.4754   5.4948   5.5196
  5.5263   5.5642   5.6014   5.6050   5.6270   5.6369   5.6398   5.6456
  5.6556   5.6610   5.6706   5.6912   5.7319   5.7547   5.8334   5.8788
  5.9844   6.0489   6.0645   6.0738   6.0864   6.1591   6.3658   6.5043
  6.5059   6.5352   6.6535   6.7141   6.8559   6.8961   6.9948   7.0133
  7.0247   7.0306   7.0647   7.0694   7.0816   7.1376   7.1719   7.1886
  7.1975   7.2251   7.2447   7.2746   7.2933   7.3075   7.3481   7.3765
  7.3802   7.3882   7.4249   7.4803   7.5103   7.5330   7.6344   7.6484
  7.7072   7.7334   7.7981   7.8063   7.8492   7.8964   7.9998   8.0528
 24.4063  24.7548  24.8158  25.0240  25.2486  50.4856  50.5346  50.6056
 50.6098  50.6142  50.7622
 --------------------------------------------------------------
 
          Ground-State Mulliken Net Atomic Charges

     Atom                 Charge (a.u.)    Spin (a.u.)
  --------------------------------------------------------
      1 O                    -0.465369       0.000717
      2 C                    -0.458859      -0.005791
      3 C                     0.135587       0.004877
      4 O                    -0.443789      -0.002087
      5 C                     0.170962       0.008201
      6 C                    -0.224084      -0.007619
      7 C                    -0.328241      -0.000194
      8 O                    -0.420198       0.000017
      9 O                    -0.446935       0.000013
     10 H                     0.345831      -0.003469
     11 H                     0.261262      -0.000360
     12 H                     0.202336      -0.000662
     13 H                     0.295781       0.001261
     14 H                     0.280620      -0.000180
     15 H                     0.256655       0.000054
     16 H                     0.336481      -0.000007
     17 H                     0.339645       0.000001
     18 O                    -0.441492       0.478112
     19 O                    -0.396195       0.527114
  --------------------------------------------------------
  Sum of atomic charges =    -1.000000
  Sum of spin   charges =     1.000000

 -----------------------------------------------------------------
                    Cartesian Multipole Moments
 -----------------------------------------------------------------
    Charge (ESU x 10^10)
                -4.8032
    Dipole Moment (Debye)
         X     -14.0408      Y       9.7601      Z      -9.0050
       Tot      19.3260
    Quadrupole Moments (Debye-Ang)
        XX    -115.0368     XY      22.9945     YY     -70.0276
        XZ     -26.9391     YZ      19.1187     ZZ     -93.9418
    Octopole Moments (Debye-Ang^2)
       XXX    -859.8878    XXY     -43.5991    XYY    -248.1155
       YYY     -19.3566    XXZ    -215.8797    XYZ      30.5969
       YYZ     -83.3657    XZZ    -327.4044    YZZ      -4.5851
       ZZZ    -414.5690
    Hexadecapole Moments (Debye-Ang^3)
      XXXX   -5789.9807   XXXY   -1103.1236   XXYY   -1410.9329
      XYYY    -417.0699   YYYY   -1544.2412   XXXZ   -1712.5255
      XXYZ    -273.7286   XYYZ    -387.3043   YYYZ     -88.9254
      XXZZ   -1595.5692   XYZZ    -229.7251   YYZZ    -492.2203
      XZZZ   -1604.9344   YZZZ    -459.7934   ZZZZ   -2134.4001
 -----------------------------------------------------------------
 Calculating analytic gradient of the SCF energy
 Gradient of CDS energy
            1           2           3           4           5           6
    1  -0.0007381   0.0004297  -0.0013827   0.0008499   0.0002233   0.0002663
    2   0.0011801  -0.0011900   0.0010413  -0.0007944  -0.0001897  -0.0000982
    3   0.0006039  -0.0013964   0.0008502  -0.0006102  -0.0000478   0.0001074
            7           8           9          10          11          12
    1   0.0003845   0.0003768  -0.0005378   0.0001197  -0.0000084   0.0001301
    2   0.0007699   0.0001701  -0.0007976  -0.0003382  -0.0000942   0.0001441
    3   0.0004476  -0.0007067   0.0000729  -0.0001916   0.0003391  -0.0000408
           13          14          15          16          17          18
    1   0.0000384   0.0002082  -0.0000970  -0.0003457   0.0001626  -0.0000671
    2  -0.0001270   0.0000560  -0.0001204   0.0000265   0.0005061  -0.0000222
    3  -0.0000918   0.0000433   0.0000468   0.0004030  -0.0000119   0.0001996
           19
    1  -0.0000129
    2  -0.0001221
    3  -0.0000168
 Gradient of SCF Energy
            1           2           3           4           5           6
    1   0.0106184  -0.0476946  -0.0268457   0.0151157   0.0483435   0.0053684
    2  -0.0393492   0.0177828   0.0014105  -0.0198070   0.0440144  -0.0700748
    3   0.0160448  -0.0200932   0.0274052  -0.0103143   0.0286187  -0.0538996
            7           8           9          10          11          12
    1  -0.0247403  -0.0058375   0.0116428   0.0030931   0.0294427   0.0037880
    2   0.0129494  -0.0055182   0.0001883   0.0247396   0.0141921  -0.0147226
    3  -0.0109707   0.0104948   0.0018226  -0.0224349  -0.0086622   0.0216212
           13          14          15          16          17          18
    1  -0.0168394  -0.0251463   0.0186266   0.0060637  -0.0050115   0.0050104
    2   0.0309057   0.0001027  -0.0016837   0.0034000  -0.0003245  -0.0146657
    3   0.0140774  -0.0051215   0.0133287  -0.0055581   0.0001361  -0.0151081
           19
    1  -0.0049980
    2   0.0164602
    3   0.0186132
 Max gradient component =       7.007E-02
 RMS gradient           =       2.219E-02
 Computing fast CPCM-SWIG gradient
 Updating gradient with PCM contributions...
 -- total gradient after adding PCM contribution --
---------------------------------------------------
  Atom         X              Y              Z     
---------------------------------------------------
   1      -0.000496       0.001410      -0.000309
   2      -0.000424       0.002388      -0.000194
   3       0.001330      -0.001879      -0.000144
   4      -0.001778       0.001558       0.000116
   5       0.001506       0.001185       0.000476
   6       0.000261      -0.000937      -0.001222
   7       0.000520      -0.001023      -0.000171
   8      -0.000049       0.000491       0.000602
   9      -0.000380      -0.000158       0.000153
  10       0.001510      -0.005754       0.000489
  11      -0.000513      -0.000165      -0.000388
  12      -0.000330       0.000347       0.000347
  13      -0.000389       0.000369       0.000148
  14      -0.000018       0.000259      -0.000489
  15       0.000199       0.000209      -0.000151
  16      -0.000303       0.000528       0.000570
  17      -0.000103       0.000668       0.000453
  18       0.000020       0.001082       0.000361
  19      -0.000564      -0.000578      -0.000647
---------------------------------------------------
 Number of fixed atoms: 0
 Gradient time:  CPU 330.48 s  wall 29.35 s
 Geometry Optimization Parameters
   NAtoms,    NIC,     NZ,  NCons,   NDum,   NFix, NCnnct, MaxDiis
       19     113       0       0       0       0       0       0

 Cartesian Hessian Update
 Hessian updated using BFGS update


** GEOMETRY OPTIMIZATION IN DELOCALIZED INTERNAL COORDINATES **
   Searching for a Minimum

   Optimization Cycle:   2

                       Coordinates (Angstroms)
     ATOM                X               Y               Z
      1  O         3.1955651182   -0.8736307613   -0.5159618438
      2  C         2.2886600004    0.1373383275   -0.1330607373
      3  C         2.7022128501    0.9751691513    1.0621981528
      4  O         1.8485148185    1.6429713542    1.6320179474
      5  C         4.1376884613    1.0268773291    1.4225873312
      6  C         4.7057733085    1.9911628959    2.1411965099
      7  C         4.0309116911    3.1843418405    2.7537597830
      8  O         3.5570988428    2.8168564784    4.0353965881
      9  O         5.0161951981    4.1941516650    2.8500165249
     10  H         3.1331763495   -1.6236748169    0.1383668681
     11  H         1.2922687217   -0.2617011134    0.0729537419
     12  H         2.1885611466    0.8424592956   -0.9635180576
     13  H         4.7577286751    0.2414919385    1.0176424565
     14  H         5.7769335848    1.9538173939    2.3079391074
     15  H         3.2041508752    3.5438564577    2.1439564995
     16  H         2.9464217159    3.5008243808    4.3367041361
     17  H         4.5721897209    5.0353262035    3.0099340857
     18  O         2.8701273736   -2.6214218825    1.4433302545
     19  O         2.5471528475   -1.6825965376    2.3166619520
   Point Group: c1    Number of degrees of freedom:    51


   Energy is   -646.721545827

 Hessian updated using BFGS update

 48 Hessian modes will be used to form the next step
  Hessian Eigenvalues:
     0.006263    0.006680    0.008165    0.008821    0.011203    0.013521
     0.013677    0.017340    0.018262    0.021578    0.031435    0.057083
     0.072413    0.075517    0.080350    0.080987    0.090700    0.119077
     0.143678    0.156842    0.159919    0.174491    0.191127    0.195512
     0.202861    0.204909    0.220011    0.220643    0.234264    0.249218
     0.254697    0.298447    0.315857    0.331463    0.338125    0.340334
     0.343660    0.348628    0.355016    0.430641    0.432904    0.447421
     0.459084    0.521606    0.530699    0.578700    0.602129    0.892961

 Minimum search - taking simple RFO step
 Searching for Lamda that Minimizes Along All modes
 Value Taken    Lamda =  -0.00104354
 Step Taken.  Stepsize is  0.278735

                             Maximum     Tolerance    Cnvgd?
         Gradient           0.005303      0.000300      NO
         Displacement       0.150301      0.001200      NO
         Energy change     -0.000689      0.000001      NO


 New Cartesian Coordinates Obtained by Inverse Iteration

 Displacement from previous Coordinates is:  0.994363
 ----------------------------------------------------------------
             Standard Nuclear Orientation (Angstroms)
    I     Atom           X                Y                Z
 ----------------------------------------------------------------
    1      O       3.1559007364    -0.8446902278    -0.5418644460
    2      C       2.2473830402     0.1644450124    -0.1665771317
    3      C       2.6615195413     1.0094098323     1.0191505535
    4      O       1.8093951486     1.6697139691     1.5933395754
    5      C       4.0797006002     0.9925127395     1.4349226736
    6      C       4.6618061765     1.9266672025     2.1772218358
    7      C       4.0229181196     3.1543066154     2.7518802604
    8      O       3.4930532922     2.8222565105     4.0198180689
    9      O       5.0493481185     4.1195224891     2.8699508488
   10      H       3.1277184566    -1.5701963134     0.1336284986
   11      H       1.2577408156    -0.2376583810     0.0506895858
   12      H       2.1420538557     0.8584877226    -1.0030834673
   13      H       4.6777697452     0.1785908679     1.0579246677
   14      H       5.7198699124     1.8367763564     2.3899122265
   15      H       3.2347807382     3.5436129035     2.1138173602
   16      H       2.8978939815     3.5262365108     4.2944359368
   17      H       4.6452471256     4.9830098818     2.9932243353
   18      O       2.9641277585    -2.5351428075     1.4893194168
   19      O       2.9231041371    -1.5742412841     2.3944105008
 ----------------------------------------------------------------
 Nuclear Repulsion Energy =         627.46421493 hartrees
 There are       44 alpha and       43 beta electrons
 Discretize the solute cavity surface with Lebedev spheres
	Using 110 Lebedev grid points for each H atom
	Using 194 Lebedev grid points for other atoms
	Atomic van der Waals radii will be scaled by 1.20
 Remove points where switching function is < 1.0e-08
 Keep 1591 surface tesserae and discard 1423 interior tesserae
 Molecular Surface Area = 180.898 Angst**2
 Applying Cartesian multipole field
    Component          Value
    ---------          -----
     (2,0,0)        1.00000E-12
     (0,2,0)        2.00000E-11
     (0,0,2)       -3.00000E-11
 Nucleus-field energy     =    -0.0000000085 hartrees
 Requested basis set is 6-311++G(2df,2p)
 There are 136 shells and 454 basis functions
 A cutoff of  1.0D-12 yielded   7677 shell pairs
 There are     84372 function pairs (    104894 Cartesian)
 Smallest overlap matrix eigenvalue = 3.00E-06
 Guess MOs from SCF MO coefficient file

 -----------------------------------------------------------------------
  General SCF calculation program by
  Eric Jon Sundstrom, Paul Horn, Yuezhi Mao, Dmitri Zuev, Alec White,
  David Stuck, Shaama M.S., Shane Yost, Joonho Lee, David Small,
  Daniel Levine, Susi Lehtola, Hugh Burton, Evgeny Epifanovsky,
  Bang C. Huynh
 -----------------------------------------------------------------------
 Exchange:     0.1500 Hartree-Fock + 1.0000 wB97M-V + LR-HF
 Correlation:  1.0000 wB97M-V
 Using SG-2 standard quadrature grid
 Nonlocal Correlation:  VV10 with C = 0.0100 and b = 6.00 and scale = 1.00000
 Grid used for NLC:  SG-1 standard quadrature
 
 Citation of the SMD model:
 Marenich, A.V.; Cramer, C.J.; Truhlar, D.G.
 J. Phys. Chem. B 2009, 113, 6378-6396.
 iSolventCode=           1
 Solvent: water                                                           
 
 vradii
            1           2           3           4           5           6
    1   1.5200000   1.8500000   1.8500000   1.5200000   1.8500000   1.8500000
            7           8           9          10          11          12
    1   1.8500000   1.5200000   1.5200000   1.2000000   1.2000000   1.2000000
           13          14          15          16          17          18
    1   1.2000000   1.2000000   1.2000000   1.2000000   1.2000000   1.5200000
           19
    1   1.5200000
 -------------------------------------------------------
 OpenMP BLAS3 based DFT computing Module                
 Release: version 1.0, May 2013, Q-Chem Inc. Pittsburgh 
 -------------------------------------------------------
 A unrestricted SCF calculation will be
 performed using Roothaan-Hall, DIIS, GDM
 SCF converges when RMS gradient is below 1.0e-07
 ---------------------------------------
  Cycle       Energy         DIIS error
 ---------------------------------------
    1    -646.5434760105      5.41e-04  Roothaan Step
 ---------------------------------------
  Cycle       Energy         DIIS error
 ---------------------------------------
    1    -646.7061877877      3.29e-04  
    2    -646.7223301232      2.30e-04  Done DIIS. Switching to GDM
 ---------------------------------------
  Cycle       Energy        RMS Gradient
 ---------------------------------------
    1    -646.7223301232      1.77e-02   Normal BFGS step
    2    -646.7234169445      2.30e-02   Normal BFGS step
    3    -646.7269568090      6.60e-03   Normal BFGS step
    4    -646.7270659801      4.44e-03   Normal BFGS step
    5    -646.7271874058      1.89e-03   Normal BFGS step
    6    -646.7272009978      1.39e-03   Normal BFGS step
    7    -646.7272094450      1.34e-03   Normal BFGS step
    8    -646.7272135726      1.29e-03   Normal BFGS step
    9    -646.7272188021      1.22e-03   Normal BFGS step
   10    -646.7272320160      9.87e-04   Normal BFGS step
   11    -646.7272517021      1.03e-03   Normal BFGS step
   12    -646.7272676453      6.54e-04   Normal BFGS step
   13    -646.7272739064      3.93e-04   Normal BFGS step
   14    -646.7272750799      1.72e-04   Normal BFGS step
   15    -646.7272753278      1.07e-04   Normal BFGS step
   16    -646.7272753777      6.40e-05   Normal BFGS step
   17    -646.7272753974      3.08e-05   Normal BFGS step
   18    -646.7272754034      1.29e-05   Normal BFGS step
   19    -646.7272754049      1.08e-05   Normal BFGS step
   20    -646.7272754052      3.49e-06   Normal BFGS step
   21    -646.7272754053      2.19e-06   Normal BFGS step
   22    -646.7272754053      1.43e-06   Normal BFGS step
   23    -646.7272754053      5.07e-07   Normal BFGS step
   24    -646.7272754053      1.50e-07   Normal BFGS step
   25    -646.7272754054      8.40e-08  Convergence criterion met
 ---------------------------------------
 SCF time:   CPU 3526.27s  wall 313.00s 
<S^2> =          0.754949531
(3)  G-ENP(liq) elect-nuc-pol free energy of system     -646.727275405 a.u.
(4)  G-CDS(liq) cavity-dispersion-solvent structure 
     free energy                                                3.8872 kcal/mol
(6)  G-S(liq) free energy of system                     -646.721080751 a.u.
 SCF   energy in the final basis set =     -646.7210807510
 Total energy in the final basis set =     -646.7210807510
 
 --------------------------------------------------------------
 
                    Orbital Energies (a.u.)
 --------------------------------------------------------------
 
 Alpha MOs
 -- Occupied --
-19.3482 -19.3465 -19.3425 -19.3425 -19.3299 -19.3189 -10.4464 -10.4390
-10.3833 -10.3597 -10.3481  -1.2307  -1.1985  -1.1822  -1.1398  -1.1321
 -0.9284  -0.8764  -0.8459  -0.8027  -0.7225  -0.6646  -0.6452  -0.6333
 -0.6215  -0.5821  -0.5765  -0.5576  -0.5359  -0.5314  -0.5212  -0.5158
 -0.5045  -0.4983  -0.4934  -0.4582  -0.4390  -0.4172  -0.4131  -0.4031
 -0.3784  -0.3501  -0.3317  -0.3012
 -- Virtual --
  0.0156   0.0292   0.0397   0.0429   0.0558   0.0614   0.0629   0.0730
  0.0878   0.1069   0.1086   0.1151   0.1210   0.1276   0.1380   0.1454
  0.1532   0.1589   0.1631   0.1664   0.1692   0.1790   0.1801   0.1898
  0.1941   0.1987   0.2051   0.2108   0.2201   0.2227   0.2315   0.2511
  0.2576   0.2610   0.2691   0.2795   0.2840   0.2950   0.2987   0.3060
  0.3128   0.3145   0.3205   0.3241   0.3278   0.3383   0.3419   0.3496
  0.3548   0.3606   0.3637   0.3676   0.3745   0.3808   0.3867   0.3919
  0.4012   0.4061   0.4105   0.4132   0.4304   0.4332   0.4394   0.4404
  0.4540   0.4639   0.4705   0.5000   0.5102   0.5341   0.5513   0.5801
  0.5874   0.5906   0.6109   0.6146   0.6445   0.6479   0.6622   0.6673
  0.6787   0.6802   0.6830   0.6942   0.7007   0.7101   0.7149   0.7232
  0.7349   0.7530   0.7586   0.7692   0.7941   0.7978   0.8067   0.8131
  0.8258   0.8396   0.8567   0.8810   0.8944   0.9166   0.9177   0.9267
  0.9403   0.9848   0.9956   1.0116   1.0519   1.0596   1.0766   1.0797
  1.0848   1.1034   1.1131   1.1226   1.1328   1.1394   1.1566   1.1663
  1.1670   1.1747   1.1902   1.1938   1.2005   1.2035   1.2151   1.2224
  1.2475   1.2657   1.2799   1.2819   1.2903   1.2942   1.3066   1.3194
  1.3310   1.3483   1.3519   1.3571   1.3798   1.3854   1.3998   1.4211
  1.4339   1.4428   1.4516   1.4564   1.4745   1.4917   1.4962   1.5129
  1.5171   1.5271   1.5332   1.5510   1.5837   1.5889   1.5977   1.6117
  1.6237   1.6325   1.6515   1.6605   1.6835   1.6972   1.7119   1.7290
  1.7543   1.7627   1.7755   1.8146   1.8420   1.8542   1.8698   1.9011
  1.9152   1.9395   1.9822   2.0122   2.0733   2.1084   2.1441   2.1668
  2.1865   2.2103   2.2336   2.2506   2.2731   2.3159   2.3215   2.3429
  2.3498   2.3813   2.3960   2.4233   2.4766   2.5025   2.5375   2.5841
  2.5877   2.6249   2.6424   2.6820   2.7302   2.7313   2.7571   2.8132
  2.8306   2.8426   2.8464   2.8693   2.8968   2.9190   2.9370   2.9551
  2.9631   2.9783   2.9953   3.0095   3.0295   3.0669   3.0677   3.1381
  3.1678   3.1882   3.2072   3.2326   3.2544   3.2678   3.2722   3.3075
  3.3291   3.3354   3.3550   3.3822   3.3854   3.3935   3.4154   3.4310
  3.4507   3.4787   3.4935   3.5001   3.5105   3.5396   3.5726   3.6039
  3.6266   3.6493   3.6625   3.6743   3.7002   3.7080   3.7209   3.7476
  3.7597   3.7691   3.7951   3.8221   3.8305   3.8692   3.8898   3.8994
  3.9120   3.9175   3.9241   3.9549   3.9653   4.0234   4.0362   4.0662
  4.0787   4.1324   4.1616   4.1814   4.1897   4.2068   4.2217   4.2308
  4.2633   4.2960   4.3159   4.3452   4.3544   4.3955   4.4256   4.4397
  4.4483   4.4756   4.4846   4.5049   4.5263   4.5559   4.6052   4.6246
  4.6421   4.6839   4.7243   4.7816   4.7925   4.7998   4.8596   4.8654
  4.8967   4.9524   5.0397   5.1093   5.1272   5.1334   5.1966   5.2003
  5.2150   5.2191   5.2313   5.2418   5.2515   5.2540   5.2604   5.2670
  5.2803   5.2945   5.2995   5.3173   5.3292   5.3377   5.3456   5.3553
  5.3653   5.3880   5.4160   5.4231   5.4795   5.4969   5.5244   5.5307
  5.5672   5.6079   5.6089   5.6232   5.6362   5.6425   5.6477   5.6569
  5.6628   5.6751   5.6909   5.7400   5.7555   5.8418   5.8877   5.9922
  6.0595   6.0736   6.0821   6.0924   6.1687   6.3799   6.4652   6.4999
  6.5408   6.6599   6.7170   6.8367   6.8819   6.9290   6.9679   6.9949
  7.0113   7.0505   7.0682   7.0783   7.1275   7.1427   7.1761   7.2012
  7.2447   7.2484   7.2781   7.2862   7.3063   7.3639   7.3713   7.3792
  7.3856   7.4264   7.4276   7.5099   7.5187   7.6378   7.6493   7.7097
  7.7291   7.7962   7.8071   7.8457   7.8974   7.9914   8.0394  24.4155
 24.7692  24.8273  25.0354  25.2647  50.4785  50.5265  50.6072  50.6117
 50.6185  50.7678
 
 Beta MOs
 -- Occupied --
-19.3425 -19.3425 -19.3345 -19.3314 -19.3299 -19.3189 -10.4464 -10.4390
-10.3833 -10.3597 -10.3480  -1.2020  -1.1985  -1.1821  -1.1396  -1.1321
 -0.9283  -0.8506  -0.8297  -0.8027  -0.7225  -0.6645  -0.6452  -0.6328
 -0.6213  -0.5816  -0.5763  -0.5571  -0.5214  -0.5172  -0.5091  -0.4986
 -0.4965  -0.4901  -0.4583  -0.4489  -0.4354  -0.4171  -0.4130  -0.4029
 -0.3776  -0.3500  -0.2823
 -- Virtual --
  0.0158   0.0269   0.0292   0.0398   0.0431   0.0559   0.0616   0.0633
  0.0731   0.0880   0.1074   0.1091   0.1157   0.1217   0.1277   0.1387
  0.1457   0.1540   0.1592   0.1633   0.1671   0.1698   0.1794   0.1806
  0.1907   0.1953   0.2002   0.2063   0.2116   0.2208   0.2235   0.2344
  0.2517   0.2601   0.2621   0.2692   0.2831   0.2861   0.2952   0.3002
  0.3068   0.3136   0.3165   0.3211   0.3260   0.3282   0.3409   0.3426
  0.3512   0.3581   0.3635   0.3654   0.3698   0.3751   0.3811   0.3875
  0.3924   0.4016   0.4068   0.4107   0.4141   0.4319   0.4335   0.4406
  0.4443   0.4544   0.4643   0.4708   0.5003   0.5109   0.5342   0.5515
  0.5802   0.5876   0.5907   0.6110   0.6148   0.6446   0.6481   0.6623
  0.6676   0.6787   0.6804   0.6831   0.6945   0.7011   0.7105   0.7151
  0.7235   0.7351   0.7532   0.7586   0.7695   0.7941   0.7981   0.8070
  0.8137   0.8267   0.8398   0.8571   0.8812   0.8947   0.9167   0.9184
  0.9269   0.9404   0.9851   0.9960   1.0120   1.0531   1.0618   1.0767
  1.0816   1.0853   1.1040   1.1140   1.1282   1.1365   1.1412   1.1588
  1.1695   1.1727   1.1840   1.1950   1.2021   1.2043   1.2066   1.2189
  1.2280   1.2504   1.2683   1.2805   1.2828   1.2925   1.3033   1.3090
  1.3221   1.3333   1.3514   1.3527   1.3600   1.3832   1.3876   1.4019
  1.4243   1.4355   1.4442   1.4536   1.4679   1.4751   1.4948   1.4984
  1.5143   1.5229   1.5277   1.5364   1.5551   1.5862   1.5911   1.5987
  1.6161   1.6253   1.6357   1.6577   1.6661   1.6869   1.6992   1.7176
  1.7321   1.7561   1.7657   1.7968   1.8170   1.8467   1.8638   1.8746
  1.9093   1.9183   1.9396   1.9826   2.0146   2.0736   2.1111   2.1446
  2.1693   2.1871   2.2146   2.2409   2.2518   2.2784   2.3191   2.3419
  2.3479   2.3541   2.3826   2.3960   2.4233   2.4794   2.5034   2.5403
  2.5870   2.5884   2.6254   2.6426   2.6821   2.7305   2.7385   2.7573
  2.8139   2.8307   2.8427   2.8473   2.8697   2.8969   2.9191   2.9371
  2.9553   2.9632   2.9783   2.9954   3.0095   3.0298   3.0670   3.0677
  3.1381   3.1678   3.1883   3.2072   3.2328   3.2544   3.2680   3.2724
  3.3076   3.3292   3.3355   3.3552   3.3823   3.3856   3.3935   3.4154
  3.4310   3.4508   3.4787   3.4936   3.5002   3.5105   3.5396   3.5726
  3.6039   3.6266   3.6493   3.6625   3.6743   3.7002   3.7081   3.7210
  3.7476   3.7597   3.7690   3.7951   3.8222   3.8305   3.8692   3.8898
  3.8993   3.9120   3.9175   3.9241   3.9547   3.9653   4.0234   4.0361
  4.0662   4.0787   4.1323   4.1615   4.1816   4.1897   4.2068   4.2217
  4.2309   4.2634   4.2959   4.3159   4.3455   4.3546   4.3957   4.4256
  4.4401   4.4484   4.4756   4.4848   4.5051   4.5271   4.5561   4.6236
  4.6410   4.6445   4.6920   4.7245   4.7860   4.8179   4.8221   4.8631
  4.8742   4.8975   4.9529   5.0428   5.1463   5.1714   5.1962   5.1999
  5.2058   5.2188   5.2437   5.2526   5.2546   5.2667   5.2753   5.2822
  5.2903   5.2942   5.3026   5.3148   5.3286   5.3359   5.3415   5.3524
  5.3672   5.3751   5.3896   5.4225   5.4251   5.4795   5.5004   5.5246
  5.5312   5.5673   5.6082   5.6113   5.6364   5.6455   5.6479   5.6526
  5.6631   5.6661   5.6777   5.6984   5.7401   5.7570   5.8419   5.8877
  5.9922   6.0595   6.0736   6.0826   6.0925   6.1687   6.3800   6.5110
  6.5117   6.5408   6.6616   6.7171   6.8674   6.9135   6.9903   7.0111
  7.0309   7.0590   7.0654   7.0720   7.0840   7.1416   7.1765   7.1936
  7.2015   7.2480   7.2513   7.2782   7.3051   7.3112   7.3640   7.3740
  7.3793   7.3860   7.4283   7.4815   7.5137   7.5272   7.6379   7.6494
  7.7098   7.7316   7.7963   7.8071   7.8462   7.8974   8.0078   8.0579
 24.4155  24.7692  24.8273  25.0354  25.2647  50.4895  50.5359  50.6073
 50.6128  50.6186  50.7678
 --------------------------------------------------------------
 
          Ground-State Mulliken Net Atomic Charges

     Atom                 Charge (a.u.)    Spin (a.u.)
  --------------------------------------------------------
      1 O                    -0.469739       0.000668
      2 C                    -0.441031      -0.004916
      3 C                     0.158101       0.004867
      4 O                    -0.449750      -0.001384
      5 C                     0.288410       0.009050
      6 C                    -0.349712      -0.009110
      7 C                    -0.332917      -0.000528
      8 O                    -0.421248       0.000001
      9 O                    -0.446022      -0.000021
     10 H                     0.346578      -0.003259
     11 H                     0.248129       0.000111
     12 H                     0.199617      -0.000742
     13 H                     0.300694       0.000521
     14 H                     0.277581       0.000224
     15 H                     0.257740       0.000122
     16 H                     0.335896       0.000011
     17 H                     0.338606      -0.000001
     18 O                    -0.442503       0.476476
     19 O                    -0.398431       0.527912
  --------------------------------------------------------
  Sum of atomic charges =    -1.000000
  Sum of spin   charges =     1.000000

 -----------------------------------------------------------------
                    Cartesian Multipole Moments
 -----------------------------------------------------------------
    Charge (ESU x 10^10)
                -4.8032
    Dipole Moment (Debye)
         X     -14.9291      Y       9.3186      Z      -9.3768
       Tot      19.9409
    Quadrupole Moments (Debye-Ang)
        XX    -120.0731     XY      23.8902     YY     -68.2425
        XZ     -30.1374     YZ      18.1090     ZZ     -96.0409
    Octopole Moments (Debye-Ang^2)
       XXX    -886.4059    XXY     -36.0998    XYY    -243.9172
       YYY     -23.3334    XXZ    -230.4402    XYZ      33.1958
       YYZ     -83.4125    XZZ    -339.5687    YZZ      -8.6337
       ZZZ    -425.0779
    Hexadecapole Moments (Debye-Ang^3)
      XXXX   -5929.1600   XXXY   -1044.3877   XXYY   -1379.8909
      XYYY    -369.1306   YYYY   -1445.7240   XXXZ   -1785.0166
      XXYZ    -248.2506   XYYZ    -393.6846   YYYZ     -94.7573
      XXZZ   -1644.3732   XYZZ    -218.7031   YYZZ    -495.7065
      XZZZ   -1661.5225   YZZZ    -472.7133   ZZZZ   -2197.6211
 -----------------------------------------------------------------
 Calculating analytic gradient of the SCF energy
 Gradient of CDS energy
            1           2           3           4           5           6
    1  -0.0011016   0.0007984  -0.0013386   0.0008264   0.0002074   0.0002451
    2   0.0015888  -0.0016261   0.0010424  -0.0007705  -0.0001607  -0.0001275
    3   0.0007450  -0.0015421   0.0008538  -0.0006046  -0.0000627   0.0001121
            7           8           9          10          11          12
    1   0.0003486   0.0004946  -0.0006068   0.0000945  -0.0000161   0.0001305
    2   0.0007330   0.0001988  -0.0008034  -0.0003451  -0.0000767   0.0001409
    3   0.0006498  -0.0008948   0.0000625  -0.0001925   0.0003199  -0.0000421
           13          14          15          16          17          18
    1   0.0000154   0.0002075  -0.0001020  -0.0003573   0.0001849  -0.0000372
    2  -0.0001444   0.0000452  -0.0001157   0.0000472   0.0004992  -0.0000067
    3  -0.0000613   0.0000505   0.0000443   0.0003916  -0.0000129   0.0002013
           19
    1   0.0000064
    2  -0.0001186
    3  -0.0000181
 Gradient of SCF Energy
            1           2           3           4           5           6
    1   0.0096867  -0.0483284  -0.0208094   0.0170455   0.0457450   0.0047684
    2  -0.0395758   0.0156153   0.0132601  -0.0237994   0.0356129  -0.0723972
    3   0.0204341  -0.0146235   0.0166836  -0.0099808   0.0394755  -0.0600919
            7           8           9          10          11          12
    1  -0.0250351  -0.0078403   0.0097664   0.0018354   0.0303180   0.0045232
    2   0.0135709  -0.0026790   0.0023679   0.0266216   0.0141760  -0.0144649
    3  -0.0114914   0.0100737   0.0029393  -0.0254627  -0.0079767   0.0215224
           13          14          15          16          17          18
    1  -0.0172944  -0.0280381   0.0192163   0.0083154  -0.0033025  -0.0007576
    2   0.0335420   0.0019608  -0.0031101   0.0003978  -0.0031099  -0.0142571
    3   0.0139607  -0.0070494   0.0151166  -0.0063634  -0.0006744  -0.0149068
           19
    1   0.0001854
    2   0.0162679
    3   0.0184151
 Max gradient component =       7.240E-02
 RMS gradient           =       2.263E-02
 Computing fast CPCM-SWIG gradient
 Updating gradient with PCM contributions...
 -- total gradient after adding PCM contribution --
---------------------------------------------------
  Atom         X              Y              Z     
---------------------------------------------------
   1      -0.002430       0.000241       0.003479
   2      -0.001581       0.000630       0.000866
   3      -0.000413       0.007107      -0.005218
   4       0.001161      -0.003895       0.000095
   5      -0.000715      -0.001541       0.003386
   6      -0.000687      -0.002137      -0.000778
   7       0.000037      -0.001372      -0.000840
   8      -0.001484       0.002937      -0.000100
   9      -0.002379       0.002116       0.000566
  10       0.002396      -0.002820      -0.001889
  11       0.001566       0.000434      -0.000677
  12       0.000477      -0.000051       0.001245
  13      -0.000379       0.000526       0.000609
  14      -0.001106       0.000427      -0.001112
  15       0.001369      -0.000311       0.000704
  16       0.001501      -0.001970      -0.000135
  17       0.001678      -0.001897      -0.000113
  18      -0.000694       0.002185       0.000915
  19       0.001683      -0.000609      -0.001003
---------------------------------------------------
 Number of fixed atoms: 0
 Gradient time:  CPU 337.85 s  wall 30.33 s
 Geometry Optimization Parameters
   NAtoms,    NIC,     NZ,  NCons,   NDum,   NFix, NCnnct, MaxDiis
       19     113       0       0       0       0       0       0

 Cartesian Hessian Update
 Hessian updated using BFGS update


** GEOMETRY OPTIMIZATION IN DELOCALIZED INTERNAL COORDINATES **
   Searching for a Minimum

   Optimization Cycle:   3

                       Coordinates (Angstroms)
     ATOM                X               Y               Z
      1  O         3.1559007364   -0.8446902278   -0.5418644460
      2  C         2.2473830402    0.1644450124   -0.1665771317
      3  C         2.6615195413    1.0094098323    1.0191505535
      4  O         1.8093951486    1.6697139691    1.5933395754
      5  C         4.0797006002    0.9925127395    1.4349226736
      6  C         4.6618061765    1.9266672025    2.1772218358
      7  C         4.0229181196    3.1543066154    2.7518802604
      8  O         3.4930532922    2.8222565105    4.0198180689
      9  O         5.0493481185    4.1195224891    2.8699508488
     10  H         3.1277184566   -1.5701963134    0.1336284986
     11  H         1.2577408156   -0.2376583810    0.0506895858
     12  H         2.1420538557    0.8584877226   -1.0030834673
     13  H         4.6777697452    0.1785908679    1.0579246677
[...]
    1  -0.0010084   0.0007122  -0.0013887   0.0008596   0.0002138   0.0002541
    2   0.0013370  -0.0013174   0.0009955  -0.0007730  -0.0001948  -0.0001129
    3   0.0007977  -0.0016007   0.0009090  -0.0006383  -0.0000433   0.0001383
            7           8           9          10          11          12
    1   0.0003406   0.0003959  -0.0005264   0.0001040  -0.0000103   0.0001263
    2   0.0007627   0.0001151  -0.0007626  -0.0003258  -0.0001048   0.0001484
    3   0.0004511  -0.0008350   0.0001849  -0.0002097   0.0003328  -0.0000323
           13          14          15          16          17          18
    1   0.0000122   0.0002110  -0.0000870  -0.0003297   0.0001612  -0.0000432
    2  -0.0001375   0.0000479  -0.0001213   0.0000773   0.0005000  -0.0000210
    3  -0.0000697   0.0000498   0.0000697   0.0004091  -0.0000791   0.0001945
           19
    1   0.0000026
    2  -0.0001127
    3  -0.0000288
 Gradient of SCF Energy
            1           2           3           4           5           6
    1   0.0126764  -0.0448663  -0.0301097   0.0159927   0.0493206   0.0044704
    2  -0.0392505   0.0178664   0.0001089  -0.0208817   0.0404100  -0.0692243
    3   0.0130355  -0.0149917   0.0257728  -0.0095389   0.0306409  -0.0529164
            7           8           9          10          11          12
    1  -0.0251577  -0.0046812   0.0118298  -0.0001133   0.0291188   0.0046044
    2   0.0109337  -0.0042526   0.0007241   0.0288248   0.0155274  -0.0160720
    3  -0.0117143   0.0100875   0.0016994  -0.0212168  -0.0070937   0.0197546
           13          14          15          16          17          18
    1  -0.0163103  -0.0255213   0.0190181   0.0056753  -0.0048911   0.0059024
    2   0.0323390   0.0015280  -0.0007917   0.0021425  -0.0010084  -0.0133080
    3   0.0128789  -0.0064554   0.0129069  -0.0062078   0.0000701  -0.0159676
           19
    1  -0.0069582
    2   0.0143843
    3   0.0192560
 Max gradient component =       6.922E-02
 RMS gradient           =       2.199E-02
 Computing fast CPCM-SWIG gradient
 Updating gradient with PCM contributions...
 -- total gradient after adding PCM contribution --
---------------------------------------------------
  Atom         X              Y              Z     
---------------------------------------------------
   1      -0.000077       0.000017       0.000070
   2       0.000003      -0.000015      -0.000000
   3      -0.000051       0.000029       0.000033
   4       0.000038      -0.000009      -0.000018
   5       0.000012       0.000019      -0.000005
   6       0.000005      -0.000027      -0.000008
   7       0.000013      -0.000011       0.000012
   8      -0.000014      -0.000000      -0.000008
   9       0.000004      -0.000006      -0.000017
  10       0.000099      -0.000036      -0.000128
  11      -0.000008       0.000016      -0.000014
  12       0.000024       0.000010      -0.000005
  13      -0.000007      -0.000014       0.000007
  14      -0.000002      -0.000013       0.000012
  15       0.000006      -0.000001      -0.000008
  16       0.000012       0.000014       0.000004
  17       0.000018      -0.000002       0.000009
  18      -0.000064       0.000037       0.000067
  19      -0.000013      -0.000009      -0.000004
---------------------------------------------------
 Number of fixed atoms: 0
 Gradient time:  CPU 330.55 s  wall 28.53 s
 Geometry Optimization Parameters
   NAtoms,    NIC,     NZ,  NCons,   NDum,   NFix, NCnnct, MaxDiis
       19     113       0       0       0       0       0       0

 Cartesian Hessian Update
 Hessian updated using BFGS update


** GEOMETRY OPTIMIZATION IN DELOCALIZED INTERNAL COORDINATES **
   Searching for a Minimum

   Optimization Cycle:  14

                       Coordinates (Angstroms)
     ATOM                X               Y               Z
      1  O         3.2079733072   -0.7445120449   -0.5921890999
      2  C         2.2659419745    0.1984824523   -0.1330120871
      3  C         2.6593824200    0.9446365992    1.1263294984
      4  O         1.8028678260    1.5764599397    1.7285880778
      5  C         4.0815506379    0.9360503339    1.5379808829
      6  C         4.6617374868    1.9020626824    2.2441967746
      7  C         4.0202629023    3.1619430686    2.7442315542
      8  O         3.5858617244    2.9282902171    4.0697884540
      9  O         5.0212498006    4.1602214792    2.7042460822
     10  H         3.2117117609   -1.4943505827    0.0546540246
     11  H         1.2867435797   -0.2519489533    0.0461089955
     12  H         2.1388743789    0.9605529655   -0.9067232037
     13  H         4.6770623274    0.1021412685    1.1966347341
     14  H         5.7167194407    1.8166344168    2.4829342562
     15  H         3.1775181484    3.4700621758    2.1293190175
     16  H         2.9859226594    3.6414643694    4.3179767136
     17  H         4.5894683850    5.0211152894    2.7420672671
     18  O         3.0526112487   -2.5822476882    1.3332501768
     19  O         2.6278712911   -1.7234383886    2.2457391812
   Point Group: c1    Number of degrees of freedom:    51


   Energy is   -646.722039932

 Hessian updated using BFGS update

 51 Hessian modes will be used to form the next step
  Hessian Eigenvalues:
     0.002445    0.004189    0.005467    0.010960    0.011805    0.013480
     0.018105    0.021393    0.027576    0.034164    0.037286    0.047872
     0.057379    0.073055    0.076737    0.082324    0.092968    0.118006
     0.122702    0.143620    0.148660    0.159835    0.159991    0.160497
     0.161282    0.180489    0.194495    0.205082    0.208789    0.220372
     0.235415    0.244730    0.255744    0.302062    0.312407    0.327726
     0.337632    0.338636    0.342815    0.348528    0.354523    0.365855
     0.435117    0.435502    0.446217    0.481138    0.524784    0.530724
     0.598568    0.634261    0.899978

 Minimum search - taking simple RFO step
 Searching for Lamda that Minimizes Along All modes
 Value Taken    Lamda =  -0.00000057
 Step Taken.  Stepsize is  0.008214

                             Maximum     Tolerance    Cnvgd?
         Gradient           0.000063      0.000300     YES
         Displacement       0.002930      0.001200      NO
         Energy change     -0.000000      0.000001     YES

 Final energy is   -646.722039931722     


 ******************************
 **  OPTIMIZATION CONVERGED  **
 ******************************

                       Coordinates (Angstroms)
     ATOM                X               Y               Z
      1  O         3.2079733072   -0.7445120449   -0.5921890999
      2  C         2.2659419745    0.1984824523   -0.1330120871
      3  C         2.6593824200    0.9446365992    1.1263294984
      4  O         1.8028678260    1.5764599397    1.7285880778
      5  C         4.0815506379    0.9360503339    1.5379808829
      6  C         4.6617374868    1.9020626824    2.2441967746
      7  C         4.0202629023    3.1619430686    2.7442315542
      8  O         3.5858617244    2.9282902171    4.0697884540
      9  O         5.0212498006    4.1602214792    2.7042460822
     10  H         3.2117117609   -1.4943505827    0.0546540246
     11  H         1.2867435797   -0.2519489533    0.0461089955
     12  H         2.1388743789    0.9605529655   -0.9067232037
     13  H         4.6770623274    0.1021412685    1.1966347341
     14  H         5.7167194407    1.8166344168    2.4829342562
     15  H         3.1775181484    3.4700621758    2.1293190175
     16  H         2.9859226594    3.6414643694    4.3179767136
     17  H         4.5894683850    5.0211152894    2.7420672671
     18  O         3.0526112487   -2.5822476882    1.3332501768
     19  O         2.6278712911   -1.7234383886    2.2457391812

Z-matrix Print:
$molecule
-1 2
O 
C  1 1.222920
C  2 1.480572 1 122.603853
H  3 1.080072 2 116.501464 1 158.259172 0
C  3 1.329864 2 124.229017 1 -24.388899 0
H  5 1.085026 3 118.937039 2 -178.837939 0
C  5 1.499608 3 126.922102 2 -0.470721 0
H  7 1.087784 5 112.388387 3 -26.549613 0
O  7 1.414261 5 106.310176 3 -146.228161 0
H  9 0.963848 7 108.197250 5 162.056553 0
O  7 1.414355 5 107.764099 3 94.552053 0
H  11 0.964439 7 108.064033 5 -166.017883 0
C  2 1.515745 1 118.796615 3 -176.723654 0
H  13 1.092613 2 107.419030 1 -40.095351 0
H  13 1.093401 2 105.961141 1 74.478858 0
O  13 1.409789 2 115.241708 1 -165.838795 0
H  16 0.990292 13 107.232701 2 69.873697 0
O  17 1.686310 16 169.542995 13 -11.599159 0
O  18 1.323100 17 97.726976 16 -14.088862 0
$end

 
 --------------------------------------------------------------
 
                    Orbital Energies (a.u.)
 --------------------------------------------------------------
 
 Alpha MOs
 -- Occupied --
-19.3485 -19.3470 -19.3433 -19.3431 -19.3302 -19.3203 -10.4468 -10.4403
-10.3840 -10.3617 -10.3500  -1.2293  -1.1983  -1.1817  -1.1415  -1.1322
 -0.9286  -0.8770  -0.8449  -0.8022  -0.7224  -0.6655  -0.6438  -0.6331
 -0.6222  -0.5817  -0.5763  -0.5564  -0.5362  -0.5308  -0.5224  -0.5161
 -0.5040  -0.4998  -0.4922  -0.4570  -0.4427  -0.4181  -0.4136  -0.4032
 -0.3788  -0.3512  -0.3323  -0.3021
 -- Virtual --
  0.0171   0.0289   0.0402   0.0428   0.0567   0.0618   0.0625   0.0731
  0.0887   0.1053   0.1076   0.1154   0.1203   0.1282   0.1412   0.1432
  0.1525   0.1589   0.1631   0.1656   0.1697   0.1768   0.1799   0.1861
  0.1938   0.1965   0.2061   0.2140   0.2155   0.2216   0.2299   0.2505
  0.2571   0.2647   0.2733   0.2788   0.2846   0.2932   0.2973   0.3060
  0.3110   0.3134   0.3186   0.3242   0.3312   0.3379   0.3413   0.3434
  0.3525   0.3583   0.3616   0.3669   0.3759   0.3840   0.3922   0.3940
  0.3973   0.4033   0.4132   0.4144   0.4202   0.4331   0.4351   0.4393
  0.4591   0.4638   0.4738   0.4924   0.5013   0.5329   0.5458   0.5758
  0.5812   0.5907   0.6088   0.6122   0.6386   0.6454   0.6609   0.6666
  0.6734   0.6782   0.6834   0.6913   0.6981   0.7048   0.7160   0.7291
  0.7337   0.7558   0.7583   0.7725   0.7914   0.8005   0.8024   0.8148
  0.8281   0.8375   0.8561   0.8744   0.8957   0.9042   0.9180   0.9234
  0.9439   0.9967   1.0015   1.0106   1.0496   1.0607   1.0719   1.0799
  1.0897   1.1037   1.1124   1.1224   1.1315   1.1422   1.1467   1.1645
  1.1714   1.1777   1.1828   1.1971   1.1999   1.2048   1.2141   1.2229
  1.2418   1.2613   1.2721   1.2863   1.2933   1.2980   1.3037   1.3115
  1.3228   1.3445   1.3502   1.3602   1.3799   1.3858   1.3965   1.4251
  1.4342   1.4369   1.4430   1.4506   1.4608   1.4833   1.4877   1.5104
  1.5132   1.5224   1.5403   1.5577   1.5809   1.5912   1.6065   1.6148
  1.6310   1.6363   1.6546   1.6610   1.6919   1.6939   1.7034   1.7379
  1.7592   1.7659   1.7784   1.8051   1.8323   1.8516   1.8804   1.8836
  1.9090   1.9335   1.9822   2.0184   2.0564   2.0841   2.1419   2.1597
  2.1969   2.2025   2.2362   2.2418   2.2743   2.3095   2.3189   2.3408
  2.3466   2.3770   2.3980   2.4178   2.4630   2.5009   2.5357   2.5846
  2.5922   2.6277   2.6359   2.6834   2.7241   2.7425   2.7750   2.8035
  2.8188   2.8375   2.8523   2.8640   2.8871   2.9146   2.9416   2.9556
  2.9633   2.9779   3.0024   3.0116   3.0180   3.0670   3.0852   3.1397
  3.1674   3.1925   3.2037   3.2158   3.2544   3.2655   3.2808   3.3128
  3.3259   3.3333   3.3542   3.3824   3.3877   3.4027   3.4156   3.4300
  3.4531   3.4825   3.4976   3.4986   3.5064   3.5427   3.5629   3.6026
  3.6250   3.6458   3.6567   3.6787   3.6944   3.7078   3.7168   3.7443
  3.7651   3.7697   3.7893   3.8162   3.8366   3.8625   3.8777   3.8939
  3.9039   3.9141   3.9244   3.9560   3.9610   4.0142   4.0325   4.0599
  4.0696   4.1413   4.1680   4.1754   4.1906   4.2011   4.2243   4.2282
  4.2611   4.2951   4.3112   4.3433   4.3538   4.3909   4.4174   4.4363
  4.4402   4.4680   4.4867   4.5074   4.5268   4.5445   4.6051   4.6184
  4.6280   4.6842   4.7229   4.7655   4.7874   4.7926   4.8461   4.8625
  4.8982   4.9394   5.0403   5.1051   5.1244   5.1426   5.1985   5.2005
  5.2186   5.2206   5.2296   5.2393   5.2502   5.2532   5.2628   5.2650
  5.2757   5.2894   5.2992   5.3158   5.3307   5.3360   5.3460   5.3543
  5.3661   5.3885   5.4169   5.4213   5.4771   5.4981   5.5202   5.5254
  5.5637   5.6013   5.6105   5.6198   5.6290   5.6429   5.6469   5.6545
  5.6581   5.6760   5.6856   5.7309   5.7438   5.8379   5.8838   5.9862
  6.0493   6.0625   6.0713   6.0836   6.1585   6.3716   6.4557   6.4927
  6.5369   6.6478   6.7122   6.8271   6.8702   6.9401   6.9614   6.9805
  7.0174   7.0474   7.0653   7.0728   7.1291   7.1454   7.1676   7.1977
  7.2422   7.2519   7.2760   7.2788   7.2945   7.3482   7.3776   7.3841
  7.3931   7.4235   7.4293   7.5130   7.5210   7.6318   7.6455   7.7028
  7.7108   7.7977   7.8058   7.8480   7.8944   7.9852   8.0356  24.4031
 24.7607  24.8201  25.0249  25.2470  50.4763  50.5320  50.6041  50.6112
 50.6148  50.7622
 
 Beta MOs
 -- Occupied --
-19.3433 -19.3431 -19.3347 -19.3319 -19.3302 -19.3204 -10.4468 -10.4403
-10.3840 -10.3617 -10.3500  -1.2007  -1.1982  -1.1816  -1.1412  -1.1322
 -0.9285  -0.8498  -0.8301  -0.8020  -0.7224  -0.6654  -0.6438  -0.6325
 -0.6220  -0.5812  -0.5762  -0.5563  -0.5233  -0.5170  -0.5092  -0.4999
 -0.4962  -0.4885  -0.4570  -0.4489  -0.4387  -0.4180  -0.4135  -0.4029
 -0.3781  -0.3511  -0.2832
 -- Virtual --
  0.0158   0.0278   0.0291   0.0404   0.0430   0.0568   0.0619   0.0627
  0.0733   0.0890   0.1056   0.1082   0.1160   0.1207   0.1284   0.1416
  0.1439   0.1526   0.1594   0.1637   0.1666   0.1702   0.1776   0.1802
  0.1869   0.1950   0.1978   0.2071   0.2149   0.2160   0.2235   0.2316
  0.2511   0.2580   0.2667   0.2740   0.2820   0.2869   0.2935   0.2986
  0.3074   0.3120   0.3150   0.3194   0.3264   0.3321   0.3397   0.3430
  0.3454   0.3540   0.3604   0.3624   0.3699   0.3766   0.3843   0.3926
  0.3943   0.3983   0.4049   0.4135   0.4152   0.4224   0.4332   0.4378
  0.4404   0.4594   0.4645   0.4741   0.4930   0.5019   0.5332   0.5460
  0.5759   0.5815   0.5908   0.6091   0.6124   0.6386   0.6455   0.6610
  0.6671   0.6736   0.6783   0.6837   0.6916   0.6983   0.7051   0.7161
  0.7293   0.7340   0.7560   0.7584   0.7726   0.7917   0.8009   0.8024
  0.8149   0.8287   0.8382   0.8563   0.8745   0.8961   0.9044   0.9185
  0.9239   0.9441   0.9969   1.0018   1.0110   1.0518   1.0615   1.0722
  1.0817   1.0899   1.1044   1.1161   1.1264   1.1349   1.1456   1.1493
  1.1669   1.1759   1.1808   1.1951   1.1995   1.2037   1.2102   1.2222
  1.2279   1.2450   1.2628   1.2727   1.2873   1.2961   1.3018   1.3059
  1.3203   1.3239   1.3466   1.3506   1.3627   1.3828   1.3877   1.3987
  1.4282   1.4349   1.4387   1.4518   1.4615   1.4645   1.4873   1.4884
  1.5112   1.5168   1.5228   1.5423   1.5600   1.5829   1.5920   1.6089
  1.6182   1.6332   1.6387   1.6585   1.6680   1.6937   1.7042   1.7056
  1.7420   1.7635   1.7672   1.7953   1.8088   1.8442   1.8551   1.8852
  1.8931   1.9105   1.9336   1.9826   2.0206   2.0567   2.0873   2.1427
  2.1623   2.1976   2.2098   2.2398   2.2422   2.2807   2.3130   2.3384
  2.3465   2.3501   2.3796   2.3981   2.4179   2.4661   2.5014   2.5385
  2.5849   2.5950   2.6287   2.6360   2.6835   2.7248   2.7489   2.7752
  2.8053   2.8191   2.8378   2.8526   2.8643   2.8872   2.9147   2.9417
  2.9558   2.9634   2.9780   3.0025   3.0117   3.0181   3.0671   3.0854
  3.1398   3.1674   3.1926   3.2038   3.2159   3.2545   3.2655   3.2811
  3.3129   3.3260   3.3334   3.3543   3.3825   3.3879   3.4027   3.4157
  3.4300   3.4532   3.4825   3.4978   3.4986   3.5065   3.5427   3.5629
  3.6026   3.6250   3.6458   3.6568   3.6787   3.6944   3.7079   3.7170
  3.7444   3.7652   3.7697   3.7893   3.8162   3.8367   3.8626   3.8778
  3.8938   3.9039   3.9142   3.9244   3.9558   3.9611   4.0142   4.0325
  4.0599   4.0696   4.1413   4.1680   4.1756   4.1906   4.2011   4.2243
  4.2283   4.2612   4.2950   4.3113   4.3434   4.3540   4.3911   4.4175
  4.4363   4.4405   4.4682   4.4873   4.5074   4.5271   4.5452   4.6184
  4.6280   4.6419   4.6921   4.7232   4.7671   4.8123   4.8173   4.8491
  4.8732   4.8985   4.9398   5.0443   5.1437   5.1770   5.1974   5.1995
  5.2042   5.2190   5.2418   5.2510   5.2581   5.2631   5.2736   5.2845
  5.2896   5.2947   5.3051   5.3161   5.3214   5.3338   5.3419   5.3490
  5.3587   5.3829   5.3905   5.4172   5.4296   5.4772   5.5017   5.5206
  5.5258   5.5638   5.6017   5.6164   5.6290   5.6426   5.6481   5.6522
  5.6579   5.6603   5.6767   5.6942   5.7311   5.7458   5.8380   5.8838
  5.9862   6.0493   6.0626   6.0719   6.0836   6.1585   6.3717   6.5019
  6.5039   6.5369   6.6493   6.7123   6.8490   6.9091   7.0005   7.0195
  7.0257   7.0430   7.0588   7.0674   7.0825   7.1457   7.1756   7.1864
  7.1998   7.2424   7.2574   7.2763   7.2946   7.3026   7.3482   7.3776
  7.3853   7.3945   7.4267   7.4817   7.5137   7.5328   7.6320   7.6455
  7.7034   7.7128   7.7978   7.8058   7.8487   7.8944   8.0027   8.0534
 24.4031  24.7607  24.8201  25.0249  25.2470  50.4873  50.5416  50.6041
 50.6118  50.6151  50.7621
 --------------------------------------------------------------
 
          Ground-State Mulliken Net Atomic Charges

     Atom                 Charge (a.u.)    Spin (a.u.)
  --------------------------------------------------------
      1 O                    -0.463960       0.000332
      2 C                    -0.446111      -0.004189
      3 C                     0.145502       0.001341
      4 O                    -0.443012      -0.002134
      5 C                     0.276741       0.013655
      6 C                    -0.355430      -0.010295
      7 C                    -0.339428      -0.000198
      8 O                    -0.416343      -0.000004
      9 O                    -0.438591       0.000025
     10 H                     0.345898      -0.003151
     11 H                     0.260232      -0.000400
     12 H                     0.198315      -0.000738
     13 H                     0.296115       0.001324
     14 H                     0.281727      -0.000251
     15 H                     0.255130       0.000040
     16 H                     0.338238      -0.000008
     17 H                     0.338481      -0.000001
     18 O                    -0.440859       0.478883
     19 O                    -0.392645       0.525770
  --------------------------------------------------------
  Sum of atomic charges =    -1.000000
  Sum of spin   charges =     1.000000

 -----------------------------------------------------------------
                    Cartesian Multipole Moments
 -----------------------------------------------------------------
    Charge (ESU x 10^10)
                -4.8032
    Dipole Moment (Debye)
         X     -14.5795      Y       9.6295      Z      -8.9222
       Tot      19.6188
    Quadrupole Moments (Debye-Ang)
        XX    -118.7147     XY      23.1555     YY     -69.3303
        XZ     -26.9736     YZ      16.6948     ZZ     -95.5591
    Octopole Moments (Debye-Ang^2)
       XXX    -881.4508    XXY     -43.1962    XYY    -250.7447
       YYY     -13.2352    XXZ    -216.4947    XYZ      24.8847
       YYZ     -89.7297    XZZ    -332.8594    YZZ     -18.7927
       ZZZ    -423.5770
    Hexadecapole Moments (Debye-Ang^3)
      XXXX   -5908.1602   XXXY   -1091.0460   XXYY   -1426.2551
      XYYY    -366.1260   YYYY   -1479.1396   XXXZ   -1715.1378
      XXYZ    -289.4220   XYYZ    -422.1779   YYYZ    -125.5610
      XXZZ   -1609.0374   XYZZ    -265.9909   YYZZ    -531.5695
      XZZZ   -1635.1363   YZZZ    -526.2817   ZZZZ   -2190.7515
 -----------------------------------------------------------------
 Total job time:  4713.15s(wall), 52822.27s(cpu) 
 Wed May 15 20:36:12 2024

        *************************************************************
        *                                                           *
        *  Thank you very much for using Q-Chem.  Have a nice day.  *
        *                                                           *
        *************************************************************


