
Running Job 1 of 1 Q_in.in
qchem Q_in.in_437457.0 /scratch/ari.fischer/qChem2103774.hpc-mn1/qchem437457/ 0
/usr/local/qchem-5.4.1/exe/qcprog.exe_s Q_in.in_437457.0 /scratch/ari.fischer/qChem2103774.hpc-mn1/qchem437457/
                  Welcome to Q-Chem
     A Quantum Leap Into The Future Of Chemistry


 Q-Chem 5.4, Q-Chem, Inc., Pleasanton, CA (2021)

 License issued to: Nanyang Technological University (site)

 E. Epifanovsky,  A. T. B. Gilbert,  Xintian Feng,  Joonho Lee,  Yuezhi Mao,  
 N. Mardirossian,  P. Pokhilko,  A. White,  M. Wormit,  M. P. Coons,  
 A. L. Dempwolff,  Zhengting Gan,  D. Hait,  P. R. Horn,  L. D. Jacobson,  
 I. Kaliman,  J. Kussmann,  A. W. Lange,  Ka Un Lao,  D. S. Levine,  Jie Liu,  
 S. C. McKenzie,  A. F. Morrison,  K. Nanda,  F. Plasser,  D. R. Rehn,  
 M. L. Vidal,  Zhi-Qiang You,  Ying Zhu,  B. Alam,  B. Albrecht,  
 A. Aldossary,  E. Alguire,  J. H. Andersen,  D. Barton,  K. Begam,  A. Behn,  
 Y. A. Bernard,  E. J. Berquist,  H. Burton,  A. Carreras,  K. Carter-Fenk,  
 R. Chakraborty,  A. D. Chien,  K. D. Closser,  V. Cofer-Shabica,  
 S. Dasgupta,  Jia Deng,  M. de Wergifosse,  M. Diedenhofen,  Hainam Do,  
 S. Ehlert,  Po-Tung Fang,  S. Fatehi,  Qingguo Feng,  T. Friedhoff,  
 J. Gayvert,  Qinghui Ge,  G. Gidofalvi,  M. Goldey,  J. Gomes,  
 C. Gonzalez-Espinoza,  S. Gulania,  A. Gunina,  M. W. D. Hanson-Heine,  
 P. H. P. Harbach,  A. W. Hauser,  M. F. Herbst,  M. Hernandez Vera,  
 M. Hodecker,  Z. C. Holden,  S. Houck,  Xunkun Huang,  Kerwin Hui,  
 B. C. Huynh,  M. Ivanov,  Hyunjun Ji,  Hanjie Jiang,  B. Kaduk,  S. Kaehler,  
 K. Khistyaev,  Jaehoon Kim,  P. Klunzinger,  Z. Koczor-Benda,  
 Joong Hoon Koh,  D. Kosenkov,  L. Koulias,  T. Kowalczyk,  C. M. Krauter,  
 K. Kue,  A. Kunitsa,  T. Kus,  A. Landau,  K. V. Lawler,  D. Lefrancois,  
 S. Lehtola,  Rain Li,  Yi-Pei Li,  Jiashu Liang,  M. Liebenthal,  
 Hung-Hsuan Lin,  You-Sheng Lin,  Fenglai Liu,  Kuan-Yu Liu,  
 M. Loipersberger,  A. Luenser,  A. Manjanath,  P. Manohar,  E. Mansoor,  
 S. F. Manzer,  Shan-Ping Mao,  A. V. Marenich,  T. Markovich,  S. Mason,  
 S. A. Maurer,  P. F. McLaughlin,  M. F. S. J. Menger,  J.-M. Mewes,  
 S. A. Mewes,  P. Morgante,  J. W. Mullinax,  K. J. Oosterbaan,  G. Paran,  
 Alexander C. Paul,  Suranjan K. Paul,  F. Pavosevic,  Zheng Pei,  S. Prager,  
 E. I. Proynov,  E. Ramos,  B. Rana,  A. E. Rask,  A. Rettig,  R. M. Richard,  
 F. Rob,  E. Rossomme,  T. Scheele,  M. Scheurer,  M. Schneider,  
 N. Sergueev,  S. M. Sharada,  W. Skomorowski,  D. W. Small,  C. J. Stein,  
 Yu-Chuan Su,  E. J. Sundstrom,  Zhen Tao,  J. Thirman,  T. Tsuchimochi,  
 N. M. Tubman,  S. P. Veccham,  O. Vydrov,  J. Wenzel,  J. Witte,  A. Yamada,  
 Kun Yao,  S. Yeganeh,  S. R. Yost,  A. Zech,  Igor Ying Zhang,  Xing Zhang,  
 Yu Zhang,  D. Zuev,  A. Aspuru-Guzik,  A. T. Bell,  N. A. Besley,  
 K. B. Bravaya,  B. R. Brooks,  D. Casanova,  Jeng-Da Chai,  S. Coriani,  
 C. J. Cramer,  A. E. DePrince, III,  R. A. DiStasio Jr.,  A. Dreuw,  
 B. D. Dunietz,  T. R. Furlani,  W. A. Goddard III,  S. Grimme,  
 S. Hammes-Schiffer,  T. Head-Gordon,  W. J. Hehre,  Chao-Ping Hsu,  
 T.-C. Jagau,  Yousung Jung,  A. Klamt,  Jing Kong,  D. S. Lambrecht,  
 WanZhen Liang,  N. J. Mayhall,  C. W. McCurdy,  J. B. Neaton,  
 C. Ochsenfeld,  J. A. Parkhill,  R. Peverati,  V. A. Rassolov,  Yihan Shao,  
 L. V. Slipchenko,  T. Stauch,  R. P. Steele,  J. E. Subotnik,  
 A. J. W. Thom,  A. Tkatchenko,  D. G. Truhlar,  T. Van Voorhis,  
 T. A. Wesolowski,  K. B. Whaley,  H. L. Woodcock III,  P. M. Zimmerman,  
 S. Faraji,  P. M. W. Gill,  M. Head-Gordon,  J. M. Herbert,  A. I. Krylov

 Additional authors for Version 5.4.1: 
 S. Kotaru,  Shaozhi Li,  Xiangyuan Li,  F. Matz,  A. Molle,  Haisheng Ren,  
 Yingli Su,  Hung-Yi Tsai,  C. Utku,  Fang Wang

 Contributors to earlier versions of Q-Chem not listed above: 
 R. D. Adamson,  B. Austin,  R. Baer,  J. Baker,  G. J. O. Beran,  
 K. Brandhorst,  S. T. Brown,  E. F. C. Byrd,  A. K. Chakraborty,  
 G. K. L. Chan,  Chun-Min Chang,  Yunqing Chen,  C.-L. Cheng,  
 Siu Hung Chien,  D. M. Chipman,  D. L. Crittenden,  H. Dachsel,  
 R. J. Doerksen,  A. D. Dutoi,  R. G. Edgar,  J. Fosso-Tande,  
 L. Fusti-Molnar,  D. Ghosh,  A. Ghysels,  A. Golubeva-Zadorozhnaya,  
 J. Gonthier,  M. S. Gordon,  S. R. Gwaltney,  G. Hawkins,  J. E. Herr,  
 A. Heyden,  S. Hirata,  E. G. Hohenstein,  G. Kedziora,  F. J. Keil,  
 C. Kelley,  Jihan Kim,  R. A. King,  R. Z. Khaliullin,  P. P. Korambath,  
 W. Kurlancheek,  A. Laurent,  A. M. Lee,  M. S. Lee,  S. V. Levchenko,  
 Ching Yeh Lin,  D. Liotard,  E. Livshits,  R. C. Lochan,  I. Lotan,  
 L. A. Martinez-Martinez,  P. E. Maslen,  N. Nair,  D. P. O'Neill,  
 D. Neuhauser,  E. Neuscamman,  C. M. Oana,  R. Olivares-Amaya,  R. Olson,  
 T. M. Perrine,  B. Peters,  P. A. Pieniazek,  A. Prociuk,  Y. M. Rhee,  
 J. Ritchie,  M. A. Rohrdanz,  E. Rosta,  N. J. Russ,  H. F. Schaefer III,  
 M. W. Schmidt,  N. E. Schultz,  S. Sharma,  N. Shenvi,  C. D. Sherrill,  
 A. C. Simmonett,  A. Sodt,  T. Stein,  D. Stuck,  K. S. Thanthiriwatte,  
 V. Vanovschi,  L. Vogt,  Tao Wang,  A. Warshel,  M. A. Watson,  
 C. F. Williams,  Q. Wu,  X. Xu,  Jun Yang,  W. Zhang,  Yan Zhao

 Please cite Q-Chem as follows:
 Y. Shao et al., Mol. Phys. 113, 184-215 (2015)
 DOI: 10.1080/00268976.2014.952696

 Q-Chem 5.4.1 for Intel X86 EM64T Linux

 Parts of Q-Chem use Armadillo 9.800.1 (Horizon Scraper).
 http://arma.sourceforge.net/

 Q-Chem begins on Wed May 15 16:57:05 2024  

 Host: 
0

     Scratch files written to /scratch/ari.fischer/qChem2103774.hpc-mn1/qchem437457//
 Aug1521 |scratch|qcdevops|jenkins|workspace|build_RNUM 8249   
 Processing $rem in /usr/local/qchem-5.4.1/config/preferences:
 Processing $rem in /home/ari.fischer/.qchemrc:
 Symmetry turned off for PCM/SM12/SMD calculation

 Checking the input file for inconsistencies... 	...done.

--------------------------------------------------------------
User input:
--------------------------------------------------------------
$comment

$end

$molecule
-1 2
O    3.2190289   -0.8022062   -0.6998998
C    2.4027385    0.1018893   -0.0023786
C    2.8983862    0.3085723    1.4450013
O    2.0345600    1.2028630    2.0868879
C    4.3262403    0.8409196    1.4031164
C    4.8142839    1.9988840    1.9021834
C    4.0400288    3.0530946    2.6496045
O    3.5496658    2.5088852    3.8461259
O    4.8984839    4.1228935    2.9429522
H    2.9288678   -1.7132714   -0.4331767
H    1.3458849   -0.2511871   -0.0156583
H    2.4113908    1.0733891   -0.5423589
H    5.0481095    0.2015557    0.9008982
H    5.8737061    2.1880090    1.7459837
H    3.2140507    3.4021824    1.9849558
H    2.8469978    3.1307698    4.1695180
H    4.3206221    4.8779852    3.2280718
O    2.9252038   -0.9175738    2.1446842
O    1.6730815   -1.3040346    2.3156103
$end

$rem
BASIS = 6-31G(d)
GUI = 2
JOB_TYPE = Optimization
METHOD = B97-D3
DFT_D  = D3_BJ
SCF_ALGORITHM = DIIS_GDM
MAX_SCF_CYCLES = 400
GEOM_OPT_MAX_CYCLES = 300
SCF_CONVERGENCE = 7
THRESH = 12
Solvent_method = SMD
$end
--------------------------------------------------------------
 Adding empirical dispersion correction 
 ----------------------------------------------------------------
 Doing -D3(BJ) with
 s6  =   1.00000
 s8  =   2.26090
 a1  =   0.55450
 a2  =   3.22970
 -D3 energy without 3body term =     -0.0484871878 hartrees
 ----------------------------------------------------------------
             Standard Nuclear Orientation (Angstroms)
    I     Atom           X                Y                Z
 ----------------------------------------------------------------
    1      O       3.2190289000    -0.8022062000    -0.6998998000
    2      C       2.4027385000     0.1018893000    -0.0023786000
    3      C       2.8983862000     0.3085723000     1.4450013000
    4      O       2.0345600000     1.2028630000     2.0868879000
    5      C       4.3262403000     0.8409196000     1.4031164000
    6      C       4.8142839000     1.9988840000     1.9021834000
    7      C       4.0400288000     3.0530946000     2.6496045000
    8      O       3.5496658000     2.5088852000     3.8461259000
    9      O       4.8984839000     4.1228935000     2.9429522000
   10      H       2.9288678000    -1.7132714000    -0.4331767000
   11      H       1.3458849000    -0.2511871000    -0.0156583000
   12      H       2.4113908000     1.0733891000    -0.5423589000
   13      H       5.0481095000     0.2015557000     0.9008982000
   14      H       5.8737061000     2.1880090000     1.7459837000
   15      H       3.2140507000     3.4021824000     1.9849558000
   16      H       2.8469978000     3.1307698000     4.1695180000
   17      H       4.3206221000     4.8779852000     3.2280718000
   18      O       2.9252038000    -0.9175738000     2.1446842000
   19      O       1.6730815000    -1.3040346000     2.3156103000
 ----------------------------------------------------------------
 Nuclear Repulsion Energy =         663.30669903 hartrees
 There are       44 alpha and       43 beta electrons
 Requested basis set is 6-31G(d)
 There are 60 shells and 181 basis functions

 Total QAlloc Memory Limit 288000 MB
 Mega-Array Size       188 MB
 MEM_STATIC part       192 MB
 
 Citation of the SMD model:
 Marenich, A.V.; Cramer, C.J.; Truhlar, D.G.
 J. Phys. Chem. B 2009, 113, 6378-6396.
 iSolventCode=           1
 Solvent: water                                                           
 
 vradii
            1           2           3           4           5           6
    1   1.5200000   1.8500000   1.8500000   1.5200000   1.8500000   1.8500000
            7           8           9          10          11          12
    1   1.8500000   1.5200000   1.5200000   1.2000000   1.2000000   1.2000000
           13          14          15          16          17          18
    1   1.2000000   1.2000000   1.2000000   1.2000000   1.2000000   1.5200000
           19
    1   1.5200000
 Changing PCM_VDW_RADII to SMD_RADIUS
 Discretize the solute cavity surface with Lebedev spheres
	Using 110 Lebedev grid points for each H atom
	Using 194 Lebedev grid points for other atoms
	Atomic van der Waals radii will be scaled by 1.20
 Remove points where switching function is < 1.0e-08
 Keep 1531 surface tesserae and discard 1483 interior tesserae
 Molecular Surface Area = 174.684 Angst**2
 A cutoff of  1.0D-12 yielded   1539 shell pairs
 There are     14746 function pairs
 Smallest overlap matrix eigenvalue = 1.64E-03

 Scale SEOQF with 1.000000e-02/1.000000e-01/1.000000e-01

 Standard Electronic Orientation quadrupole field applied
 Nucleus-field energy     =    -0.0000000165 hartrees
 Guess from superposition of atomic densities
 Warning:  Energy on first SCF cycle will be non-variational
 SAD guess density has 86.000000 electrons

 -----------------------------------------------------------------------
  General SCF calculation program by
  Eric Jon Sundstrom, Paul Horn, Yuezhi Mao, Dmitri Zuev, Alec White,
  David Stuck, Shaama M.S., Shane Yost, Joonho Lee, David Small,
  Daniel Levine, Susi Lehtola, Hugh Burton, Evgeny Epifanovsky,
  Bang C. Huynh
 -----------------------------------------------------------------------
 Exchange:  B97-D      Correlation:  B97-D
 Using SG-2 standard quadrature grid
 Dispersion:   Grimme D3
 
 Citation of the SMD model:
 Marenich, A.V.; Cramer, C.J.; Truhlar, D.G.
 J. Phys. Chem. B 2009, 113, 6378-6396.
 iSolventCode=           1
 Solvent: water                                                           
 
 vradii
            1           2           3           4           5           6
    1   1.5200000   1.8500000   1.8500000   1.5200000   1.8500000   1.8500000
            7           8           9          10          11          12
    1   1.8500000   1.5200000   1.5200000   1.2000000   1.2000000   1.2000000
           13          14          15          16          17          18
    1   1.2000000   1.2000000   1.2000000   1.2000000   1.2000000   1.5200000
           19
    1   1.5200000
 using 16 threads for integral computing
 -------------------------------------------------------
 OpenMP Integral computing Module                
 Release: version 1.0, May 2013, Q-Chem Inc. Pittsburgh 
 -------------------------------------------------------
 A unrestricted SCF calculation will be
 performed using DIIS, GDM
 SCF converges when RMS gradient is below 1.0e-07
 ---------------------------------------
  Cycle       Energy         DIIS error
 ---------------------------------------
    1    -647.6054477794      2.70e-02  
    2    -645.8720391418      5.14e-03  Done DIIS. Switching to GDM
 ---------------------------------------
  Cycle       Energy        RMS Gradient
 ---------------------------------------
    1    -645.8720391418      1.58e-01   Descent step
    2    -646.1568292464      4.26e-02   Descent step
    3    -646.1999527415      4.11e-02   Normal BFGS step
    4    -646.2127518598      4.19e-02   Normal BFGS step
    5    -646.2132199437      4.35e-02   Normal BFGS step
    6    -646.2170680329      2.13e-02   Normal BFGS step
    7    -646.2177309571      1.55e-02   Normal BFGS step
    8    -646.2190104489      1.50e-02   Normal BFGS step
    9    -646.2192729226      1.44e-02   Normal BFGS step
   10    -646.2199556105      5.63e-03   Normal BFGS step
   11    -646.2198732961      3.61e-02  Line search: overstep
   12    -646.2203484035      6.59e-03   Normal BFGS step
   13    -646.2203848984      1.18e-02   Normal BFGS step
   14    -646.2204232868      7.02e-03   Normal BFGS step
   15    -646.2204455180      9.71e-04   Normal BFGS step
   16    -646.2204553865      3.15e-04   Normal BFGS step
   17    -646.2204558034      4.10e-04   Normal BFGS step
   18    -646.2204570382      1.56e-04   Normal BFGS step
   19    -646.2204570531      1.09e-04   Normal BFGS step
   20    -646.2204570959      5.96e-05   Normal BFGS step
   21    -646.2204571009      3.19e-05   Normal BFGS step
   22    -646.2204571025      7.87e-06   Normal BFGS step
   23    -646.2204571025      4.92e-06   Normal BFGS step
   24    -646.2204571027      1.23e-06   Normal BFGS step
   25    -646.2204571027      2.55e-06   Normal BFGS step
   26    -646.2204571027      7.87e-07   Normal BFGS step
   27    -646.2204571027      1.30e-06   Normal BFGS step
   28    -646.2204571027      6.05e-08  Convergence criterion met
 ---------------------------------------
 SCF time:   CPU 419.63s  wall 113.00s 
<S^2> =          0.752418323
(3)  G-ENP(liq) elect-nuc-pol free energy of system     -646.220457103 a.u.
(4)  G-CDS(liq) cavity-dispersion-solvent structure 
     free energy                                                3.3927 kcal/mol
(6)  G-S(liq) free energy of system                     -646.215050466 a.u.
 SCF   energy in the final basis set =     -646.2150504660
 Total energy in the final basis set =     -646.2150504660
 
 --------------------------------------------------------------
 
                    Orbital Energies (a.u.)
 --------------------------------------------------------------
 
 Alpha MOs
 -- Occupied --
-18.8427 -18.7775 -18.7666 -18.7651 -18.7605 -18.6648  -9.9958  -9.9762
 -9.9474  -9.9052  -9.9031  -1.0680  -0.9627  -0.9311  -0.8936  -0.8270
 -0.7469  -0.6920  -0.6250  -0.5907  -0.5206  -0.4811  -0.4600  -0.4569
 -0.4446  -0.4208  -0.4137  -0.3996  -0.3774  -0.3572  -0.3565  -0.3207
 -0.3137  -0.2959  -0.2888  -0.2658  -0.2437  -0.2294  -0.2203  -0.2115
 -0.1936  -0.1767  -0.1579  -0.1407
 -- Virtual --
 -0.0210   0.0644   0.0762   0.1012   0.1063   0.1234   0.1254   0.1507
  0.1553   0.1810   0.1861   0.2153   0.2227   0.2430   0.2468   0.2616
  0.2809   0.3407   0.4123   0.5037   0.5176   0.5314   0.5431   0.5528
  0.5693   0.5748   0.6079   0.6232   0.6442   0.6656   0.6722   0.6988
  0.7063   0.7273   0.7553   0.7583   0.7688   0.7780   0.8006   0.8136
  0.8241   0.8281   0.8490   0.8569   0.8740   0.8926   0.9117   0.9210
  0.9416   0.9544   0.9602   0.9779   0.9986   1.0034   1.0165   1.0286
  1.0638   1.0797   1.1245   1.1441   1.1946   1.2055   1.2359   1.2790
  1.2886   1.3160   1.3420   1.3949   1.4346   1.4348   1.4779   1.5065
  1.5241   1.5616   1.5840   1.5890   1.6211   1.6385   1.6791   1.6929
  1.7171   1.7195   1.7459   1.8000   1.8149   1.8265   1.8306   1.8647
  1.8924   1.9013   1.9341   1.9461   1.9953   2.0196   2.0343   2.0484
  2.0686   2.0889   2.1109   2.1290   2.1356   2.1910   2.2091   2.2539
  2.2659   2.3208   2.3290   2.3672   2.3874   2.3998   2.4226   2.4635
  2.4964   2.5033   2.5415   2.5790   2.6306   2.6725   2.7483   2.7856
  2.8254   2.8503   2.8658   2.9400   3.0317   3.0565   3.4211   3.6396
  3.6981   3.7459   3.8318   4.0451   4.1046   4.2449   4.3345   4.4632
  4.6214
 
 Beta MOs
 -- Occupied --
-18.8379 -18.7700 -18.7664 -18.7650 -18.7603 -18.6627  -9.9958  -9.9764
 -9.9469  -9.9053  -9.9030  -1.0501  -0.9625  -0.9299  -0.8933  -0.8182
 -0.7279  -0.6902  -0.6201  -0.5896  -0.5154  -0.4773  -0.4595  -0.4562
 -0.4388  -0.4184  -0.4054  -0.3865  -0.3737  -0.3549  -0.3414  -0.3136
 -0.3091  -0.2914  -0.2874  -0.2617  -0.2426  -0.2270  -0.2184  -0.2097
 -0.1774  -0.1521  -0.1274
 -- Virtual --
 -0.1262  -0.0199   0.0645   0.0772   0.1024   0.1169   0.1246   0.1312
  0.1540   0.1558   0.1824   0.1866   0.2156   0.2240   0.2456   0.2491
  0.2630   0.2836   0.3415   0.4130   0.5045   0.5182   0.5327   0.5460
  0.5548   0.5713   0.5760   0.6096   0.6242   0.6468   0.6675   0.6729
  0.7005   0.7068   0.7296   0.7568   0.7588   0.7756   0.7817   0.8024
  0.8212   0.8260   0.8325   0.8514   0.8583   0.8760   0.8995   0.9146
  0.9227   0.9470   0.9563   0.9646   0.9827   1.0026   1.0083   1.0200
  1.0393   1.0685   1.0827   1.1252   1.1455   1.1983   1.2073   1.2412
  1.2844   1.2917   1.3185   1.3448   1.3994   1.4379   1.4410   1.4849
  1.5096   1.5279   1.5633   1.5858   1.5921   1.6247   1.6473   1.6812
  1.6947   1.7247   1.7310   1.7543   1.8047   1.8189   1.8345   1.8349
  1.8671   1.8941   1.9057   1.9394   1.9483   1.9972   2.0245   2.0374
  2.0522   2.0707   2.0919   2.1143   2.1335   2.1392   2.2034   2.2145
  2.2583   2.2679   2.3259   2.3303   2.3690   2.3931   2.4041   2.4391
  2.4655   2.4974   2.5093   2.5426   2.5819   2.6356   2.6747   2.7519
  2.7889   2.8263   2.8508   2.8693   2.9475   3.0353   3.0594   3.4447
  3.6423   3.6993   3.7468   3.8450   4.0505   4.1050   4.2489   4.3359
  4.4637   4.6216
 --------------------------------------------------------------
 
          Ground-State Mulliken Net Atomic Charges

     Atom                 Charge (a.u.)    Spin (a.u.)
  --------------------------------------------------------
      1 O                    -0.643650       0.015885
      2 C                    -0.112979       0.065577
      3 C                     0.491632      -0.018501
      4 O                    -0.795811       0.159141
      5 C                    -0.172511       0.016561
      6 C                    -0.184109      -0.007749
      7 C                     0.301623      -0.000196
      8 O                    -0.641354       0.009844
      9 O                    -0.671726       0.001237
     10 H                     0.433587      -0.001305
     11 H                     0.145846      -0.002688
     12 H                     0.164106      -0.002343
     13 H                     0.137527      -0.000070
     14 H                     0.160542       0.000941
     15 H                     0.128003      -0.000346
     16 H                     0.419838       0.000024
     17 H                     0.429890       0.000003
     18 O                    -0.220768       0.264780
     19 O                    -0.369686       0.499206
  --------------------------------------------------------
  Sum of atomic charges =    -1.000000
  Sum of spin   charges =     1.000000

 -----------------------------------------------------------------
                    Cartesian Multipole Moments
 -----------------------------------------------------------------
    Charge (ESU x 10^10)
                -4.8032
    Dipole Moment (Debye)
         X     -13.1414      Y      -0.2359      Z     -11.0181
       Tot      17.1508
    Quadrupole Moments (Debye-Ang)
        XX    -111.6367     XY      -8.6472     YY     -55.2313
        XZ     -30.5959     YZ       5.6294     ZZ     -94.6701
    Octopole Moments (Debye-Ang^2)
       XXX    -845.8914    XXY    -140.4005    XYY    -211.8857
       YYY    -124.9329    XXZ    -233.1313    XYZ     -14.7678
       YYZ     -77.4646    XZZ    -319.7580    YZZ     -36.2689
       ZZZ    -409.8204
    Hexadecapole Moments (Debye-Ang^3)
      XXXX   -5726.5487   XXXY   -1390.9090   XXYY   -1237.6122
      XYYY    -773.1315   YYYY   -1103.1090   XXXZ   -1768.1903
      XXYZ    -409.9102   XYYZ    -366.1409   YYYZ    -252.4147
      XXZZ   -1574.1593   XYZZ    -323.8093   YYZZ    -390.4050
      XZZZ   -1504.3334   YZZZ    -474.4900   ZZZZ   -2046.1464
 -----------------------------------------------------------------
 Calculating analytic gradient of the SCF energy
 Gradient of CDS energy
            1           2           3           4           5           6
    1  -0.0016976   0.0013548  -0.0023610   0.0022591   0.0001179   0.0002626
    2   0.0021322  -0.0018102   0.0014693  -0.0023794  -0.0002145  -0.0000058
    3   0.0018208  -0.0023878   0.0022501  -0.0015853  -0.0000067  -0.0000128
            7           8           9          10          11          12
    1   0.0012542   0.0010034  -0.0021443   0.0000674  -0.0000891   0.0001878
    2   0.0019698   0.0011032  -0.0029182  -0.0004541  -0.0002137   0.0002129
    3   0.0031608  -0.0026314  -0.0006649  -0.0001991   0.0002954   0.0000656
           13          14          15          16          17          18
    1   0.0000828   0.0002041  -0.0002045  -0.0002865   0.0001084  -0.0001224
    2  -0.0001454   0.0000721  -0.0001207  -0.0000169   0.0005016   0.0007949
    3  -0.0001220  -0.0000134  -0.0000719   0.0004271   0.0000641  -0.0004570
           19
    1   0.0000029
    2   0.0000230
    3   0.0000685
 Gradient of SCF Energy
            1           2           3           4           5           6
    1  -0.0074093  -0.0149845   0.0165311   0.0085416   0.0238829   0.0004699
    2   0.0132160   0.0080622  -0.0374343  -0.0009061   0.0242995  -0.0303189
    3   0.0247805  -0.0053924  -0.0057618   0.0136071   0.0118138  -0.0185900
            7           8           9          10          11          12
    1  -0.0128496   0.0029852  -0.0085081  -0.0002899   0.0223213  -0.0029567
    2   0.0029355  -0.0014254  -0.0335486   0.0004685   0.0047114  -0.0197802
    3  -0.0064290  -0.0254389  -0.0009811  -0.0044758  -0.0038065   0.0075116
           13          14          15          16          17          18
    1  -0.0209129  -0.0290133   0.0148172   0.0070053  -0.0071229  -0.0095779
    2   0.0187984  -0.0062434  -0.0044524   0.0070734   0.0065172   0.0218937
    3   0.0148602   0.0035322   0.0090831  -0.0006759   0.0029998  -0.0064098
           19
    1   0.0170705
    2   0.0261335
    3  -0.0102270
 Max gradient component =       3.743E-02
 RMS gradient           =       1.504E-02
 Computing fast CPCM-SWIG gradient
 Updating gradient with PCM contributions...
 -- total gradient after adding PCM contribution --
---------------------------------------------------
  Atom         X              Y              Z     
---------------------------------------------------
   1      -0.006441       0.028240       0.016609
   2       0.017749      -0.003258       0.004988
   3       0.022554      -0.097780      -0.021256
   4      -0.008191       0.017305       0.033158
   5      -0.008495       0.001526      -0.007152
   6       0.005423       0.011986       0.001899
   7       0.011676       0.005026       0.020309
   8       0.014479      -0.005140      -0.025394
   9      -0.008835      -0.029740      -0.002197
  10      -0.006057      -0.014562       0.003044
  11      -0.006458      -0.003144      -0.007271
  12      -0.004939       0.006134      -0.006597
  13      -0.002603       0.003888       0.004288
  14      -0.003260      -0.003568      -0.000257
  15      -0.002196       0.002100      -0.009027
  16      -0.009240       0.009794       0.004324
  17      -0.009296       0.011337       0.004356
  18      -0.028071       0.031346       0.003963
  19       0.032199       0.028512      -0.017787
---------------------------------------------------
 Number of fixed atoms: 0
 Gradient time:  CPU 18.76 s  wall 5.97 s
 Geometry Optimization Parameters
   NAtoms,    NIC,     NZ,  NCons,   NDum,   NFix, NCnnct, MaxDiis
       19     121       0       0       0       0       0       0


** GEOMETRY OPTIMIZATION IN DELOCALIZED INTERNAL COORDINATES **
   Searching for a Minimum

   Optimization Cycle:   1

                       Coordinates (Angstroms)
     ATOM                X               Y               Z
      1  O         3.2190289000   -0.8022062000   -0.6998998000
      2  C         2.4027385000    0.1018893000   -0.0023786000
      3  C         2.8983862000    0.3085723000    1.4450013000
      4  O         2.0345600000    1.2028630000    2.0868879000
      5  C         4.3262403000    0.8409196000    1.4031164000
      6  C         4.8142839000    1.9988840000    1.9021834000
      7  C         4.0400288000    3.0530946000    2.6496045000
      8  O         3.5496658000    2.5088852000    3.8461259000
      9  O         4.8984839000    4.1228935000    2.9429522000
     10  H         2.9288678000   -1.7132714000   -0.4331767000
     11  H         1.3458849000   -0.2511871000   -0.0156583000
     12  H         2.4113908000    1.0733891000   -0.5423589000
     13  H         5.0481095000    0.2015557000    0.9008982000
     14  H         5.8737061000    2.1880090000    1.7459837000
     15  H         3.2140507000    3.4021824000    1.9849558000
     16  H         2.8469978000    3.1307698000    4.1695180000
     17  H         4.3206221000    4.8779852000    3.2280718000
     18  O         2.9252038000   -0.9175738000    2.1446842000
     19  O         1.6730815000   -1.3040346000    2.3156103000
   Point Group: c1    Number of degrees of freedom:    51


   Energy is   -646.215050466


 Attempting to generate delocalized internal coordinates
 Initial Hessian constructed with Jon Baker's OPTIMIZE code

 51 Hessian modes will be used to form the next step
  Hessian Eigenvalues:
     0.003386    0.005946    0.008322    0.014060    0.015096    0.015162
     0.015254    0.015293    0.016477    0.028745    0.048497    0.057763
     0.066709    0.073499    0.075410    0.076922    0.091866    0.106654
     0.116252    0.139371    0.160000    0.160000    0.160000    0.160000
     0.160000    0.187667    0.191296    0.204905    0.212902    0.219661
     0.220000    0.220000    0.250000    0.281857    0.299430    0.317073
     0.319543    0.321436    0.324402    0.351093    0.351328    0.436902
     0.450197    0.451343    0.451818    0.457409    0.490018    0.490024
     0.490308    0.545800    0.615577

 Minimum search - taking simple RFO step
 Searching for Lamda that Minimizes Along All modes
 Value Taken    Lamda =  -0.05503206
 Calculated Step too Large.  Step scaled by  0.571076
 Step Taken.  Stepsize is  0.300000

                             Maximum     Tolerance    Cnvgd?
         Gradient           0.057031      0.000300      NO
         Displacement       0.130643      0.001200      NO
         Energy change     *********      0.000001      NO


 New Cartesian Coordinates Obtained by Inverse Iteration

 Displacement from previous Coordinates is:  1.273475
 Adding empirical dispersion correction 
 ----------------------------------------------------------------
 Doing -D3(BJ) with
 s6  =   1.00000
 s8  =   2.26090
 a1  =   0.55450
 a2  =   3.22970
 -D3 energy without 3body term =     -0.0469846077 hartrees
 ----------------------------------------------------------------
             Standard Nuclear Orientation (Angstroms)
    I     Atom           X                Y                Z
 ----------------------------------------------------------------
    1      O       3.2964728264    -0.8288761123    -0.7401562796
    2      C       2.4049256928     0.0453482587    -0.0657632640
    3      C       2.7957488642     0.3052205579     1.4142759764
    4      O       1.8414812682     1.1533928814     1.9401808269
    5      C       4.2214736706     0.8650082171     1.4394279069
    6      C       4.7292396162     2.0165765409     1.9351453554
    7      C       4.0502878235     3.1172140832     2.7184668010
    8      O       3.6516640348     2.6337560247     3.9881151247
    9      O       4.9946971652     4.1613095833     2.8824671854
   10      H       3.0465108764    -1.7446259763    -0.4816750783
   11      H       1.3695020120    -0.3484622151    -0.1072778297
   12      H       2.4037503529     1.0100438434    -0.6040532595
   13      H       4.9531072057     0.2240890539     0.9436951494
   14      H       5.7875048062     2.1861307885     1.7352556531
   15      H       3.1841534746     3.4879903826     2.1315522683
   16      H       3.0123395604     3.2886498268     4.3514536820
   17      H       4.4925503375     4.9493939619     3.1913727237
   18      O       2.8667813713    -0.9619557087     2.1115500253
   19      O       1.6691403410    -1.5365843919     2.2880883328
 ----------------------------------------------------------------
 Nuclear Repulsion Energy =         649.45006639 hartrees
 There are       44 alpha and       43 beta electrons
 Discretize the solute cavity surface with Lebedev spheres
	Using 110 Lebedev grid points for each H atom
	Using 194 Lebedev grid points for other atoms
	Atomic van der Waals radii will be scaled by 1.20
 Remove points where switching function is < 1.0e-08
 Keep 1571 surface tesserae and discard 1443 interior tesserae
 Molecular Surface Area = 179.806 Angst**2
 Applying Cartesian multipole field
    Component          Value
    ---------          -----
     (2,0,0)        1.00000E-12
     (0,2,0)        2.00000E-11
     (0,0,2)       -3.00000E-11
 Nucleus-field energy     =    -0.0000000157 hartrees
 Requested basis set is 6-31G(d)
 There are 60 shells and 181 basis functions
 A cutoff of  1.0D-12 yielded   1521 shell pairs
 There are     14534 function pairs
 Smallest overlap matrix eigenvalue = 1.80E-03
 Guess MOs from SCF MO coefficient file

 -----------------------------------------------------------------------
  General SCF calculation program by
  Eric Jon Sundstrom, Paul Horn, Yuezhi Mao, Dmitri Zuev, Alec White,
  David Stuck, Shaama M.S., Shane Yost, Joonho Lee, David Small,
  Daniel Levine, Susi Lehtola, Hugh Burton, Evgeny Epifanovsky,
  Bang C. Huynh
 -----------------------------------------------------------------------
 Exchange:  B97-D      Correlation:  B97-D
 Using SG-2 standard quadrature grid
 Dispersion:   Grimme D3
 
 Citation of the SMD model:
 Marenich, A.V.; Cramer, C.J.; Truhlar, D.G.
 J. Phys. Chem. B 2009, 113, 6378-6396.
 iSolventCode=           1
 Solvent: water                                                           
 
 vradii
            1           2           3           4           5           6
    1   1.5200000   1.8500000   1.8500000   1.5200000   1.8500000   1.8500000
            7           8           9          10          11          12
    1   1.8500000   1.5200000   1.5200000   1.2000000   1.2000000   1.2000000
           13          14          15          16          17          18
    1   1.2000000   1.2000000   1.2000000   1.2000000   1.2000000   1.5200000
           19
    1   1.5200000
 A unrestricted SCF calculation will be
 performed using Roothaan-Hall, DIIS, GDM
 SCF converges when RMS gradient is below 1.0e-07
 ---------------------------------------
  Cycle       Energy         DIIS error
 ---------------------------------------
    1    -646.0510130621      1.22e-03  Roothaan Step
 ---------------------------------------
  Cycle       Energy         DIIS error
 ---------------------------------------
    1    -646.0231834881      3.09e-03  
    2    -644.5337583914      9.86e-03  Done DIIS. Switching to GDM
 ---------------------------------------
  Cycle       Energy        RMS Gradient
 ---------------------------------------
    1    -644.5337583914      1.42e+00   Descent step
    2    -645.4385030259      2.77e-01   Descent step
    3    -645.8189231690      1.32e-01   Descent step
    4    -645.9448751686      1.81e-01   Descent step
    5    -645.9484242351      6.80e-01   Descent step
    6    -645.8394365890      1.17e+00  Line search: overstep
    7    -646.0394856334      2.66e-01   Descent step
    8    -646.1039704870      2.75e-01   Descent step
    9    -646.2023733281      1.50e-01   Descent step
   10    -646.1806694368      1.72e-01  Line search: overstep
   11    -646.2291281431      9.16e-02   Normal BFGS step
   12    -646.2070385059      2.35e-01  Line search: overstep
   13    -646.2362044400      2.14e-02   Normal BFGS step
   14    -646.2378021023      1.45e-02   Normal BFGS step
   15    -646.2385153153      6.53e-03   Normal BFGS step
   16    -646.2387716579      7.90e-03   Normal BFGS step
   17    -646.2389218202      6.12e-03   Normal BFGS step
   18    -646.2389344648      7.95e-03   Normal BFGS step
   19    -646.2389969065      2.23e-03   Normal BFGS step
   20    -646.2390016551      9.35e-04   Normal BFGS step
   21    -646.2390088832      7.79e-04   Normal BFGS step
   22    -646.2390092443      4.36e-04   Normal BFGS step
   23    -646.2390102427      2.13e-04   Normal BFGS step
   24    -646.2390103113      9.89e-05   Normal BFGS step
   25    -646.2390103863      2.55e-05   Normal BFGS step
   26    -646.2390103893      2.24e-05   Normal BFGS step
   27    -646.2390103918      8.15e-06   Normal BFGS step
   28    -646.2390103917      1.05e-05   Normal BFGS step
   29    -646.2390103923      2.05e-06   Normal BFGS step
   30    -646.2390103923      3.52e-06   Normal BFGS step
   31    -646.2390103923      5.50e-07   Normal BFGS step
   32    -646.2390103923      4.00e-07   Normal BFGS step
   33    -646.2390103923      1.86e-07   Normal BFGS step
   34    -646.2390103923      2.49e-07   Normal BFGS step
   35    -646.2390103923      2.97e-08  Convergence criterion met
 ---------------------------------------
 SCF time:   CPU 535.90s  wall 75.00s 
<S^2> =          0.752505366
(3)  G-ENP(liq) elect-nuc-pol free energy of system     -646.239010392 a.u.
(4)  G-CDS(liq) cavity-dispersion-solvent structure 
     free energy                                                3.4418 kcal/mol
(6)  G-S(liq) free energy of system                     -646.233525531 a.u.
 SCF   energy in the final basis set =     -646.2335255315
 Total energy in the final basis set =     -646.2335255315
 
 --------------------------------------------------------------
 
                    Orbital Energies (a.u.)
 --------------------------------------------------------------
 
 Alpha MOs
 -- Occupied --
-18.8475 -18.7922 -18.7673 -18.7672 -18.7660 -18.6715 -10.0026  -9.9828
 -9.9471  -9.9096  -9.9078  -1.0558  -0.9623  -0.9272  -0.8972  -0.8362
 -0.7533  -0.6950  -0.6267  -0.5953  -0.5249  -0.4805  -0.4623  -0.4589
 -0.4451  -0.4204  -0.4106  -0.3973  -0.3774  -0.3587  -0.3546  -0.3234
 -0.3166  -0.3041  -0.2916  -0.2693  -0.2467  -0.2320  -0.2255  -0.2161
 -0.2020  -0.1894  -0.1647  -0.1484
 -- Virtual --
 -0.0254   0.0657   0.0754   0.0847   0.0977   0.1227   0.1259   0.1487
  0.1534   0.1801   0.1827   0.2091   0.2101   0.2265   0.2333   0.2473
  0.2846   0.3289   0.4115   0.4929   0.5146   0.5279   0.5381   0.5407
  0.5673   0.5694   0.6046   0.6214   0.6374   0.6611   0.6715   0.6966
  0.7058   0.7343   0.7539   0.7589   0.7622   0.7857   0.7958   0.8149
  0.8217   0.8260   0.8477   0.8523   0.8755   0.8815   0.9124   0.9192
  0.9305   0.9540   0.9707   0.9885   0.9966   1.0049   1.0142   1.0284
  1.0567   1.0753   1.1143   1.1314   1.1496   1.1959   1.2211   1.2290
  1.2799   1.3103   1.3378   1.3827   1.4151   1.4397   1.4586   1.4926
  1.5183   1.5497   1.5751   1.5783   1.6152   1.6236   1.6605   1.6703
  1.6911   1.7102   1.7504   1.7772   1.7922   1.8155   1.8220   1.8452
  1.8806   1.8891   1.9216   1.9271   1.9746   1.9898   2.0067   2.0416
  2.0509   2.0726   2.0787   2.1021   2.1113   2.1438   2.1662   2.2453
  2.2584   2.3007   2.3206   2.3669   2.3676   2.3804   2.4084   2.4525
  2.4576   2.4847   2.5203   2.5720   2.6001   2.6454   2.7416   2.7861
  2.8117   2.8330   2.8588   2.9415   2.9952   3.0731   3.3671   3.6197
  3.6578   3.7213   3.7816   4.0059   4.0939   4.2439   4.3210   4.4573
  4.6030
 
 Beta MOs
 -- Occupied --
-18.8422 -18.7842 -18.7673 -18.7672 -18.7658 -18.6701 -10.0026  -9.9829
 -9.9467  -9.9097  -9.9077  -1.0355  -0.9622  -0.9262  -0.8972  -0.8291
 -0.7329  -0.6931  -0.6219  -0.5942  -0.5196  -0.4768  -0.4620  -0.4580
 -0.4389  -0.4179  -0.4015  -0.3839  -0.3729  -0.3540  -0.3409  -0.3168
 -0.3107  -0.2985  -0.2905  -0.2660  -0.2462  -0.2300  -0.2238  -0.2139
 -0.1875  -0.1596  -0.1408
 -- Virtual --
 -0.1319  -0.0239   0.0659   0.0786   0.0956   0.1020   0.1247   0.1270
  0.1515   0.1538   0.1814   0.1832   0.2095   0.2121   0.2285   0.2360
  0.2480   0.2866   0.3298   0.4120   0.4937   0.5150   0.5292   0.5401
  0.5425   0.5682   0.5709   0.6069   0.6223   0.6403   0.6620   0.6720
  0.6984   0.7065   0.7354   0.7587   0.7600   0.7656   0.7891   0.7976
  0.8216   0.8252   0.8295   0.8498   0.8535   0.8767   0.8919   0.9149
  0.9209   0.9399   0.9551   0.9754   0.9915   1.0003   1.0096   1.0197
  1.0344   1.0640   1.0771   1.1150   1.1328   1.1529   1.2029   1.2239
  1.2326   1.2817   1.3118   1.3404   1.3880   1.4201   1.4440   1.4636
  1.4948   1.5237   1.5511   1.5770   1.5815   1.6208   1.6315   1.6673
  1.6750   1.6943   1.7174   1.7603   1.7853   1.7980   1.8199   1.8259
  1.8473   1.8834   1.8922   1.9271   1.9284   1.9773   1.9923   2.0116
  2.0464   2.0540   2.0736   2.0811   2.1069   2.1154   2.1516   2.1765
  2.2494   2.2612   2.3060   2.3223   2.3686   2.3705   2.3945   2.4175
  2.4538   2.4584   2.4900   2.5214   2.5739   2.6055   2.6480   2.7436
  2.7889   2.8123   2.8338   2.8627   2.9488   2.9990   3.0764   3.3932
  3.6212   3.6587   3.7218   3.7968   4.0096   4.0945   4.2477   4.3222
  4.4579   4.6032
 --------------------------------------------------------------
 
          Ground-State Mulliken Net Atomic Charges

     Atom                 Charge (a.u.)    Spin (a.u.)
  --------------------------------------------------------
      1 O                    -0.649578       0.014407
      2 C                    -0.113499       0.059930
      3 C                     0.479587      -0.015068
      4 O                    -0.817559       0.105536
      5 C                    -0.164922       0.017089
      6 C                    -0.182483      -0.008066
      7 C                     0.280496       0.001122
      8 O                    -0.655560       0.001651
      9 O                    -0.669460       0.000388
     10 H                     0.433053      -0.001278
     11 H                     0.149103      -0.002483
     12 H                     0.166833      -0.001123
     13 H                     0.141755      -0.000183
     14 H                     0.164197       0.001034
     15 H                     0.142926      -0.000266
     16 H                     0.429358       0.000095
     17 H                     0.432009      -0.000001
     18 O                    -0.222619       0.296885
     19 O                    -0.343637       0.530330
  --------------------------------------------------------
  Sum of atomic charges =    -1.000000
  Sum of spin   charges =     1.000000

 -----------------------------------------------------------------
                    Cartesian Multipole Moments
 -----------------------------------------------------------------
    Charge (ESU x 10^10)
                -4.8032
    Dipole Moment (Debye)
         X     -12.5037      Y       0.2364      Z     -10.3298
       Tot      16.2205
    Quadrupole Moments (Debye-Ang)
        XX    -109.6920     XY      -6.0997     YY     -53.5409
        XZ     -27.4056     YZ       8.3425     ZZ     -91.3663
    Octopole Moments (Debye-Ang^2)
       XXX    -841.2174    XXY    -130.6721    XYY    -198.0201
       YYY    -105.3612    XXZ    -222.2401    XYZ      -2.4808
       YYZ     -66.4055    XZZ    -307.0932    YZZ     -23.5872
       ZZZ    -394.1101
    Hexadecapole Moments (Debye-Ang^3)
      XXXX   -5732.9016   XXXY   -1377.8678   XXYY   -1184.9604
      XYYY    -699.1162   YYYY   -1089.4677   XXXZ   -1740.4410
      XXYZ    -366.9103   XYYZ    -308.5683   YYYZ    -188.2373
      XXZZ   -1538.6884   XYZZ    -276.1870   YYZZ    -352.9083
      XZZZ   -1457.2138   YZZZ    -431.9712   ZZZZ   -2010.1319
 -----------------------------------------------------------------
 Calculating analytic gradient of the SCF energy
 Gradient of CDS energy
            1           2           3           4           5           6
    1   0.0000479  -0.0003713  -0.0040749   0.0038554   0.0001132   0.0002418
    2   0.0002055   0.0000764   0.0034271  -0.0034862  -0.0001968  -0.0000196
    3   0.0003297  -0.0009412   0.0023212  -0.0020550   0.0000057  -0.0000112
            7           8           9          10          11          12
    1   0.0000753   0.0002582  -0.0001719   0.0001071  -0.0000903   0.0001763
    2   0.0004122   0.0001523  -0.0004387  -0.0004541  -0.0001878   0.0002090
    3   0.0004135  -0.0005701   0.0000469  -0.0002052   0.0003078   0.0000790
           13          14          15          16          17          18
    1   0.0000839   0.0002044  -0.0001677  -0.0003349   0.0001448  -0.0001018
    2  -0.0001445   0.0000704  -0.0000935  -0.0000325   0.0005051  -0.0000110
    3  -0.0001200  -0.0000229  -0.0000700   0.0004065   0.0000374  -0.0000266
           19
    1   0.0000047
    2   0.0000068
    3   0.0000745
 Gradient of SCF Energy
            1           2           3           4           5           6
    1  -0.0033766  -0.0247974   0.0119632   0.0119851   0.0279324   0.0008922
    2  -0.0012489   0.0156710  -0.0143805  -0.0053677   0.0277534  -0.0333151
    3   0.0187401  -0.0055237   0.0026073  -0.0004804   0.0132945  -0.0232748
            7           8           9          10          11          12
    1  -0.0244860   0.0011246  -0.0030782   0.0019914   0.0249117  -0.0022690
    2  -0.0033282   0.0019810  -0.0180477   0.0071039   0.0077321  -0.0234567
    3  -0.0115223  -0.0139189   0.0025409  -0.0064325  -0.0020122   0.0098266
           13          14          15          16          17          18
    1  -0.0187867  -0.0274635   0.0186397   0.0080196  -0.0031857   0.0002114
    2   0.0167108  -0.0044662  -0.0048213   0.0032411   0.0023303   0.0167394
    3   0.0136959   0.0037020   0.0094086  -0.0020228   0.0016360  -0.0079552
           19
    1  -0.0002281
    2   0.0091694
    3  -0.0023090
 Max gradient component =       3.332E-02
 RMS gradient           =       1.356E-02
 Computing fast CPCM-SWIG gradient
 Updating gradient with PCM contributions...
 -- total gradient after adding PCM contribution --
---------------------------------------------------
  Atom         X              Y              Z     
---------------------------------------------------
   1      -0.002067       0.013242       0.009637
   2       0.006676       0.005460       0.006808
   3       0.031971      -0.076427      -0.010135
   4      -0.016066       0.016105       0.011955
   5      -0.007010       0.004831      -0.006967
   6       0.004243       0.009151       0.000557
   7       0.004685       0.001002       0.012163
   8       0.011151       0.001778      -0.008407
   9      -0.003317      -0.013580       0.001853
  10      -0.003003      -0.008237       0.000695
  11      -0.003580      -0.001259      -0.005149
  12      -0.003931       0.003188      -0.004339
  13      -0.000167       0.001625       0.003618
  14      -0.002179      -0.001921      -0.001835
  15      -0.000004       0.001522      -0.006991
  16      -0.004564       0.005009       0.002800
  17      -0.003895       0.006437       0.002532
  18      -0.018940       0.027710      -0.004315
  19       0.009997       0.004363      -0.004482
---------------------------------------------------
 Number of fixed atoms: 0
 Gradient time:  CPU 20.47 s  wall 4.69 s
 Geometry Optimization Parameters
   NAtoms,    NIC,     NZ,  NCons,   NDum,   NFix, NCnnct, MaxDiis
       19     121       0       0       0       0       0       0

 Cartesian Hessian Update
 Hessian updated using BFGS update


** GEOMETRY OPTIMIZATION IN DELOCALIZED INTERNAL COORDINATES **
   Searching for a Minimum

   Optimization Cycle:   2

                       Coordinates (Angstroms)
     ATOM                X               Y               Z
      1  O         3.2964728264   -0.8288761123   -0.7401562796
      2  C         2.4049256928    0.0453482587   -0.0657632640
      3  C         2.7957488642    0.3052205579    1.4142759764
      4  O         1.8414812682    1.1533928814    1.9401808269
      5  C         4.2214736706    0.8650082171    1.4394279069
      6  C         4.7292396162    2.0165765409    1.9351453554
      7  C         4.0502878235    3.1172140832    2.7184668010
      8  O         3.6516640348    2.6337560247    3.9881151247
      9  O         4.9946971652    4.1613095833    2.8824671854
     10  H         3.0465108764   -1.7446259763   -0.4816750783
     11  H         1.3695020120   -0.3484622151   -0.1072778297
     12  H         2.4037503529    1.0100438434   -0.6040532595
     13  H         4.9531072057    0.2240890539    0.9436951494
     14  H         5.7875048062    2.1861307885    1.7352556531
     15  H         3.1841534746    3.4879903826    2.1315522683
     16  H         3.0123395604    3.2886498268    4.3514536820
     17  H         4.4925503375    4.9493939619    3.1913727237
     18  O         2.8667813713   -0.9619557087    2.1115500253
     19  O         1.6691403410   -1.5365843919    2.2880883328
   Point Group: c1    Number of degrees of freedom:    51


   Energy is   -646.233525531

 Hessian updated using BFGS update

 50 Hessian modes will be used to form the next step
  Hessian Eigenvalues:
     0.003386    0.006068    0.009003    0.014022    0.015151    0.015223
     0.015274    0.015293    0.016493    0.031024    0.048520    0.057780
     0.064024    0.073907    0.076361    0.077669    0.091696    0.112061
     0.115158    0.138900    0.159118    0.160000    0.160000    0.160047
     0.182730    0.189090    0.202875    0.206595    0.215629    0.219987
     0.234646    0.279548    0.296566    0.315743    0.317392    0.320727
     0.323483    0.349424    0.351163    0.369554    0.424656    0.446901
     0.450756    0.451599    0.481585    0.489896    0.490166    0.491068
     0.563637    0.651107

 Minimum search - taking simple RFO step
 Searching for Lamda that Minimizes Along All modes
 Value Taken    Lamda =  -0.01856518
 Calculated Step too Large.  Step scaled by  0.801366
 Step Taken.  Stepsize is  0.300000

                             Maximum     Tolerance    Cnvgd?
         Gradient           0.026844      0.000300      NO
         Displacement       0.159837      0.001200      NO
         Energy change     -0.018475      0.000001      NO


 New Cartesian Coordinates Obtained by Inverse Iteration

 Displacement from previous Coordinates is:  0.521317
 Adding empirical dispersion correction 
 ----------------------------------------------------------------
 Doing -D3(BJ) with
 s6  =   1.00000
 s8  =   2.26090
 a1  =   0.55450
 a2  =   3.22970
 -D3 energy without 3body term =     -0.0471576226 hartrees
 ----------------------------------------------------------------
             Standard Nuclear Orientation (Angstroms)
    I     Atom           X                Y                Z
 ----------------------------------------------------------------
    1      O       3.2548681523    -0.8376205531    -0.7842676999
    2      C       2.4019405227     0.0659166172    -0.0645141411
    3      C       2.8021885710     0.3870596995     1.4179106889
    4      O       1.8772174427     1.2274949332     1.9213723798
    5      C       4.2504059105     0.8658997619     1.4414152700
    6      C       4.7580100547     2.0028709100     1.9424849484
    7      C       4.0418774707     3.0945817837     2.7020632778
    8      O       3.5830630735     2.5744479452     3.9522431573
    9      O       4.9900511876     4.1536911750     2.8753277026
   10      H       3.0208456306    -1.7343431966    -0.4897450914
   11      H       1.3658006886    -0.3047426139    -0.0329246924
   12      H       2.4114811680     1.0166078632    -0.6086963523
   13      H       4.9574482761     0.1959368071     0.9374249924
   14      H       5.8243129128     2.1861491644     1.7810235162
   15      H       3.1809313814     3.4610859938     2.1201323078
   16      H       2.9288777630     3.2098515888     4.2970154986
   17      H       4.4853581557     4.9319668724     3.1712208163
   18      O       2.9092109442    -0.9355138964     2.1083384039
   19      O       1.7274419940    -1.5377212556     2.3842963173
 ----------------------------------------------------------------
 Nuclear Repulsion Energy =         649.34046201 hartrees
 There are       44 alpha and       43 beta electrons
 Discretize the solute cavity surface with Lebedev spheres
	Using 110 Lebedev grid points for each H atom
	Using 194 Lebedev grid points for other atoms
	Atomic van der Waals radii will be scaled by 1.20
 Remove points where switching function is < 1.0e-08
 Keep 1568 surface tesserae and discard 1446 interior tesserae
 Molecular Surface Area = 179.673 Angst**2
 Applying Cartesian multipole field
    Component          Value
    ---------          -----
     (2,0,0)        1.00000E-12
     (0,2,0)        2.00000E-11
     (0,0,2)       -3.00000E-11
 Nucleus-field energy     =    -0.0000000160 hartrees
 Requested basis set is 6-31G(d)
 There are 60 shells and 181 basis functions
 A cutoff of  1.0D-12 yielded   1527 shell pairs
 There are     14581 function pairs
 Smallest overlap matrix eigenvalue = 1.78E-03
 Guess MOs from SCF MO coefficient file

 -----------------------------------------------------------------------
  General SCF calculation program by
  Eric Jon Sundstrom, Paul Horn, Yuezhi Mao, Dmitri Zuev, Alec White,
  David Stuck, Shaama M.S., Shane Yost, Joonho Lee, David Small,
  Daniel Levine, Susi Lehtola, Hugh Burton, Evgeny Epifanovsky,
  Bang C. Huynh
 -----------------------------------------------------------------------
 Exchange:  B97-D      Correlation:  B97-D
 Using SG-2 standard quadrature grid
 Dispersion:   Grimme D3
 
 Citation of the SMD model:
 Marenich, A.V.; Cramer, C.J.; Truhlar, D.G.
 J. Phys. Chem. B 2009, 113, 6378-6396.
 iSolventCode=           1
 Solvent: water                                                           
 
 vradii
            1           2           3           4           5           6
    1   1.5200000   1.8500000   1.8500000   1.5200000   1.8500000   1.8500000
            7           8           9          10          11          12
    1   1.8500000   1.5200000   1.5200000   1.2000000   1.2000000   1.2000000
           13          14          15          16          17          18
    1   1.2000000   1.2000000   1.2000000   1.2000000   1.2000000   1.5200000
           19
    1   1.5200000
 A unrestricted SCF calculation will be
 performed using Roothaan-Hall, DIIS, GDM
 SCF converges when RMS gradient is below 1.0e-07
 ---------------------------------------
  Cycle       Energy         DIIS error
 ---------------------------------------
    1    -646.0866957610      9.04e-04  Roothaan Step
 ---------------------------------------
  Cycle       Energy         DIIS error
 ---------------------------------------
    1    -646.1561886376      2.02e-03  
    2    -645.9122513513      4.98e-03  Done DIIS. Switching to GDM
 ---------------------------------------
  Cycle       Energy        RMS Gradient
 ---------------------------------------
    1    -645.9122513513      2.93e-01   Descent step
    2    -646.1690388272      1.20e-01   Descent step
    3    -646.2071618320      1.36e-01   Normal BFGS step
    4    -646.2114979569      2.22e-01   Normal BFGS step
    5    -646.2303045686      1.02e-01   Normal BFGS step
    6    -646.2383713431      5.25e-02   Normal BFGS step
    7    -646.2472275775      3.81e-02   Normal BFGS step
    8    -646.2460969190      3.52e-02  Line search: overstep
    9    -646.2487045024      1.41e-02   Normal BFGS step
   10    -646.2489834034      3.54e-03   Normal BFGS step
   11    -646.2490378592      4.32e-03   Normal BFGS step
   12    -646.2490790408      3.62e-03   Normal BFGS step
   13    -646.2490881534      1.26e-03   Normal BFGS step
   14    -646.2490953608      2.32e-04   Normal BFGS step
   15    -646.2490955373      2.33e-04   Normal BFGS step
   16    -646.2490960970      1.74e-04   Normal BFGS step
   17    -646.2490961086      1.46e-04   Normal BFGS step
   18    -646.2490961411      1.35e-05   Normal BFGS step
   19    -646.2490961423      2.60e-05   Normal BFGS step
   20    -646.2490961435      7.92e-06   Normal BFGS step
   21    -646.2490961436      3.18e-06   Normal BFGS step
   22    -646.2490961437      1.57e-06   Normal BFGS step
   23    -646.2490961437      6.87e-07   Normal BFGS step
   24    -646.2490961437      3.24e-07   Normal BFGS step
   25    -646.2490961437      2.19e-07   Normal BFGS step
   26    -646.2490961437      2.23e-07   Normal BFGS step
   27    -646.2490961437      1.00e-07   Normal BFGS step
   28    -646.2490961437      3.31e-08  Convergence criterion met
 ---------------------------------------
 SCF time:   CPU 432.13s  wall 67.00s 
<S^2> =          0.752658741
(3)  G-ENP(liq) elect-nuc-pol free energy of system     -646.249096144 a.u.
(4)  G-CDS(liq) cavity-dispersion-solvent structure 
     free energy                                                3.6515 kcal/mol
(6)  G-S(liq) free energy of system                     -646.243277086 a.u.
 SCF   energy in the final basis set =     -646.2432770858
 Total energy in the final basis set =     -646.2432770858
 
 --------------------------------------------------------------
 
                    Orbital Energies (a.u.)
 --------------------------------------------------------------
 
 Alpha MOs
 -- Occupied --
-18.8425 -18.7931 -18.7678 -18.7661 -18.7660 -18.6782 -10.0022  -9.9830
 -9.9456  -9.9076  -9.9056  -1.0390  -0.9567  -0.9237  -0.8984  -0.8483
 -0.7508  -0.6961  -0.6263  -0.5955  -0.5240  -0.4784  -0.4610  -0.4554
 -0.4403  -0.4185  -0.4026  -0.3907  -0.3770  -0.3564  -0.3504  -0.3221
 -0.3169  -0.3091  -0.2937  -0.2749  -0.2462  -0.2335  -0.2275  -0.2175
 -0.2048  -0.1916  -0.1705  -0.1511
 -- Virtual --
 -0.0243   0.0686   0.0727   0.0838   0.0991   0.1241   0.1279   0.1466
  0.1567   0.1775   0.1845   0.1950   0.2075   0.2179   0.2249   0.2347
  0.2965   0.3333   0.4121   0.5009   0.5154   0.5250   0.5382   0.5400
  0.5668   0.5678   0.6053   0.6220   0.6394   0.6559   0.6721   0.6993
  0.7091   0.7351   0.7518   0.7617   0.7661   0.7883   0.7964   0.8192
  0.8240   0.8302   0.8487   0.8608   0.8730   0.8835   0.9165   0.9182
  0.9304   0.9556   0.9698   0.9866   0.9947   0.9989   1.0145   1.0316
  1.0609   1.0823   1.1153   1.1294   1.1715   1.1867   1.2277   1.2417
  1.2810   1.3145   1.3366   1.3790   1.4148   1.4443   1.4565   1.4923
  1.5218   1.5559   1.5716   1.5780   1.6072   1.6195   1.6382   1.6676
  1.6873   1.7063   1.7563   1.7648   1.7918   1.7999   1.8123   1.8393
  1.8694   1.8846   1.9005   1.9284   1.9618   1.9880   2.0006   2.0342
  2.0517   2.0672   2.0770   2.0937   2.1039   2.1268   2.1512   2.2390
  2.2647   2.2911   2.3324   2.3627   2.3747   2.3790   2.4085   2.4460
  2.4629   2.4957   2.5150   2.5744   2.5809   2.6285   2.7408   2.7967
  2.8089   2.8412   2.8545   2.9350   2.9836   3.0786   3.3439   3.6229
  3.6582   3.7135   3.7548   4.0370   4.0998   4.2401   4.3321   4.4589
  4.5828
 
 Beta MOs
 -- Occupied --
-18.8369 -18.7849 -18.7678 -18.7659 -18.7659 -18.6771 -10.0022  -9.9831
 -9.9451  -9.9076  -9.9055  -1.0177  -0.9567  -0.9228  -0.8983  -0.8429
 -0.7298  -0.6933  -0.6213  -0.5945  -0.5191  -0.4754  -0.4605  -0.4544
 -0.4349  -0.4154  -0.3938  -0.3798  -0.3709  -0.3506  -0.3373  -0.3171
 -0.3081  -0.3022  -0.2925  -0.2722  -0.2454  -0.2323  -0.2256  -0.2154
 -0.1928  -0.1640  -0.1461
 -- Virtual --
 -0.1301  -0.0225   0.0695   0.0800   0.0939   0.1005   0.1257   0.1289
  0.1496   0.1571   0.1778   0.1856   0.1985   0.2079   0.2187   0.2271
  0.2352   0.2983   0.3341   0.4127   0.5014   0.5158   0.5267   0.5405
  0.5411   0.5674   0.5694   0.6079   0.6230   0.6417   0.6567   0.6726
  0.7012   0.7098   0.7363   0.7589   0.7629   0.7674   0.7896   0.8001
  0.8238   0.8298   0.8337   0.8517   0.8629   0.8744   0.8926   0.9192
  0.9236   0.9376   0.9569   0.9733   0.9895   0.9970   1.0053   1.0195
  1.0368   1.0699   1.0834   1.1160   1.1309   1.1757   1.1925   1.2287
  1.2464   1.2829   1.3159   1.3385   1.3842   1.4193   1.4493   1.4602
  1.4964   1.5266   1.5583   1.5732   1.5810   1.6183   1.6219   1.6472
  1.6699   1.6898   1.7119   1.7645   1.7754   1.7998   1.8029   1.8161
  1.8431   1.8716   1.8877   1.9081   1.9299   1.9666   1.9893   2.0063
  2.0384   2.0540   2.0684   2.0792   2.0985   2.1097   2.1319   2.1609
  2.2439   2.2673   2.2967   2.3340   2.3658   2.3794   2.3951   2.4132
  2.4468   2.4638   2.4996   2.5158   2.5791   2.5834   2.6311   2.7423
  2.7982   2.8101   2.8423   2.8580   2.9405   2.9900   3.0817   3.3705
  3.6242   3.6594   3.7140   3.7707   4.0399   4.1003   4.2439   4.3332
  4.4595   4.5831
 --------------------------------------------------------------
 
          Ground-State Mulliken Net Atomic Charges

     Atom                 Charge (a.u.)    Spin (a.u.)
  --------------------------------------------------------
      1 O                    -0.656024       0.012316
      2 C                    -0.112850       0.059411
      3 C                     0.465199      -0.014307
      4 O                    -0.787319       0.083881
      5 C                    -0.160629       0.018100
      6 C                    -0.179953      -0.009347
      7 C                     0.284046       0.001225
      8 O                    -0.660926       0.001844
      9 O                    -0.673240       0.000270
     10 H                     0.432235      -0.001181
     11 H                     0.148946      -0.002609
     12 H                     0.167056      -0.000434
     13 H                     0.144169      -0.000401
     14 H                     0.162886       0.001259
     15 H                     0.146405      -0.000256
     16 H                     0.428178       0.000078
     17 H                     0.431892      -0.000001
     18 O                    -0.234510       0.315234
     19 O                    -0.345560       0.534918
  --------------------------------------------------------
  Sum of atomic charges =    -1.000000
  Sum of spin   charges =     1.000000

 -----------------------------------------------------------------
                    Cartesian Multipole Moments
 -----------------------------------------------------------------
    Charge (ESU x 10^10)
                -4.8032
    Dipole Moment (Debye)
         X     -12.8363      Y       0.3727      Z     -10.2556
       Tot      16.4343
    Quadrupole Moments (Debye-Ang)
        XX    -110.6727     XY      -5.7973     YY     -54.5946
        XZ     -28.0222     YZ       8.0843     ZZ     -92.4616
    Octopole Moments (Debye-Ang^2)
       XXX    -843.0686    XXY    -130.0493    XYY    -202.5327
       YYY    -110.7865    XXZ    -224.1270    XYZ      -3.8607
       YYZ     -71.1548    XZZ    -311.9173    YZZ     -25.7847
       ZZZ    -398.6183
    Hexadecapole Moments (Debye-Ang^3)
      XXXX   -5727.6045   XXXY   -1368.3307   XXYY   -1196.4901
      XYYY    -710.9332   YYYY   -1100.1808   XXXZ   -1738.8018
      XXYZ    -367.9718   XYYZ    -326.0613   YYYZ    -205.7498
      XXZZ   -1550.5768   XYZZ    -283.8389   YYZZ    -375.4735
      XZZZ   -1472.3055   YZZZ    -440.7471   ZZZZ   -2036.2865
 -----------------------------------------------------------------
 Calculating analytic gradient of the SCF energy
 Gradient of CDS energy
            1           2           3           4           5           6
    1   0.0001268  -0.0004682  -0.0032015   0.0029017   0.0001209   0.0002528
    2   0.0001682   0.0000800   0.0027275  -0.0027253  -0.0001938  -0.0000389
    3   0.0002694  -0.0009281   0.0018207  -0.0015309   0.0000112  -0.0000103
            7           8           9          10          11          12
    1   0.0000903   0.0001407  -0.0000120   0.0001007  -0.0000612   0.0001873
    2   0.0003963   0.0000340  -0.0002707  -0.0004622  -0.0001511   0.0001811
    3   0.0000101  -0.0002349   0.0000622  -0.0002012   0.0003264   0.0000669
           13          14          15          16          17          18
    1   0.0000754   0.0002073  -0.0001706  -0.0003510   0.0001372  -0.0000955
    2  -0.0001614   0.0000827  -0.0001124  -0.0000303   0.0005088  -0.0000135
    3  -0.0001186  -0.0000125  -0.0000175   0.0003954   0.0000502  -0.0000312
           19
    1   0.0000191
    2  -0.0000191
    3   0.0000726
 Gradient of SCF Energy
            1           2           3           4           5           6
    1  -0.0009024  -0.0310298  -0.0014216   0.0233345   0.0288412  -0.0057270
    2  -0.0168862   0.0196993   0.0146275  -0.0132201   0.0314964  -0.0402585
    3   0.0142740  -0.0079774   0.0116257  -0.0067649   0.0173944  -0.0242426
            7           8           9          10          11          12
    1  -0.0254825  -0.0135606  -0.0015845   0.0044283   0.0286134  -0.0015889
    2  -0.0019146   0.0008773  -0.0034400   0.0170600   0.0097321  -0.0273867
    3  -0.0185806  -0.0061828   0.0017685  -0.0102906  -0.0013949   0.0134496
           13          14          15          16          17          18
    1  -0.0166828  -0.0253654   0.0199441   0.0145412   0.0021065   0.0112846
    2   0.0157503  -0.0039981  -0.0065765  -0.0029034  -0.0055180   0.0124860
    3   0.0120759   0.0028322   0.0131042  -0.0046216  -0.0016247  -0.0059869
           19
    1  -0.0097484
    2   0.0003732
    3   0.0011425
 Max gradient component =       4.026E-02
 RMS gradient           =       1.541E-02
 Computing fast CPCM-SWIG gradient
 Updating gradient with PCM contributions...
 -- total gradient after adding PCM contribution --
---------------------------------------------------
  Atom         X              Y              Z     
---------------------------------------------------
   1       0.001417      -0.003132       0.001972
   2      -0.000108       0.007490       0.003276
   3       0.021152      -0.049000      -0.000964
   4      -0.010523       0.017725       0.008306
   5      -0.004343       0.007837      -0.001337
   6      -0.001656      -0.000423      -0.001279
   7       0.001431       0.001499       0.005389
   8      -0.004157      -0.000879      -0.002319
   9       0.000155       0.001685      -0.000322
  10      -0.000316       0.001300      -0.002279
  11       0.000222       0.001064      -0.000740
  12      -0.001899      -0.000963       0.000084
  13       0.001815      -0.000782       0.000865
  14       0.000285      -0.000615      -0.001468
  15       0.000559      -0.000221      -0.002208
  16       0.000951      -0.000939       0.000194
  17       0.001119      -0.001230      -0.000534
  18      -0.005430       0.026158      -0.006688
  19      -0.000673      -0.006573       0.000051
---------------------------------------------------
 Number of fixed atoms: 0
 Gradient time:  CPU 20.71 s  wall 4.72 s
 Geometry Optimization Parameters
   NAtoms,    NIC,     NZ,  NCons,   NDum,   NFix, NCnnct, MaxDiis
       19     121       0       0       0       0       0       0

 Cartesian Hessian Update
 Hessian updated using BFGS update


** GEOMETRY OPTIMIZATION IN DELOCALIZED INTERNAL COORDINATES **
   Searching for a Minimum

   Optimization Cycle:   3

                       Coordinates (Angstroms)
     ATOM                X               Y               Z
      1  O         3.2548681523   -0.8376205531   -0.7842676999
      2  C         2.4019405227    0.0659166172   -0.0645141411
      3  C         2.8021885710    0.3870596995    1.4179106889
      4  O         1.8772174427    1.2274949332    1.9213723798
      5  C         4.2504059105    0.8658997619    1.4414152700
      6  C         4.7580100547    2.0028709100    1.9424849484
      7  C         4.0418774707    3.0945817837    2.7020632778
      8  O         3.5830630735    2.5744479452    3.9522431573
      9  O         4.9900511876    4.1536911750    2.8753277026
     10  H         3.0208456306   -1.7343431966   -0.4897450914
     11  H         1.3658006886   -0.3047426139   -0.0329246924
     12  H         2.4114811680    1.0166078632   -0.6086963523
     13  H         4.9574482761    0.1959368071    0.9374249924
     14  H         5.8243129128    2.1861491644    1.7810235162
     15  H         3.1809313814    3.4610859938    2.1201323078
     16  H         2.9288777630    3.2098515888    4.2970154986
     17  H         4.4853581557    4.9319668724    3.1712208163
     18  O         2.9092109442   -0.9355138964    2.1083384039
     19  O         1.7274419940   -1.5377212556    2.3842963173
   Point Group: c1    Number of degrees of freedom:    51


   Energy is   -646.243277086

 Hessian updated using BFGS update

 51 Hessian modes will be used to form the next step
  Hessian Eigenvalues:
     0.003386    0.006050    0.008885    0.013517    0.015048    0.015190
     0.015259    0.015293    0.016491    0.031487    0.048569    0.053594
     0.058390    0.074818    0.077631    0.079950    0.090987    0.109402
     0.116389    0.139012    0.157505    0.160000    0.160000    0.160003
     0.160160    0.187294    0.195934    0.200396    0.206068    0.215935
     0.219988    0.264645    0.277386    0.301061    0.303122    0.316210
     0.320614    0.322820    0.332720    0.351158    0.353784    0.435505
     0.450207    0.451567    0.452994    0.480637    0.490041    0.490248
     0.516150    0.594894    0.657966

 Minimum search - taking simple RFO step
 Searching for Lamda that Minimizes Along All modes
 Value Taken    Lamda =  -0.01073967
 Calculated Step too Large.  Step scaled by  0.603301
 Step Taken.  Stepsize is  0.300000

                             Maximum     Tolerance    Cnvgd?
         Gradient           0.016227      0.000300      NO
         Displacement       0.123343      0.001200      NO
         Energy change     -0.009752      0.000001      NO


 New Cartesian Coordinates Obtained by Inverse Iteration

 Displacement from previous Coordinates is:  0.569812
 Adding empirical dispersion correction 
 ----------------------------------------------------------------
 Doing -D3(BJ) with
 s6  =   1.00000
 s8  =   2.26090
 a1  =   0.55450
 a2  =   3.22970
 -D3 energy without 3body term =     -0.0471963164 hartrees
 ----------------------------------------------------------------
             Standard Nuclear Orientation (Angstroms)
    I     Atom           X                Y                Z
 ----------------------------------------------------------------
    1      O       3.2701291540    -0.8791604611    -0.7820238392
    2      C       2.4099144248     0.0501524413    -0.0983809487
    3      C       2.7857581843     0.4482064914     1.3820450374
    4      O       1.8606025932     1.2639129631     1.8435529203
    5      C       4.2488601020     0.8761250029     1.4290213186
    6      C       4.7613551356     2.0029276289     1.9425710256
    7      C       4.0377637404     3.0741168331     2.7223027176
    8      O       3.6675463276     2.5485295942     4.0040244938
    9      O       4.9555195207     4.1712343040     2.8409555017
   10      H       3.0563451819    -1.7567914444    -0.4271775739
   11      H       1.3781850989    -0.3256777018    -0.0447645645
   12      H       2.4293380821     0.9764230791    -0.6799010609
   13      H       4.9368289257     0.1983768275     0.9093766943
   14      H       5.8253593851     2.2040002911     1.7828665837
   15      H       3.1316859393     3.4100649022     2.1996199616
   16      H       3.0085102483     3.1620954809     4.3728023375
   17      H       4.4370916179     4.9284638516     3.1610316555
   18      O       2.8891930144    -0.9017680733     2.0954391887
   19      O       1.6813446236    -1.4276124109     2.4187598509
 ----------------------------------------------------------------
 Nuclear Repulsion Energy =         649.21023057 hartrees
 There are       44 alpha and       43 beta electrons
 Discretize the solute cavity surface with Lebedev spheres
	Using 110 Lebedev grid points for each H atom
	Using 194 Lebedev grid points for other atoms
	Atomic van der Waals radii will be scaled by 1.20
 Remove points where switching function is < 1.0e-08
 Keep 1563 surface tesserae and discard 1451 interior tesserae
 Molecular Surface Area = 179.695 Angst**2
 Applying Cartesian multipole field
    Component          Value
    ---------          -----
     (2,0,0)        1.00000E-12
     (0,2,0)        2.00000E-11
     (0,0,2)       -3.00000E-11
 Nucleus-field energy     =    -0.0000000163 hartrees
 Requested basis set is 6-31G(d)
 There are 60 shells and 181 basis functions
 A cutoff of  1.0D-12 yielded   1524 shell pairs
 There are     14543 function pairs
 Smallest overlap matrix eigenvalue = 1.79E-03
 Guess MOs from SCF MO coefficient file

 -----------------------------------------------------------------------
  General SCF calculation program by
  Eric Jon Sundstrom, Paul Horn, Yuezhi Mao, Dmitri Zuev, Alec White,
  David Stuck, Shaama M.S., Shane Yost, Joonho Lee, David Small,
  Daniel Levine, Susi Lehtola, Hugh Burton, Evgeny Epifanovsky,
  Bang C. Huynh
 -----------------------------------------------------------------------
 Exchange:  B97-D      Correlation:  B97-D
 Using SG-2 standard quadrature grid
 Dispersion:   Grimme D3
 
 Citation of the SMD model:
 Marenich, A.V.; Cramer, C.J.; Truhlar, D.G.
 J. Phys. Chem. B 2009, 113, 6378-6396.
 iSolventCode=           1
 Solvent: water                                                           
 
 vradii
            1           2           3           4           5           6
    1   1.5200000   1.8500000   1.8500000   1.5200000   1.8500000   1.8500000
            7           8           9          10          11          12
    1   1.8500000   1.5200000   1.5200000   1.2000000   1.2000000   1.2000000
           13          14          15          16          17          18
    1   1.2000000   1.2000000   1.2000000   1.2000000   1.2000000   1.5200000
           19
    1   1.5200000
 A unrestricted SCF calculation will be
 performed using Roothaan-Hall, DIIS, GDM
 SCF converges when RMS gradient is below 1.0e-07
 ---------------------------------------
  Cycle       Energy         DIIS error
 ---------------------------------------
    1    -646.0954243652      8.67e-04  Roothaan Step
 ---------------------------------------
  Cycle       Energy         DIIS error
 ---------------------------------------
    1    -646.2168868904      1.13e-03  
    2    -646.2070704011      1.89e-03  Done DIIS. Switching to GDM
 ---------------------------------------
  Cycle       Energy        RMS Gradient
 ---------------------------------------
    1    -646.2070704011      8.12e-02   Descent step
    2    -646.1883284037      1.97e-01  Line search: overstep
    3    -646.2506094002      2.33e-02   Normal BFGS step
    4    -646.2456444345      6.54e-02  Line search: overstep
    5    -646.2535574066      1.30e-02   Normal BFGS step
    6    -646.2532709936      2.22e-02  Line search: overstep
    7    -646.2540118823      1.24e-02   Normal BFGS step
    8    -646.2540166880      1.03e-02   Normal BFGS step
    9    -646.2541342073      4.79e-03   Normal BFGS step
   10    -646.2541483799      2.22e-03   Normal BFGS step
   11    -646.2541670960      1.12e-03   Normal BFGS step
   12    -646.2541655054      1.26e-03  Line search: overstep
   13    -646.2541694347      3.41e-04   Normal BFGS step
   14    -646.2541699817      1.92e-04   Normal BFGS step
   15    -646.2541702027      2.03e-04   Normal BFGS step
   16    -646.2541703073      4.06e-05   Normal BFGS step
   17    -646.2541703112      3.54e-05   Normal BFGS step
   18    -646.2541703229      1.50e-05   Normal BFGS step
   19    -646.2541703232      5.92e-06   Normal BFGS step
   20    -646.2541703235      2.07e-06   Normal BFGS step
   21    -646.2541703236      1.58e-06   Normal BFGS step
   22    -646.2541703236      5.81e-07   Normal BFGS step
   23    -646.2541703236      4.27e-07   Normal BFGS step
   24    -646.2541703236      8.48e-08  Convergence criterion met
 ---------------------------------------
 SCF time:   CPU 386.92s  wall 71.00s 
<S^2> =          0.752826509
(3)  G-ENP(liq) elect-nuc-pol free energy of system     -646.254170324 a.u.
(4)  G-CDS(liq) cavity-dispersion-solvent structure 
     free energy                                                3.7907 kcal/mol
(6)  G-S(liq) free energy of system                     -646.248129434 a.u.
 SCF   energy in the final basis set =     -646.2481294340
 Total energy in the final basis set =     -646.2481294340
 
 --------------------------------------------------------------
 
                    Orbital Energies (a.u.)
 --------------------------------------------------------------
 
 Alpha MOs
 -- Occupied --
-18.8396 -18.7928 -18.7671 -18.7659 -18.7658 -18.6819 -10.0013  -9.9810
 -9.9439  -9.9067  -9.9043  -1.0341  -0.9558  -0.9228  -0.8978  -0.8594
 -0.7463  -0.6959  -0.6248  -0.5947  -0.5227  -0.4774  -0.4601  -0.4542
 -0.4372  -0.4174  -0.3984  -0.3891  -0.3771  -0.3558  -0.3490  -0.3223
 -0.3169  -0.3133  -0.2944  -0.2779  -0.2462  -0.2342  -0.2275  -0.2180
 -0.2061  -0.1918  -0.1740  -0.1525
 -- Virtual --
 -0.0238   0.0690   0.0745   0.0853   0.1005   0.1244   0.1300   0.1446
  0.1575   0.1770   0.1838   0.1873   0.2053   0.2167   0.2223   0.2339
  0.3092   0.3357   0.4105   0.5034   0.5174   0.5239   0.5394   0.5421
  0.5666   0.5696   0.6096   0.6243   0.6418   0.6600   0.6740   0.6981
  0.7106   0.7402   0.7533   0.7603   0.7698   0.7859   0.7966   0.8179
  0.8232   0.8312   0.8456   0.8614   0.8764   0.8859   0.9151   0.9201
  0.9327   0.9546   0.9727   0.9929   0.9942   0.9978   1.0137   1.0337
  1.0627   1.0862   1.1184   1.1303   1.1589   1.1890   1.2291   1.2424
  1.2782   1.3167   1.3328   1.3748   1.4172   1.4407   1.4623   1.4996
  1.5188   1.5560   1.5687   1.5738   1.5991   1.6184   1.6403   1.6670
  1.6886   1.7035   1.7550   1.7652   1.7901   1.7931   1.8153   1.8458
  1.8680   1.8798   1.8923   1.9281   1.9541   1.9873   2.0015   2.0313
  2.0628   2.0672   2.0771   2.1022   2.1103   2.1277   2.1538   2.2374
  2.2676   2.2885   2.3434   2.3579   2.3788   2.3850   2.4085   2.4521
  2.4658   2.5130   2.5200   2.5571   2.5893   2.6277   2.7449   2.8039
  2.8097   2.8431   2.8562   2.9209   2.9798   3.0839   3.3435   3.6272
  3.6533   3.7127   3.7450   4.0740   4.1067   4.2471   4.3421   4.4562
  4.5769
 
 Beta MOs
 -- Occupied --
-18.8337 -18.7845 -18.7671 -18.7659 -18.7656 -18.6810 -10.0013  -9.9811
 -9.9435  -9.9067  -9.9042  -1.0119  -0.9557  -0.9219  -0.8978  -0.8552
 -0.7253  -0.6920  -0.6196  -0.5936  -0.5183  -0.4746  -0.4598  -0.4530
 -0.4324  -0.4136  -0.3907  -0.3786  -0.3691  -0.3499  -0.3361  -0.3171
 -0.3103  -0.3031  -0.2930  -0.2755  -0.2453  -0.2330  -0.2262  -0.2158
 -0.1958  -0.1664  -0.1495
 -- Virtual --
 -0.1273  -0.0219   0.0696   0.0813   0.0965   0.1023   0.1266   0.1310
  0.1477   0.1578   0.1772   0.1857   0.1893   0.2057   0.2172   0.2245
  0.2342   0.3107   0.3363   0.4110   0.5037   0.5178   0.5254   0.5419
  0.5429   0.5670   0.5714   0.6121   0.6255   0.6438   0.6609   0.6746
  0.6998   0.7116   0.7415   0.7596   0.7625   0.7713   0.7872   0.8006
  0.8210   0.8311   0.8342   0.8486   0.8632   0.8778   0.8936   0.9178
  0.9256   0.9422   0.9554   0.9767   0.9939   0.9976   1.0049   1.0185
  1.0367   1.0727   1.0876   1.1191   1.1320   1.1617   1.1955   1.2304
  1.2469   1.2799   1.3189   1.3346   1.3794   1.4219   1.4459   1.4653
  1.5045   1.5234   1.5589   1.5713   1.5773   1.6084   1.6212   1.6473
  1.6693   1.6908   1.7088   1.7652   1.7757   1.7941   1.8001   1.8181
  1.8508   1.8696   1.8856   1.8985   1.9300   1.9595   1.9884   2.0063
  2.0356   2.0633   2.0700   2.0790   2.1057   2.1174   2.1336   2.1624
  2.2426   2.2699   2.2939   2.3446   2.3628   2.3809   2.4036   2.4134
  2.4529   2.4672   2.5158   2.5206   2.5620   2.5909   2.6304   2.7464
  2.8047   2.8110   2.8447   2.8594   2.9260   2.9875   3.0863   3.3708
  3.6284   3.6543   3.7132   3.7619   4.0761   4.1076   4.2508   4.3430
  4.4569   4.5772
 --------------------------------------------------------------
 
          Ground-State Mulliken Net Atomic Charges

     Atom                 Charge (a.u.)    Spin (a.u.)
  --------------------------------------------------------
      1 O                    -0.657245       0.010588
      2 C                    -0.113410       0.057323
      3 C                     0.462485      -0.013695
      4 O                    -0.769299       0.063656
      5 C                    -0.162358       0.018041
      6 C                    -0.179410      -0.010092
      7 C                     0.279896       0.001399
      8 O                    -0.664860       0.000818
      9 O                    -0.674548       0.000118
     10 H                     0.430961      -0.001070
     11 H                     0.147400      -0.002953
     12 H                     0.165225      -0.000242
     13 H                     0.145795      -0.000587
     14 H                     0.161763       0.001417
     15 H                     0.148128      -0.000241
     16 H                     0.428625       0.000022
     17 H                     0.431338       0.000001
     18 O                    -0.237521       0.332136
     19 O                    -0.342969       0.543361
  --------------------------------------------------------
  Sum of atomic charges =    -1.000000
  Sum of spin   charges =     1.000000

 -----------------------------------------------------------------
                    Cartesian Multipole Moments
 -----------------------------------------------------------------
    Charge (ESU x 10^10)
                -4.8032
    Dipole Moment (Debye)
         X     -12.9133      Y       0.0917      Z      -9.8496
       Tot      16.2412
    Quadrupole Moments (Debye-Ang)
        XX    -111.6474     XY      -6.9718     YY     -55.5732
        XZ     -27.3659     YZ       7.6861     ZZ     -91.1683
    Octopole Moments (Debye-Ang^2)
       XXX    -848.9081    XXY    -136.5168    XYY    -207.5512
       YYY    -122.1724    XXZ    -224.4311    XYZ      -6.0713
       YYZ     -70.4105    XZZ    -309.8023    YZZ     -24.1104
       ZZZ    -391.6456
    Hexadecapole Moments (Debye-Ang^3)
      XXXX   -5756.2227   XXXY   -1400.2145   XXYY   -1221.2122
      XYYY    -754.5428   YYYY   -1124.7074   XXXZ   -1748.5970
      XXYZ    -382.0780   XYYZ    -328.7829   YYYZ    -228.7174
      XXZZ   -1554.9093   XYZZ    -281.2868   YYZZ    -369.8803
      XZZZ   -1459.5308   YZZZ    -432.1188   ZZZZ   -2016.0087
 -----------------------------------------------------------------
 Calculating analytic gradient of the SCF energy
 Gradient of CDS energy
            1           2           3           4           5           6
    1   0.0001281  -0.0004753  -0.0024755   0.0021073   0.0001377   0.0002684
[...]
  1.6570   1.6804   1.6996   1.7197   1.7661   1.7778   1.8131   1.8325
  1.8381   1.8719   1.8745   1.8823   1.9055   1.9460   1.9976   2.0032
  2.0176   2.0213   2.0549   2.0715   2.1235   2.1461   2.2163   2.2225
  2.2311   2.2660   2.3209   2.3608   2.3829   2.3920   2.4179   2.4353
  2.4383   2.4756   2.4918   2.5455   2.5822   2.6082   2.6997   2.7343
  2.8142   2.8280   2.8518   2.8951   2.9305   3.1210   3.2791   3.6174
  3.6272   3.7023   3.7318   4.1022   4.1249   4.2398   4.3315   4.4009
  4.5649
 
 Beta MOs
 -- Occupied --
-18.7867 -18.7758 -18.7687 -18.7667 -18.7618 -18.7344 -10.0014  -9.9748
 -9.9449  -9.9121  -9.9077  -0.9818  -0.9569  -0.9253  -0.9106  -0.8980
 -0.7069  -0.6390  -0.6267  -0.5981  -0.5273  -0.4749  -0.4601  -0.4500
 -0.4299  -0.3948  -0.3849  -0.3766  -0.3524  -0.3391  -0.3380  -0.3256
 -0.3179  -0.3029  -0.2956  -0.2879  -0.2816  -0.2417  -0.2345  -0.2242
 -0.2198  -0.1806  -0.1165
 -- Virtual --
 -0.0968  -0.0648   0.0385   0.0671   0.1047   0.1071   0.1221   0.1338
  0.1521   0.1653   0.1722   0.1808   0.1992   0.2015   0.2131   0.2247
  0.2490   0.3124   0.3672   0.3865   0.4897   0.5062   0.5302   0.5417
  0.5532   0.5629   0.5751   0.6074   0.6265   0.6413   0.6652   0.6764
  0.6880   0.7068   0.7336   0.7542   0.7563   0.7711   0.7843   0.7986
  0.8147   0.8247   0.8379   0.8473   0.8604   0.8786   0.8866   0.9092
  0.9250   0.9386   0.9511   0.9698   0.9759   0.9951   1.0147   1.0253
  1.0456   1.0509   1.0793   1.1174   1.1544   1.1636   1.1722   1.1871
  1.2330   1.2455   1.2965   1.3224   1.3426   1.3789   1.4282   1.4441
  1.4688   1.5137   1.5238   1.5372   1.5515   1.5788   1.5886   1.6155
  1.6500   1.6665   1.6918   1.7034   1.7214   1.7731   1.7778   1.8126
  1.8321   1.8410   1.8758   1.8801   1.9015   1.9080   1.9568   1.9994
  2.0102   2.0197   2.0276   2.0555   2.0719   2.1227   2.1461   2.2183
  2.2312   2.2430   2.2661   2.3199   2.3608   2.3831   2.3926   2.4172
  2.4374   2.4709   2.4845   2.4936   2.5451   2.5801   2.6081   2.6988
  2.7343   2.8141   2.8279   2.8513   2.9122   2.9300   3.1206   3.3104
  3.6195   3.6500   3.7042   3.7327   4.1013   4.1250   4.2400   4.3314
  4.3992   4.5630
 --------------------------------------------------------------
 
          Ground-State Mulliken Net Atomic Charges

     Atom                 Charge (a.u.)    Spin (a.u.)
  --------------------------------------------------------
      1 O                    -0.674024       0.008468
      2 C                    -0.128101       0.003225
      3 C                     0.401099      -0.054884
      4 O                    -0.621555      -0.023277
      5 C                    -0.172435       0.018576
      6 C                    -0.173229      -0.064805
      7 C                     0.270456       0.002930
      8 O                    -0.665815      -0.001672
      9 O                    -0.669835      -0.000771
     10 H                     0.426718       0.002328
     11 H                     0.143708      -0.002158
     12 H                     0.179113      -0.001864
     13 H                     0.151271      -0.000538
     14 H                     0.167297       0.003593
     15 H                     0.154067      -0.000375
     16 H                     0.430037      -0.000818
     17 H                     0.432989       0.000052
     18 O                    -0.312848       0.527067
     19 O                    -0.338913       0.584922
  --------------------------------------------------------
  Sum of atomic charges =    -1.000000
  Sum of spin   charges =     1.000000

 -----------------------------------------------------------------
                    Cartesian Multipole Moments
 -----------------------------------------------------------------
    Charge (ESU x 10^10)
                -4.8032
    Dipole Moment (Debye)
         X     -13.1268      Y       2.7321      Z      -9.3383
       Tot      16.3396
    Quadrupole Moments (Debye-Ang)
        XX    -111.1270     XY       0.4731     YY     -60.0316
        XZ     -27.2883     YZ      11.0206     ZZ     -87.8875
    Octopole Moments (Debye-Ang^2)
       XXX    -837.6182    XXY    -116.4926    XYY    -219.7389
       YYY    -133.9542    XXZ    -224.1981    XYZ       3.7457
       YYZ     -60.8283    XZZ    -302.0397    YZZ      -2.3351
       ZZZ    -375.9906
    Hexadecapole Moments (Debye-Ang^3)
      XXXX   -5672.1032   XXXY   -1343.2340   XXYY   -1254.1733
      XYYY    -780.0245   YYYY   -1221.3327   XXXZ   -1749.0417
      XXYZ    -345.9579   XYYZ    -298.1473   YYYZ    -239.4913
      XXZZ   -1540.9657   XYZZ    -213.5820   YYZZ    -343.6179
      XZZZ   -1424.4673   YZZZ    -319.6180   ZZZZ   -1963.3756
 -----------------------------------------------------------------
 Calculating analytic gradient of the SCF energy
 Gradient of CDS energy
            1           2           3           4           5           6
    1   0.0001699  -0.0005399  -0.0015594   0.0011196   0.0001615   0.0002914
    2   0.0002703  -0.0003928   0.0010641  -0.0008114  -0.0001377  -0.0000736
    3   0.0000988  -0.0009069   0.0010341  -0.0008062  -0.0001020   0.0000242
            7           8           9          10          11          12
    1   0.0000426   0.0001541   0.0000149   0.0001431  -0.0000375   0.0001494
    2   0.0004195   0.0000804  -0.0002873  -0.0004486   0.0000369   0.0001013
    3  -0.0000122  -0.0002036   0.0000564   0.0000097   0.0003281  -0.0001011
           13          14          15          16          17          18
    1   0.0000607   0.0002149  -0.0000950  -0.0003238   0.0001095  -0.0001156
    2  -0.0001148   0.0000696  -0.0001402  -0.0000925   0.0005070   0.0000425
    3  -0.0001078   0.0000316   0.0000328   0.0004070   0.0000976   0.0000905
           19
    1   0.0000395
    2  -0.0000930
    3   0.0000290
 Gradient of SCF Energy
            1           2           3           4           5           6
    1   0.0031106  -0.0245540  -0.0321671   0.0591987   0.0165302  -0.0041746
    2  -0.0045909   0.0040749   0.0463193  -0.0470886   0.0119849  -0.0256446
    3   0.0337909  -0.0070574   0.0290538  -0.0250326   0.0153007  -0.0239249
            7           8           9          10          11          12
    1  -0.0230055  -0.0083275  -0.0002131  -0.0012933   0.0262854   0.0014154
    2  -0.0026201  -0.0003695  -0.0047421   0.0091534   0.0109240  -0.0133077
    3  -0.0195981  -0.0018446   0.0003977  -0.0265732  -0.0066068   0.0189414
           13          14          15          16          17          18
    1  -0.0175963  -0.0259014   0.0192244   0.0112462   0.0003147   0.0032631
    2   0.0157578  -0.0009099  -0.0056973   0.0005422  -0.0033967   0.0042070
    3   0.0139060  -0.0007494   0.0107414  -0.0050717  -0.0011854  -0.0040710
           19
    1  -0.0033559
    2   0.0054038
    3  -0.0004167
 Max gradient component =       5.920E-02
 RMS gradient           =       1.850E-02
 Computing fast CPCM-SWIG gradient
 Updating gradient with PCM contributions...
 -- total gradient after adding PCM contribution --
---------------------------------------------------
  Atom         X              Y              Z     
---------------------------------------------------
   1      -0.000021       0.000018      -0.000063
   2      -0.000007       0.000019       0.000014
   3      -0.000035      -0.000000      -0.000007
   4       0.000014      -0.000009       0.000019
   5       0.000022      -0.000032       0.000037
   6       0.000006      -0.000000      -0.000017
   7       0.000004      -0.000025       0.000002
   8       0.000012      -0.000005       0.000006
   9       0.000011      -0.000019       0.000000
  10      -0.000000       0.000010       0.000027
  11      -0.000014      -0.000002      -0.000015
  12      -0.000005       0.000018       0.000000
  13      -0.000008       0.000008      -0.000002
  14      -0.000004       0.000016      -0.000019
  15       0.000003       0.000017       0.000006
  16      -0.000009      -0.000019       0.000004
  17      -0.000001      -0.000006       0.000025
  18       0.000002      -0.000022       0.000026
  19       0.000033       0.000034      -0.000044
---------------------------------------------------
 Number of fixed atoms: 0
 Gradient time:  CPU 18.00 s  wall 5.75 s
 Geometry Optimization Parameters
   NAtoms,    NIC,     NZ,  NCons,   NDum,   NFix, NCnnct, MaxDiis
       19     121       0       0       0       0       0       0

 Cartesian Hessian Update
 Hessian updated using BFGS update


** GEOMETRY OPTIMIZATION IN DELOCALIZED INTERNAL COORDINATES **
   Searching for a Minimum

   Optimization Cycle:  25

                       Coordinates (Angstroms)
     ATOM                X               Y               Z
      1  O         3.2237552982   -1.1008090563   -0.5317109093
      2  C         2.3343748573   -0.0127118280   -0.2696397506
      3  C         2.7509920061    0.9022986078    0.8878393084
      4  O         1.8433582354    1.5343799202    1.4824589156
      5  C         4.1930782678    1.1289052054    1.0826734297
      6  C         4.7756050789    2.0511560253    1.8866244522
      7  C         4.0659179434    3.0188351167    2.7938194831
      8  O         3.7419691775    2.3399703235    4.0177278405
      9  O         4.9676205259    4.1051774742    3.0205946924
     10  H         3.3127999893   -1.5287622992    0.3472147573
     11  H         1.3126885466   -0.3664435721   -0.0440925625
     12  H         2.2855870129    0.5830420077   -1.1957644226
     13  H         4.8431078948    0.4888045286    0.4843010892
     14  H         5.8664834599    2.1078567884    1.9192648020
     15  H         3.1381749082    3.3928546458    2.3408677600
     16  H         3.0582781496    2.8811038343    4.4574214229
     17  H         4.4438187924    4.8183338657    3.4317398885
     18  O         2.9294833441   -1.1321625885    2.2675798590
     19  O         1.6842378116   -1.1882093995    2.6932012443
   Point Group: c1    Number of degrees of freedom:    51


   Energy is   -646.273601130

 Hessian updated using BFGS update

 51 Hessian modes will be used to form the next step
  Hessian Eigenvalues:
     0.001227    0.001999    0.005420    0.008805    0.011194    0.013346
     0.014647    0.015259    0.016413    0.017775    0.032461    0.050043
     0.055621    0.058373    0.075392    0.080061    0.082114    0.092196
     0.115134    0.123976    0.143911    0.153898    0.159870    0.160135
     0.160324    0.169408    0.182808    0.194817    0.202681    0.206546
     0.219202    0.241291    0.266966    0.294477    0.313793    0.320323
     0.321533    0.322938    0.329494    0.351287    0.354500    0.404090
     0.448571    0.455049    0.465771    0.490215    0.493150    0.510423
     0.590458    0.646297    0.718067

 Minimum search - taking simple RFO step
 Searching for Lamda that Minimizes Along All modes
 Value Taken    Lamda =  -0.00000041
 Step Taken.  Stepsize is  0.008017

                             Maximum     Tolerance    Cnvgd?
         Gradient           0.000105      0.000300     YES
         Displacement       0.004150      0.001200      NO
         Energy change     -0.000001      0.000001     YES

 Final energy is   -646.273601129702     


 ******************************
 **  OPTIMIZATION CONVERGED  **
 ******************************

                       Coordinates (Angstroms)
     ATOM                X               Y               Z
      1  O         3.2237552982   -1.1008090563   -0.5317109093
      2  C         2.3343748573   -0.0127118280   -0.2696397506
      3  C         2.7509920061    0.9022986078    0.8878393084
      4  O         1.8433582354    1.5343799202    1.4824589156
      5  C         4.1930782678    1.1289052054    1.0826734297
      6  C         4.7756050789    2.0511560253    1.8866244522
      7  C         4.0659179434    3.0188351167    2.7938194831
      8  O         3.7419691775    2.3399703235    4.0177278405
      9  O         4.9676205259    4.1051774742    3.0205946924
     10  H         3.3127999893   -1.5287622992    0.3472147573
     11  H         1.3126885466   -0.3664435721   -0.0440925625
     12  H         2.2855870129    0.5830420077   -1.1957644226
     13  H         4.8431078948    0.4888045286    0.4843010892
     14  H         5.8664834599    2.1078567884    1.9192648020
     15  H         3.1381749082    3.3928546458    2.3408677600
     16  H         3.0582781496    2.8811038343    4.4574214229
     17  H         4.4438187924    4.8183338657    3.4317398885
     18  O         2.9294833441   -1.1321625885    2.2675798590
     19  O         1.6842378116   -1.1882093995    2.6932012443

Z-matrix Print:
$molecule
-1 2
O 
C  1 1.255746
C  2 1.472727 1 124.586700
H  3 1.091016 2 114.870799 1 179.957588 0
C  3 1.355072 2 127.167933 1 -1.707627 0
H  5 1.092839 3 118.825714 2 -179.342254 0
C  5 1.504348 3 126.354167 2 2.169788 0
H  7 1.098072 5 111.649404 3 -37.382292 0
O  7 1.429907 5 106.669378 3 -157.386488 0
H  9 0.975705 7 106.474607 5 167.305505 0
O  7 1.436576 5 108.432141 3 82.440009 0
H  11 0.976519 7 106.237770 5 -162.746798 0
C  2 1.533157 1 117.483240 3 -170.226520 0
H  13 1.102275 2 108.891652 1 86.200941 0
H  13 1.104464 2 106.758709 1 -29.795853 0
O  13 1.429557 2 115.062410 1 -154.298161 0
H  16 0.981623 13 102.951295 2 52.666471 0
O  17 1.998005 16 139.169376 13 -14.739888 0
O  18 1.317168 17 118.914557 16 75.456107 0
$end

 
 --------------------------------------------------------------
 
                    Orbital Energies (a.u.)
 --------------------------------------------------------------
 
 Alpha MOs
 -- Occupied --
-18.7954 -18.7852 -18.7687 -18.7667 -18.7619 -18.7340 -10.0014  -9.9746
 -9.9449  -9.9119  -9.9078  -1.0129  -0.9568  -0.9255  -0.9097  -0.8979
 -0.7059  -0.6670  -0.6371  -0.5983  -0.5263  -0.4748  -0.4598  -0.4505
 -0.4297  -0.3948  -0.3868  -0.3778  -0.3717  -0.3597  -0.3382  -0.3374
 -0.3330  -0.3178  -0.3017  -0.2896  -0.2874  -0.2412  -0.2337  -0.2243
 -0.2187  -0.1801  -0.1681  -0.1392
 -- Virtual --
 -0.0651   0.0407   0.0672   0.1025   0.1053   0.1221   0.1316   0.1426
  0.1575   0.1711   0.1811   0.1941   0.2022   0.2135   0.2252   0.2500
  0.3131   0.3680   0.3866   0.4900   0.5062   0.5305   0.5418   0.5522
  0.5630   0.5754   0.6075   0.6261   0.6411   0.6654   0.6758   0.6881
  0.7065   0.7297   0.7499   0.7546   0.7700   0.7805   0.7947   0.8138
  0.8198   0.8347   0.8434   0.8573   0.8771   0.8822   0.8977   0.9196
  0.9334   0.9389   0.9695   0.9750   0.9925   1.0048   1.0235   1.0435
  1.0448   1.0770   1.1161   1.1453   1.1618   1.1720   1.1832   1.2295
  1.2454   1.2969   1.3204   1.3432   1.3765   1.4220   1.4453   1.4667
  1.4982   1.5158   1.5286   1.5397   1.5785   1.5874   1.6108   1.6473
  1.6570   1.6804   1.6996   1.7197   1.7661   1.7778   1.8131   1.8325
  1.8381   1.8719   1.8745   1.8823   1.9055   1.9460   1.9976   2.0032
  2.0176   2.0213   2.0549   2.0715   2.1235   2.1461   2.2163   2.2225
  2.2311   2.2660   2.3209   2.3608   2.3829   2.3920   2.4179   2.4353
  2.4383   2.4756   2.4918   2.5455   2.5822   2.6082   2.6997   2.7343
  2.8142   2.8280   2.8518   2.8951   2.9305   3.1210   3.2791   3.6174
  3.6272   3.7023   3.7318   4.1022   4.1249   4.2398   4.3315   4.4009
  4.5649
 
 Beta MOs
 -- Occupied --
-18.7867 -18.7758 -18.7687 -18.7667 -18.7618 -18.7344 -10.0014  -9.9748
 -9.9449  -9.9121  -9.9077  -0.9818  -0.9569  -0.9253  -0.9106  -0.8980
 -0.7069  -0.6390  -0.6267  -0.5981  -0.5273  -0.4749  -0.4601  -0.4500
 -0.4299  -0.3948  -0.3849  -0.3766  -0.3524  -0.3391  -0.3380  -0.3256
 -0.3179  -0.3029  -0.2956  -0.2879  -0.2816  -0.2417  -0.2345  -0.2242
 -0.2198  -0.1806  -0.1165
 -- Virtual --
 -0.0968  -0.0648   0.0385   0.0671   0.1047   0.1071   0.1221   0.1338
  0.1521   0.1653   0.1722   0.1808   0.1992   0.2015   0.2131   0.2247
  0.2490   0.3124   0.3672   0.3865   0.4897   0.5062   0.5302   0.5417
  0.5532   0.5629   0.5751   0.6074   0.6265   0.6413   0.6652   0.6764
  0.6880   0.7068   0.7336   0.7542   0.7563   0.7711   0.7843   0.7986
  0.8147   0.8247   0.8379   0.8473   0.8604   0.8786   0.8866   0.9092
  0.9250   0.9386   0.9511   0.9698   0.9759   0.9951   1.0147   1.0253
  1.0456   1.0509   1.0793   1.1174   1.1544   1.1636   1.1722   1.1871
  1.2330   1.2455   1.2965   1.3224   1.3426   1.3789   1.4282   1.4441
  1.4688   1.5137   1.5238   1.5372   1.5515   1.5788   1.5886   1.6155
  1.6500   1.6665   1.6918   1.7034   1.7214   1.7731   1.7778   1.8126
  1.8321   1.8410   1.8758   1.8801   1.9015   1.9080   1.9568   1.9994
  2.0102   2.0197   2.0276   2.0555   2.0719   2.1227   2.1461   2.2183
  2.2312   2.2430   2.2661   2.3199   2.3608   2.3831   2.3926   2.4172
  2.4374   2.4709   2.4845   2.4936   2.5451   2.5801   2.6081   2.6988
  2.7343   2.8141   2.8279   2.8513   2.9122   2.9300   3.1206   3.3104
  3.6195   3.6500   3.7042   3.7327   4.1013   4.1250   4.2400   4.3314
  4.3992   4.5630
 --------------------------------------------------------------
 
          Ground-State Mulliken Net Atomic Charges

     Atom                 Charge (a.u.)    Spin (a.u.)
  --------------------------------------------------------
      1 O                    -0.674024       0.008468
      2 C                    -0.128101       0.003225
      3 C                     0.401099      -0.054884
      4 O                    -0.621555      -0.023277
      5 C                    -0.172435       0.018576
      6 C                    -0.173229      -0.064805
      7 C                     0.270456       0.002930
      8 O                    -0.665815      -0.001672
      9 O                    -0.669835      -0.000771
     10 H                     0.426718       0.002328
     11 H                     0.143708      -0.002158
     12 H                     0.179113      -0.001864
     13 H                     0.151271      -0.000538
     14 H                     0.167297       0.003593
     15 H                     0.154067      -0.000375
     16 H                     0.430037      -0.000818
     17 H                     0.432989       0.000052
     18 O                    -0.312848       0.527067
     19 O                    -0.338913       0.584922
  --------------------------------------------------------
  Sum of atomic charges =    -1.000000
  Sum of spin   charges =     1.000000

 -----------------------------------------------------------------
                    Cartesian Multipole Moments
 -----------------------------------------------------------------
    Charge (ESU x 10^10)
                -4.8032
    Dipole Moment (Debye)
         X     -13.1268      Y       2.7321      Z      -9.3383
       Tot      16.3396
    Quadrupole Moments (Debye-Ang)
        XX    -111.1270     XY       0.4731     YY     -60.0316
        XZ     -27.2883     YZ      11.0206     ZZ     -87.8875
    Octopole Moments (Debye-Ang^2)
       XXX    -837.6182    XXY    -116.4926    XYY    -219.7389
       YYY    -133.9542    XXZ    -224.1981    XYZ       3.7457
       YYZ     -60.8283    XZZ    -302.0397    YZZ      -2.3351
       ZZZ    -375.9906
    Hexadecapole Moments (Debye-Ang^3)
      XXXX   -5672.1032   XXXY   -1343.2340   XXYY   -1254.1733
      XYYY    -780.0245   YYYY   -1221.3327   XXXZ   -1749.0417
      XXYZ    -345.9579   XYYZ    -298.1473   YYYZ    -239.4913
      XXZZ   -1540.9657   XYZZ    -213.5820   YYZZ    -343.6179
      XZZZ   -1424.4673   YZZZ    -319.6180   ZZZZ   -1963.3756
 -----------------------------------------------------------------
 Total job time:  4447.62s(wall), 15537.74s(cpu) 
 Wed May 15 18:11:12 2024

        *************************************************************
        *                                                           *
        *  Thank you very much for using Q-Chem.  Have a nice day.  *
        *                                                           *
        *************************************************************


