
Running Job 1 of 2 Q_in.in
qchem Q_in.in_30999.0 /scratch/ari.fischer/qChem2091141.hpc-mn1/qchem30999/ 0
/usr/local/qchem-5.4.1/exe/qcprog.exe_s Q_in.in_30999.0 /scratch/ari.fischer/qChem2091141.hpc-mn1/qchem30999/
                  Welcome to Q-Chem
     A Quantum Leap Into The Future Of Chemistry


 Q-Chem 5.4, Q-Chem, Inc., Pleasanton, CA (2021)

 License issued to: Nanyang Technological University (site)

 E. Epifanovsky,  A. T. B. Gilbert,  Xintian Feng,  Joonho Lee,  Yuezhi Mao,  
 N. Mardirossian,  P. Pokhilko,  A. White,  M. Wormit,  M. P. Coons,  
 A. L. Dempwolff,  Zhengting Gan,  D. Hait,  P. R. Horn,  L. D. Jacobson,  
 I. Kaliman,  J. Kussmann,  A. W. Lange,  Ka Un Lao,  D. S. Levine,  Jie Liu,  
 S. C. McKenzie,  A. F. Morrison,  K. Nanda,  F. Plasser,  D. R. Rehn,  
 M. L. Vidal,  Zhi-Qiang You,  Ying Zhu,  B. Alam,  B. Albrecht,  
 A. Aldossary,  E. Alguire,  J. H. Andersen,  D. Barton,  K. Begam,  A. Behn,  
 Y. A. Bernard,  E. J. Berquist,  H. Burton,  A. Carreras,  K. Carter-Fenk,  
 R. Chakraborty,  A. D. Chien,  K. D. Closser,  V. Cofer-Shabica,  
 S. Dasgupta,  Jia Deng,  M. de Wergifosse,  M. Diedenhofen,  Hainam Do,  
 S. Ehlert,  Po-Tung Fang,  S. Fatehi,  Qingguo Feng,  T. Friedhoff,  
 J. Gayvert,  Qinghui Ge,  G. Gidofalvi,  M. Goldey,  J. Gomes,  
 C. Gonzalez-Espinoza,  S. Gulania,  A. Gunina,  M. W. D. Hanson-Heine,  
 P. H. P. Harbach,  A. W. Hauser,  M. F. Herbst,  M. Hernandez Vera,  
 M. Hodecker,  Z. C. Holden,  S. Houck,  Xunkun Huang,  Kerwin Hui,  
 B. C. Huynh,  M. Ivanov,  Hyunjun Ji,  Hanjie Jiang,  B. Kaduk,  S. Kaehler,  
 K. Khistyaev,  Jaehoon Kim,  P. Klunzinger,  Z. Koczor-Benda,  
 Joong Hoon Koh,  D. Kosenkov,  L. Koulias,  T. Kowalczyk,  C. M. Krauter,  
 K. Kue,  A. Kunitsa,  T. Kus,  A. Landau,  K. V. Lawler,  D. Lefrancois,  
 S. Lehtola,  Rain Li,  Yi-Pei Li,  Jiashu Liang,  M. Liebenthal,  
 Hung-Hsuan Lin,  You-Sheng Lin,  Fenglai Liu,  Kuan-Yu Liu,  
 M. Loipersberger,  A. Luenser,  A. Manjanath,  P. Manohar,  E. Mansoor,  
 S. F. Manzer,  Shan-Ping Mao,  A. V. Marenich,  T. Markovich,  S. Mason,  
 S. A. Maurer,  P. F. McLaughlin,  M. F. S. J. Menger,  J.-M. Mewes,  
 S. A. Mewes,  P. Morgante,  J. W. Mullinax,  K. J. Oosterbaan,  G. Paran,  
 Alexander C. Paul,  Suranjan K. Paul,  F. Pavosevic,  Zheng Pei,  S. Prager,  
 E. I. Proynov,  E. Ramos,  B. Rana,  A. E. Rask,  A. Rettig,  R. M. Richard,  
 F. Rob,  E. Rossomme,  T. Scheele,  M. Scheurer,  M. Schneider,  
 N. Sergueev,  S. M. Sharada,  W. Skomorowski,  D. W. Small,  C. J. Stein,  
 Yu-Chuan Su,  E. J. Sundstrom,  Zhen Tao,  J. Thirman,  T. Tsuchimochi,  
 N. M. Tubman,  S. P. Veccham,  O. Vydrov,  J. Wenzel,  J. Witte,  A. Yamada,  
 Kun Yao,  S. Yeganeh,  S. R. Yost,  A. Zech,  Igor Ying Zhang,  Xing Zhang,  
 Yu Zhang,  D. Zuev,  A. Aspuru-Guzik,  A. T. Bell,  N. A. Besley,  
 K. B. Bravaya,  B. R. Brooks,  D. Casanova,  Jeng-Da Chai,  S. Coriani,  
 C. J. Cramer,  A. E. DePrince, III,  R. A. DiStasio Jr.,  A. Dreuw,  
 B. D. Dunietz,  T. R. Furlani,  W. A. Goddard III,  S. Grimme,  
 S. Hammes-Schiffer,  T. Head-Gordon,  W. J. Hehre,  Chao-Ping Hsu,  
 T.-C. Jagau,  Yousung Jung,  A. Klamt,  Jing Kong,  D. S. Lambrecht,  
 WanZhen Liang,  N. J. Mayhall,  C. W. McCurdy,  J. B. Neaton,  
 C. Ochsenfeld,  J. A. Parkhill,  R. Peverati,  V. A. Rassolov,  Yihan Shao,  
 L. V. Slipchenko,  T. Stauch,  R. P. Steele,  J. E. Subotnik,  
 A. J. W. Thom,  A. Tkatchenko,  D. G. Truhlar,  T. Van Voorhis,  
 T. A. Wesolowski,  K. B. Whaley,  H. L. Woodcock III,  P. M. Zimmerman,  
 S. Faraji,  P. M. W. Gill,  M. Head-Gordon,  J. M. Herbert,  A. I. Krylov

 Additional authors for Version 5.4.1: 
 S. Kotaru,  Shaozhi Li,  Xiangyuan Li,  F. Matz,  A. Molle,  Haisheng Ren,  
 Yingli Su,  Hung-Yi Tsai,  C. Utku,  Fang Wang

 Contributors to earlier versions of Q-Chem not listed above: 
 R. D. Adamson,  B. Austin,  R. Baer,  J. Baker,  G. J. O. Beran,  
 K. Brandhorst,  S. T. Brown,  E. F. C. Byrd,  A. K. Chakraborty,  
 G. K. L. Chan,  Chun-Min Chang,  Yunqing Chen,  C.-L. Cheng,  
 Siu Hung Chien,  D. M. Chipman,  D. L. Crittenden,  H. Dachsel,  
 R. J. Doerksen,  A. D. Dutoi,  R. G. Edgar,  J. Fosso-Tande,  
 L. Fusti-Molnar,  D. Ghosh,  A. Ghysels,  A. Golubeva-Zadorozhnaya,  
 J. Gonthier,  M. S. Gordon,  S. R. Gwaltney,  G. Hawkins,  J. E. Herr,  
 A. Heyden,  S. Hirata,  E. G. Hohenstein,  G. Kedziora,  F. J. Keil,  
 C. Kelley,  Jihan Kim,  R. A. King,  R. Z. Khaliullin,  P. P. Korambath,  
 W. Kurlancheek,  A. Laurent,  A. M. Lee,  M. S. Lee,  S. V. Levchenko,  
 Ching Yeh Lin,  D. Liotard,  E. Livshits,  R. C. Lochan,  I. Lotan,  
 L. A. Martinez-Martinez,  P. E. Maslen,  N. Nair,  D. P. O'Neill,  
 D. Neuhauser,  E. Neuscamman,  C. M. Oana,  R. Olivares-Amaya,  R. Olson,  
 T. M. Perrine,  B. Peters,  P. A. Pieniazek,  A. Prociuk,  Y. M. Rhee,  
 J. Ritchie,  M. A. Rohrdanz,  E. Rosta,  N. J. Russ,  H. F. Schaefer III,  
 M. W. Schmidt,  N. E. Schultz,  S. Sharma,  N. Shenvi,  C. D. Sherrill,  
 A. C. Simmonett,  A. Sodt,  T. Stein,  D. Stuck,  K. S. Thanthiriwatte,  
 V. Vanovschi,  L. Vogt,  Tao Wang,  A. Warshel,  M. A. Watson,  
 C. F. Williams,  Q. Wu,  X. Xu,  Jun Yang,  W. Zhang,  Yan Zhao

 Please cite Q-Chem as follows:
 Y. Shao et al., Mol. Phys. 113, 184-215 (2015)
 DOI: 10.1080/00268976.2014.952696

 Q-Chem 5.4.1 for Intel X86 EM64T Linux

 Parts of Q-Chem use Armadillo 9.800.1 (Horizon Scraper).
 http://arma.sourceforge.net/

 Q-Chem begins on Thu May  9 17:42:58 2024  

 Host: 
0

     Scratch files written to /scratch/ari.fischer/qChem2091141.hpc-mn1/qchem30999//
 Aug1521 |scratch|qcdevops|jenkins|workspace|build_RNUM 8249   
 Processing $rem in /usr/local/qchem-5.4.1/config/preferences:
 Processing $rem in /home/ari.fischer/.qchemrc:
 Symmetry turned off for PCM/SM12/SMD calculation


!!********************************************.
!!******************Warning*******************.
!!Desired Analytical derivatives not available.
!!Finite difference job might take a long time.
!!********************************************.
!!********************************************.


 2-order derivative to be evaluated numerically with 1-order analytical derivatives

 Checking the input file for inconsistencies... 	...done.

--------------------------------------------------------------
User input:
--------------------------------------------------------------
$molecule
0 2
C        -1.1454990729   -0.4336396230    0.4680526995
O        -2.0567914655   -1.0078189221   -0.0727297783
H        -0.9319162890   -0.5248207358    1.5434370862
C        -0.2140251340    0.4811059473   -0.3001375466
H        -0.4970758750    0.6648592846   -1.3387763357
O         0.4707184350    1.3330243073    0.3565603192
O         1.0711199983   -0.7689769156   -0.6452664390
O         2.0970559045   -0.2345219479   -0.1064836761
H         1.6083375597    0.7198570415    0.2935816276
$end

$rem
BASIS = 6-311++G(2df,2p)
GUI = 2
JOB_TYPE = Frequency
METHOD = wB97M-V
SOLVENT_METHOD = SMD
SCF_ALGORITHM = DIIS_GDM
MAX_SCF_CYCLES = 400
SCF_CONVERGENCE = 7
THRESH = 12
$end

--------------------------------------------------------------
 ----------------------------------------------------------------
             Standard Nuclear Orientation (Angstroms)
    I     Atom           X                Y                Z
 ----------------------------------------------------------------
    1      C      -1.1454990729    -0.4336396230     0.4680526995
    2      O      -2.0567914655    -1.0078189221    -0.0727297783
    3      H      -0.9319162890    -0.5248207358     1.5434370862
    4      C      -0.2140251340     0.4811059473    -0.3001375466
    5      H      -0.4970758750     0.6648592846    -1.3387763357
    6      O       0.4707184350     1.3330243073     0.3565603192
    7      O       1.0711199983    -0.7689769156    -0.6452664390
    8      O       2.0970559045    -0.2345219479    -0.1064836761
    9      H       1.6083375597     0.7198570415     0.2935816276
 ----------------------------------------------------------------
 Nuclear Repulsion Energy =         236.30847253 hartrees
 There are       24 alpha and       23 beta electrons
 Requested basis set is 6-311++G(2df,2p)
 There are 66 shells and 234 basis functions

 Total QAlloc Memory Limit 288000 MB
 Mega-Array Size       188 MB
 MEM_STATIC part       192 MB
 
 Citation of the SMD model:
 Marenich, A.V.; Cramer, C.J.; Truhlar, D.G.
 J. Phys. Chem. B 2009, 113, 6378-6396.
 iSolventCode=           1
 Solvent: water                                                           
 
 vradii
            1           2           3           4           5           6
    1   1.8500000   1.5200000   1.2000000   1.8500000   1.2000000   1.5200000
            7           8           9
    1   1.5200000   1.5200000   1.2000000
 Changing PCM_VDW_RADII to SMD_RADIUS
 Discretize the solute cavity surface with Lebedev spheres
	Using 110 Lebedev grid points for each H atom
	Using 194 Lebedev grid points for other atoms
	Atomic van der Waals radii will be scaled by 1.20
 Remove points where switching function is < 1.0e-08
 Keep 806 surface tesserae and discard 688 interior tesserae
 Molecular Surface Area = 98.948 Angst**2

                       Distance Matrix (Angstroms)
             C (  1)   O (  2)   H (  3)   C (  4)   H (  5)   O (  6)
   O (  2)  1.205231
   H (  3)  1.100174  2.027468
   C (  4)  1.514767  2.380000  2.219465
   H (  5)  2.211738  2.614085  3.148266  1.092087
   O (  6)  2.397017  3.471620  2.612977  1.275104  2.063307
   O (  7)  2.503064  3.188836  2.976943  1.825765  2.235191  2.404693
   O (  8)  3.299076  4.225349  3.461385  2.427081  3.009477  2.305772
   H (  9)  2.990754  4.068442  3.092612  1.931453  2.664654  1.293877
             O (  7)   O (  8)
   O (  8)  1.276117
   H (  9)  1.840289  1.144437
 
 A cutoff of  1.0D-12 yielded   2101 shell pairs
 There are     26464 function pairs (     33626 Cartesian)
 Smallest overlap matrix eigenvalue = 7.45E-05
 Guess from superposition of atomic densities
 Warning:  Energy on first SCF cycle will be non-variational
 SAD guess density has 47.000000 electrons

 -----------------------------------------------------------------------
  General SCF calculation program by
  Eric Jon Sundstrom, Paul Horn, Yuezhi Mao, Dmitri Zuev, Alec White,
  David Stuck, Shaama M.S., Shane Yost, Joonho Lee, David Small,
  Daniel Levine, Susi Lehtola, Hugh Burton, Evgeny Epifanovsky,
  Bang C. Huynh
 -----------------------------------------------------------------------
 Exchange:     0.1500 Hartree-Fock + 1.0000 wB97M-V + LR-HF
 Correlation:  1.0000 wB97M-V
 Using SG-2 standard quadrature grid
 Nonlocal Correlation:  VV10 with C = 0.0100 and b = 6.00 and scale = 1.00000
 Grid used for NLC:  SG-1 standard quadrature
 using 16 threads for integral computing
 -------------------------------------------------------
 OpenMP Integral computing Module                
 Release: version 1.0, May 2013, Q-Chem Inc. Pittsburgh 
 -------------------------------------------------------
 
 Citation of the SMD model:
 Marenich, A.V.; Cramer, C.J.; Truhlar, D.G.
 J. Phys. Chem. B 2009, 113, 6378-6396.
 iSolventCode=           1
 Solvent: water                                                           
 
 vradii
            1           2           3           4           5           6
    1   1.8500000   1.5200000   1.2000000   1.8500000   1.2000000   1.5200000
            7           8           9
    1   1.5200000   1.5200000   1.2000000
 -------------------------------------------------------
 OpenMP BLAS3 based DFT computing Module                
 Release: version 1.0, May 2013, Q-Chem Inc. Pittsburgh 
 -------------------------------------------------------
 A unrestricted SCF calculation will be
 performed using DIIS, GDM
 SCF converges when RMS gradient is below 1.0e-07
 ---------------------------------------
  Cycle       Energy         DIIS error
 ---------------------------------------
    1    -379.7159693156      1.60e-02  
    2    -378.6197158224      2.56e-03  Done DIIS. Switching to GDM
 ---------------------------------------
  Cycle       Energy        RMS Gradient
 ---------------------------------------
    1    -378.6197158224      2.10e-01   Descent step
    2    -378.7500203916      5.07e-02   Normal BFGS step
    3    -378.7634788824      3.19e-02   Normal BFGS step
    4    -378.7655638540      1.63e-02   Normal BFGS step
    5    -378.7665550075      6.78e-03   Normal BFGS step
    6    -378.7668016135      4.02e-03   Normal BFGS step
    7    -378.7668412327      9.41e-04   Normal BFGS step
    8    -378.7668497654      5.48e-04   Normal BFGS step
    9    -378.7668520714      3.34e-04   Normal BFGS step
   10    -378.7668525640      1.95e-04   Normal BFGS step
   11    -378.7668527217      9.59e-05   Normal BFGS step
   12    -378.7668527758      6.06e-05   Normal BFGS step
   13    -378.7668527886      2.83e-05   Normal BFGS step
   14    -378.7668527911      1.08e-05   Normal BFGS step
   15    -378.7668527917      9.73e-06   Normal BFGS step
   16    -378.7668527919      5.36e-06   Normal BFGS step
   17    -378.7668527919      1.22e-06   Normal BFGS step
   18    -378.7668527919      7.12e-07   Normal BFGS step
   19    -378.7668527920      2.77e-07   Normal BFGS step
   20    -378.7668527920      1.05e-07   Normal BFGS step
   21    -378.7668527920      8.02e-08  Convergence criterion met
 ---------------------------------------
 SCF time:   CPU 550.36s  wall 35.00s 
<S^2> =          0.755305910
(3)  G-ENP(liq) elect-nuc-pol free energy of system     -378.766852792 a.u.
(4)  G-CDS(liq) cavity-dispersion-solvent structure 
     free energy                                                3.6294 kcal/mol
(6)  G-S(liq) free energy of system                     -378.761068915 a.u.
 SCF   energy in the final basis set =     -378.7610689146
 Total energy in the final basis set =     -378.7610689146
 
 --------------------------------------------------------------
 
                    Orbital Energies (a.u.)
 --------------------------------------------------------------
 
 Alpha MOs
 -- Occupied --
-19.4776 -19.4734 -19.3648 -19.3468 -10.4645 -10.4534  -1.3927  -1.2130
 -1.1887  -1.0070  -0.8309  -0.7374  -0.7133  -0.6542  -0.6432  -0.6102
 -0.5987  -0.5610  -0.5325  -0.4771  -0.4558  -0.4373  -0.4220  -0.3710
 -- Virtual --
  0.0050   0.0368   0.0452   0.0515   0.0814   0.0943   0.1025   0.1160
  0.1208   0.1432   0.1531   0.1612   0.1790   0.1812   0.2021   0.2319
  0.2387   0.2503   0.2621   0.2708   0.2890   0.2903   0.3124   0.3165
  0.3279   0.3325   0.3433   0.3495   0.3568   0.3775   0.3940   0.3999
  0.4130   0.4488   0.4791   0.4910   0.5559   0.5899   0.5972   0.6310
  0.6504   0.6625   0.6703   0.6982   0.7400   0.7522   0.8035   0.8285
  0.8553   0.9014   0.9338   0.9925   1.0253   1.0462   1.0655   1.0738
  1.0851   1.1062   1.1229   1.1389   1.1500   1.1621   1.1792   1.1837
  1.1993   1.2192   1.2326   1.2513   1.2650   1.3173   1.3343   1.3893
  1.4124   1.4277   1.4729   1.5023   1.5468   1.5586   1.5759   1.6253
  1.6621   1.6917   1.7497   1.7783   1.7898   1.8505   1.9071   1.9843
  2.0014   2.0453   2.0781   2.1237   2.1688   2.2548   2.2744   2.3038
  2.4711   2.4962   2.5243   2.5323   2.6244   2.6508   2.6597   2.7029
  2.7391   2.8340   2.8879   2.9458   2.9882   3.0266   3.0861   3.1101
  3.1481   3.2234   3.2756   3.3238   3.3593   3.4009   3.4131   3.4387
  3.4511   3.5753   3.5870   3.6289   3.6572   3.6812   3.7344   3.7842
  3.8172   3.8903   3.9035   3.9380   3.9777   4.0723   4.1695   4.1813
  4.2209   4.2928   4.3279   4.4811   4.5197   4.6617   4.6780   4.7019
  4.7266   4.7914   4.8960   5.0220   5.0563   5.0985   5.1116   5.1366
  5.1450   5.1639   5.1840   5.2068   5.2133   5.2235   5.2609   5.2853
  5.3131   5.3451   5.3772   5.4150   5.4719   5.5334   5.5447   5.5694
  5.5699   5.6168   5.6278   5.7316   5.7661   5.8707   6.1858   6.3241
  6.4010   6.4199   6.5330   6.7045   6.7673   6.8074   6.9119   6.9347
  6.9638   7.0025   7.0472   7.0589   7.0944   7.1170   7.1396   7.2748
  7.2976   7.3451   7.3955   7.4736   7.4913   7.5058   7.5502   7.7238
  7.7518   7.9611   8.0172   8.1230  24.7845  24.9661  50.4494  50.4727
 50.6942  50.7077
 
 Beta MOs
 -- Occupied --
-19.4614 -19.4591 -19.3648 -19.3467 -10.4648 -10.4532  -1.3645  -1.2128
 -1.1879  -0.9690  -0.8271  -0.7276  -0.7089  -0.6258  -0.6120  -0.6068
 -0.5648  -0.5491  -0.5292  -0.4719  -0.4431  -0.4247  -0.3746
 -- Virtual --
 -0.0544   0.0092   0.0370   0.0454   0.0519   0.0820   0.0950   0.1046
  0.1165   0.1217   0.1444   0.1538   0.1627   0.1795   0.1858   0.2052
  0.2367   0.2407   0.2511   0.2641   0.2723   0.2918   0.2990   0.3130
  0.3172   0.3296   0.3360   0.3440   0.3513   0.3577   0.3804   0.3963
  0.4011   0.4138   0.4491   0.4796   0.4921   0.5578   0.5915   0.5979
  0.6314   0.6517   0.6630   0.6711   0.6986   0.7401   0.7523   0.8069
  0.8289   0.8560   0.9025   0.9348   0.9972   1.0264   1.0510   1.0760
  1.0790   1.0881   1.1117   1.1368   1.1418   1.1550   1.1688   1.1806
  1.1896   1.2014   1.2215   1.2348   1.2626   1.2756   1.3192   1.3365
  1.3936   1.4159   1.4405   1.4763   1.5115   1.5595   1.5636   1.5767
  1.6325   1.6771   1.6998   1.7588   1.7810   1.7917   1.8517   1.9225
  1.9919   2.0076   2.0524   2.0796   2.1318   2.1723   2.2618   2.2931
  2.3172   2.4727   2.4980   2.5288   2.5365   2.6289   2.6534   2.6637
  2.7052   2.7390   2.8342   2.8881   2.9451   2.9881   3.0267   3.0859
  3.1099   3.1476   3.2229   3.2758   3.3234   3.3592   3.4011   3.4141
  3.4384   3.4509   3.5746   3.5878   3.6288   3.6575   3.6805   3.7344
  3.7837   3.8171   3.8903   3.9050   3.9381   3.9775   4.0715   4.1693
  4.1812   4.2210   4.2934   4.3287   4.4821   4.5598   4.6736   4.7031
  4.7124   4.7285   4.8070   4.9080   5.0697   5.0989   5.1071   5.1433
  5.1500   5.1660   5.1795   5.2061   5.2313   5.2394   5.2512   5.2855
  5.3014   5.3212   5.3636   5.3851   5.4187   5.4836   5.5348   5.5553
  5.5710   5.5771   5.6217   5.6512   5.7356   5.7827   5.8712   6.1878
  6.3244   6.4028   6.4289   6.5835   6.7179   6.7712   6.8546   6.9233
  6.9656   6.9872   7.0055   7.0991   7.1128   7.1289   7.1351   7.1539
  7.2971   7.3142   7.3872   7.4159   7.4831   7.4969   7.5219   7.5541
  7.7271   7.7588   7.9650   8.0298   8.1430  24.7844  24.9661  50.4609
 50.4851  50.6943  50.7078
 --------------------------------------------------------------
 
          Ground-State Mulliken Net Atomic Charges

     Atom                 Charge (a.u.)    Spin (a.u.)
  --------------------------------------------------------
      1 C                     0.147485       0.009835
      2 O                    -0.347720       0.000338
      3 H                     0.219996       0.000934
      4 C                    -0.114141      -0.028607
      5 H                     0.270846       0.007223
      6 O                    -0.468512       0.002187
      7 O                    -0.006512       0.538828
      8 O                    -0.067232       0.478370
      9 H                     0.365789      -0.009108
  --------------------------------------------------------
  Sum of atomic charges =     0.000000
  Sum of spin   charges =     1.000000

 -----------------------------------------------------------------
                    Cartesian Multipole Moments
 -----------------------------------------------------------------
    Charge (ESU x 10^10)
                 0.0000
    Dipole Moment (Debye)
         X       1.5685      Y       0.5746      Z       0.4362
       Tot       1.7264
    Quadrupole Moments (Debye-Ang)
        XX     -39.9635     XY      -3.1829     YY     -39.8507
        XZ      -0.8067     YZ      -3.1731     ZZ     -31.7342
    Octopole Moments (Debye-Ang^2)
       XXX      14.1329    XXY      17.1520    XYY       1.6176
       YYY       3.4888    XXZ       5.6913    XYZ       0.8635
       YYZ       0.1015    XZZ      -2.6070    YZZ       2.4239
       ZZZ       3.9183
    Hexadecapole Moments (Debye-Ang^3)
      XXXX    -458.0796   XXXY     -46.8993   XXYY    -106.5773
      XYYY     -42.0611   YYYY    -181.9392   XXXZ      17.2056
      XXYZ      -3.3937   XYYZ       6.3311   YYYZ     -12.8780
      XXZZ     -80.1187   XYZZ     -11.0297   YYZZ     -40.9882
      XZZZ      14.3184   YZZZ     -14.5652   ZZZZ     -69.5720
 -----------------------------------------------------------------
 Calculating analytic gradient of the SCF energy
 Gradient of CDS energy
            1           2           3           4           5           6
    1  -0.0019925   0.0010475   0.0001242   0.0015309   0.0000145  -0.0011924
    2  -0.0015425   0.0006866   0.0001100   0.0024647  -0.0002241  -0.0014775
    3  -0.0000721   0.0005501   0.0000780   0.0006694  -0.0001616  -0.0010295
            7           8           9
    1   0.0002211  -0.0000265   0.0002731
    2   0.0000999  -0.0002597   0.0001427
    3  -0.0000285  -0.0001472   0.0001414
 Gradient of SCF Energy
            1           2           3           4           5           6
    1   0.0003273  -0.0057458   0.0027178   0.0044986  -0.0023234  -0.0026742
    2   0.0021696  -0.0040522  -0.0009046  -0.0043227   0.0021888   0.0090600
    3  -0.0079764  -0.0028469   0.0101512   0.0096831  -0.0108389   0.0031915
            7           8           9
    1  -0.0032111   0.0052525   0.0011582
    2  -0.0017082  -0.0027267   0.0002961
    3  -0.0020065  -0.0006668   0.0013098
 Max gradient component =       1.084E-02
 RMS gradient           =       4.917E-03
 Computing fast CPCM-SWIG gradient
 Updating gradient with PCM contributions...
 -- total gradient after adding PCM contribution --
---------------------------------------------------
  Atom         X              Y              Z     
---------------------------------------------------
   1      -0.000033       0.000024      -0.000015
   2      -0.000023       0.000022       0.000013
   3      -0.000023       0.000063       0.000003
   4       0.000143      -0.000065      -0.000004
   5       0.000032      -0.000023      -0.000022
   6      -0.000143       0.000051      -0.000009
   7      -0.000107       0.000074       0.000050
   8       0.000123      -0.000087       0.000026
   9       0.000032      -0.000060      -0.000042
---------------------------------------------------
 Number of fixed atoms: 0
 Gradient time:  CPU 64.23 s  wall 5.29 s
 ######################################################
 ######################################################
 # Starting finite difference calculation for IDERIV  #
 Finite diff step size:  1.88973e-03 a.u.
 ----------------------------------------------------------------
             Standard Nuclear Orientation (Angstroms)
    I     Atom           X                Y                Z
 ----------------------------------------------------------------
    1      C      -1.1444990729    -0.4336396230     0.4680526995
    2      O      -2.0567914655    -1.0078189221    -0.0727297783
    3      H      -0.9319162890    -0.5248207358     1.5434370862
    4      C      -0.2140251340     0.4811059473    -0.3001375466
    5      H      -0.4970758750     0.6648592846    -1.3387763357
    6      O       0.4707184350     1.3330243073     0.3565603192
    7      O       1.0711199983    -0.7689769156    -0.6452664390
    8      O       2.0970559045    -0.2345219479    -0.1064836761
    9      H       1.6083375597     0.7198570415     0.2935816276
 ----------------------------------------------------------------
 Nuclear Repulsion Energy =         236.31025397 hartrees
 There are       24 alpha and       23 beta electrons
 Discretize the solute cavity surface with Lebedev spheres
	Using 110 Lebedev grid points for each H atom
	Using 194 Lebedev grid points for other atoms
	Atomic van der Waals radii will be scaled by 1.20
 Remove points where switching function is < 1.0e-08
 Keep 806 surface tesserae and discard 688 interior tesserae
 Molecular Surface Area = 98.945 Angst**2

                       Distance Matrix (Angstroms)
             C (  1)   O (  2)   H (  3)   C (  4)   H (  5)   O (  6)
   O (  2)  1.205987
   H (  3)  1.099980  2.027468
   C (  4)  1.514152  2.380000  2.219465
   H (  5)  2.211445  2.614085  3.148266  1.092087
   O (  6)  2.396343  3.471620  2.612977  1.275104  2.063307
   O (  7)  2.502179  3.188836  2.976943  1.825765  2.235191  2.404693
   O (  8)  3.298093  4.225349  3.461385  2.427081  3.009477  2.305772
   H (  9)  2.989833  4.068442  3.092612  1.931453  2.664654  1.293877
             O (  7)   O (  8)
   O (  8)  1.276117
   H (  9)  1.840289  1.144437
 
 Requested basis set is 6-311++G(2df,2p)
 There are 66 shells and 234 basis functions
 A cutoff of  1.0D-12 yielded   2101 shell pairs
 There are     26464 function pairs (     33626 Cartesian)
 Smallest overlap matrix eigenvalue = 7.43E-05
 Guess MOs from SCF MO coefficient file

 -----------------------------------------------------------------------
  General SCF calculation program by
  Eric Jon Sundstrom, Paul Horn, Yuezhi Mao, Dmitri Zuev, Alec White,
  David Stuck, Shaama M.S., Shane Yost, Joonho Lee, David Small,
  Daniel Levine, Susi Lehtola, Hugh Burton, Evgeny Epifanovsky,
  Bang C. Huynh
 -----------------------------------------------------------------------
 Exchange:     0.1500 Hartree-Fock + 1.0000 wB97M-V + LR-HF
 Correlation:  1.0000 wB97M-V
 Using SG-2 standard quadrature grid
 Nonlocal Correlation:  VV10 with C = 0.0100 and b = 6.00 and scale = 1.00000
 Grid used for NLC:  SG-1 standard quadrature
 
 Citation of the SMD model:
 Marenich, A.V.; Cramer, C.J.; Truhlar, D.G.
 J. Phys. Chem. B 2009, 113, 6378-6396.
 iSolventCode=           1
 Solvent: water                                                           
 
 vradii
            1           2           3           4           5           6
    1   1.8500000   1.5200000   1.2000000   1.8500000   1.2000000   1.5200000
            7           8           9
    1   1.5200000   1.5200000   1.2000000
 -------------------------------------------------------
 OpenMP BLAS3 based DFT computing Module                
 Release: version 1.0, May 2013, Q-Chem Inc. Pittsburgh 
 -------------------------------------------------------
 A unrestricted SCF calculation will be
 performed using Roothaan-Hall, DIIS, GDM
 SCF converges when RMS gradient is below 1.0e-07
 ---------------------------------------
  Cycle       Energy         DIIS error
 ---------------------------------------
    1    -378.7470019694      2.53e-04  Roothaan Step
 ---------------------------------------
  Cycle       Energy         DIIS error
 ---------------------------------------
    1    -378.7625538362      3.63e-04  
    2    -378.7632159392      4.47e-04  Done DIIS. Switching to GDM
 ---------------------------------------
  Cycle       Energy        RMS Gradient
 ---------------------------------------
    1    -378.7632159392      3.23e-02   Normal BFGS step
    2    -378.7608607468      4.79e-02  Line search: overstep
    3    -378.7667598068      2.96e-03   Normal BFGS step
    4    -378.7668318062      1.25e-03   Normal BFGS step
    5    -378.7668423821      1.28e-03   Normal BFGS step
    6    -378.7668470611      4.74e-04   Normal BFGS step
    7    -378.7668478260      8.58e-05   Normal BFGS step
    8    -378.7668479168      4.36e-05   Normal BFGS step
    9    -378.7668479432      3.79e-05   Normal BFGS step
   10    -378.7668479523      2.29e-05   Normal BFGS step
   11    -378.7668479557      1.33e-05   Normal BFGS step
   12    -378.7668479565      7.92e-06   Normal BFGS step
   13    -378.7668479567      3.79e-06   Normal BFGS step
   14    -378.7668479568      1.61e-06   Normal BFGS step
   15    -378.7668479569      7.49e-07   Normal BFGS step
   16    -378.7668479569      3.29e-07   Normal BFGS step
   17    -378.7668479569      1.66e-07   Normal BFGS step
   18    -378.7668479568      6.25e-08  Convergence criterion met
 ---------------------------------------
 SCF time:   CPU 505.31s  wall 32.00s 
<S^2> =          0.755307348
(3)  G-ENP(liq) elect-nuc-pol free energy of system     -378.766847957 a.u.
(4)  G-CDS(liq) cavity-dispersion-solvent structure 
     free energy                                                3.6271 kcal/mol
(6)  G-S(liq) free energy of system                     -378.761067852 a.u.
 SCF   energy in the final basis set =     -378.7610678517
 Total energy in the final basis set =     -378.7610678517
 
 --------------------------------------------------------------
 
                    Orbital Energies (a.u.)
 --------------------------------------------------------------
 
 Alpha MOs
 -- Occupied --
-19.4777 -19.4735 -19.3648 -19.3468 -10.4646 -10.4534  -1.3927  -1.2126
 -1.1887  -1.0071  -0.8311  -0.7374  -0.7134  -0.6542  -0.6433  -0.6101
 -0.5987  -0.5609  -0.5323  -0.4771  -0.4558  -0.4373  -0.4220  -0.3712
 -- Virtual --
  0.0048   0.0367   0.0452   0.0515   0.0814   0.0942   0.1024   0.1160
  0.1208   0.1432   0.1531   0.1612   0.1790   0.1812   0.2021   0.2319
  0.2387   0.2503   0.2621   0.2708   0.2890   0.2903   0.3124   0.3165
  0.3279   0.3325   0.3434   0.3495   0.3568   0.3775   0.3941   0.3999
  0.4130   0.4489   0.4790   0.4909   0.5559   0.5899   0.5972   0.6309
  0.6504   0.6624   0.6703   0.6981   0.7399   0.7522   0.8036   0.8283
  0.8552   0.9014   0.9338   0.9925   1.0252   1.0462   1.0656   1.0739
  1.0852   1.1062   1.1230   1.1389   1.1500   1.1622   1.1792   1.1838
  1.1994   1.2193   1.2326   1.2514   1.2650   1.3174   1.3344   1.3893
  1.4124   1.4277   1.4729   1.5022   1.5468   1.5587   1.5758   1.6254
  1.6621   1.6918   1.7497   1.7782   1.7895   1.8504   1.9071   1.9843
  2.0016   2.0453   2.0778   2.1237   2.1688   2.2548   2.2743   2.3038
  2.4710   2.4961   2.5241   2.5322   2.6244   2.6508   2.6595   2.7028
  2.7392   2.8339   2.8880   2.9459   2.9881   3.0269   3.0861   3.1100
  3.1483   3.2235   3.2759   3.3237   3.3593   3.4013   3.4132   3.4388
  3.4509   3.5753   3.5870   3.6286   3.6572   3.6812   3.7344   3.7841
  3.8170   3.8908   3.9036   3.9379   3.9779   4.0724   4.1700   4.1819
  4.2212   4.2925   4.3281   4.4807   4.5197   4.6619   4.6780   4.7025
  4.7274   4.7914   4.8960   5.0220   5.0563   5.0987   5.1116   5.1367
  5.1451   5.1639   5.1840   5.2068   5.2132   5.2234   5.2609   5.2852
  5.3131   5.3450   5.3769   5.4153   5.4718   5.5335   5.5447   5.5688
  5.5694   5.6170   5.6277   5.7315   5.7661   5.8692   6.1857   6.3226
  6.4000   6.4198   6.5330   6.7044   6.7658   6.8071   6.9118   6.9346
  6.9635   7.0024   7.0472   7.0589   7.0943   7.1170   7.1382   7.2748
  7.2976   7.3450   7.3954   7.4736   7.4913   7.5057   7.5501   7.7236
  7.7517   7.9611   8.0172   8.1230  24.7842  24.9663  50.4494  50.4727
 50.6932  50.7075
 
 Beta MOs
 -- Occupied --
-19.4614 -19.4591 -19.3648 -19.3467 -10.4649 -10.4533  -1.3646  -1.2125
 -1.1879  -0.9690  -0.8273  -0.7277  -0.7090  -0.6258  -0.6120  -0.6067
 -0.5647  -0.5491  -0.5290  -0.4719  -0.4431  -0.4247  -0.3747
 -- Virtual --
 -0.0544   0.0091   0.0370   0.0454   0.0519   0.0820   0.0950   0.1046
  0.1165   0.1217   0.1444   0.1538   0.1627   0.1795   0.1858   0.2052
  0.2367   0.2407   0.2512   0.2641   0.2723   0.2918   0.2990   0.3130
  0.3172   0.3296   0.3360   0.3440   0.3513   0.3577   0.3804   0.3964
  0.4011   0.4138   0.4491   0.4795   0.4920   0.5579   0.5915   0.5978
  0.6313   0.6517   0.6630   0.6712   0.6985   0.7400   0.7523   0.8069
  0.8287   0.8559   0.9025   0.9348   0.9972   1.0264   1.0510   1.0760
  1.0791   1.0881   1.1117   1.1369   1.1418   1.1550   1.1688   1.1807
  1.1896   1.2014   1.2216   1.2348   1.2627   1.2756   1.3193   1.3366
  1.3937   1.4160   1.4405   1.4763   1.5114   1.5594   1.5636   1.5766
  1.6326   1.6770   1.6999   1.7588   1.7810   1.7914   1.8516   1.9225
  1.9920   2.0077   2.0523   2.0792   2.1318   2.1722   2.2618   2.2931
  2.3172   2.4726   2.4978   2.5284   2.5366   2.6290   2.6534   2.6634
  2.7051   2.7391   2.8340   2.8882   2.9452   2.9879   3.0269   3.0859
  3.1098   3.1478   3.2230   3.2762   3.3234   3.3592   3.4015   3.4142
  3.4385   3.4508   3.5746   3.5878   3.6284   3.6575   3.6804   3.7343
  3.7836   3.8170   3.8908   3.9051   3.9379   3.9777   4.0717   4.1698
  4.1817   4.2213   4.2931   4.3288   4.4817   4.5598   4.6740   4.7032
  4.7128   4.7292   4.8070   4.9080   5.0697   5.0990   5.1073   5.1434
  5.1501   5.1659   5.1794   5.2060   5.2313   5.2394   5.2512   5.2855
  5.3013   5.3212   5.3635   5.3849   5.4189   5.4835   5.5349   5.5552
  5.5702   5.5769   5.6219   5.6511   5.7356   5.7827   5.8697   6.1876
  6.3229   6.4017   6.4288   6.5835   6.7178   6.7695   6.8545   6.9232
  6.9653   6.9871   7.0054   7.0987   7.1127   7.1287   7.1350   7.1529
  7.2971   7.3142   7.3872   7.4158   7.4832   7.4968   7.5219   7.5541
  7.7268   7.7587   7.9650   8.0298   8.1430  24.7840  24.9663  50.4609
 50.4851  50.6933  50.7077
 --------------------------------------------------------------
 
          Ground-State Mulliken Net Atomic Charges

     Atom                 Charge (a.u.)    Spin (a.u.)
  --------------------------------------------------------
      1 C                     0.147406       0.009829
      2 O                    -0.348263       0.000331
      3 H                     0.220263       0.000931
      4 C                    -0.114052      -0.028610
      5 H                     0.270944       0.007220
      6 O                    -0.468443       0.002192
      7 O                    -0.006414       0.538812
      8 O                    -0.067223       0.478407
      9 H                     0.365780      -0.009110
  --------------------------------------------------------
  Sum of atomic charges =     0.000000
  Sum of spin   charges =     1.000000

 -----------------------------------------------------------------
                    Cartesian Multipole Moments
 -----------------------------------------------------------------
    Charge (ESU x 10^10)
                 0.0000
    Dipole Moment (Debye)
         X       1.5749      Y       0.5771      Z       0.4372
       Tot       1.7333
    Quadrupole Moments (Debye-Ang)
        XX     -39.9747     XY      -3.1878     YY     -39.8529
        XZ      -0.8078     YZ      -3.1740     ZZ     -31.7301
    Octopole Moments (Debye-Ang^2)
       XXX      14.1609    XXY      17.1620    XYY       1.6220
       YYY       3.4990    XXZ       5.6904    XYZ       0.8641
       YYZ       0.1020    XZZ      -2.6108    YZZ       2.4259
       ZZZ       3.9251
    Hexadecapole Moments (Debye-Ang^3)
      XXXX    -458.0908   XXXY     -46.9196   XXYY    -106.5818
      XYYY     -42.0714   YYYY    -181.9535   XXXZ      17.2018
      XXYZ      -3.3921   XYYZ       6.3295   YYYZ     -12.8781
      XXZZ     -80.1106   XYZZ     -11.0310   YYZZ     -40.9865
      XZZZ      14.3016   YZZZ     -14.5710   ZZZZ     -69.5438
 -----------------------------------------------------------------
 Calculating analytic gradient of the SCF energy
 Gradient of CDS energy
            1           2           3           4           5           6
    1  -0.0019999   0.0010563   0.0001239   0.0015300   0.0000144  -0.0011925
    2  -0.0015470   0.0006915   0.0001099   0.0024641  -0.0002241  -0.0014774
    3  -0.0000766   0.0005545   0.0000778   0.0006698  -0.0001617  -0.0010296
            7           8           9
    1   0.0002210  -0.0000264   0.0002731
    2   0.0001000  -0.0002597   0.0001427
    3  -0.0000284  -0.0001472   0.0001414
 Gradient of SCF Energy
            1           2           3           4           5           6
    1   0.0015297  -0.0066093   0.0025917   0.0043153  -0.0023011  -0.0026864
    2   0.0027143  -0.0045314  -0.0008934  -0.0043866   0.0021970   0.0090269
    3  -0.0075842  -0.0032781   0.0101220   0.0097471  -0.0108649   0.0032009
            7           8           9
    1  -0.0032683   0.0052732   0.0011552
    2  -0.0016998  -0.0027239   0.0002970
    3  -0.0019937  -0.0006597   0.0013105
 Max gradient component =       1.086E-02
 RMS gradient           =       4.976E-03
 Computing fast CPCM-SWIG gradient
 Updating gradient with PCM contributions...
 -- total gradient after adding PCM contribution --
---------------------------------------------------
  Atom         X              Y              Z     
---------------------------------------------------
   1       0.001158       0.000581       0.000395
   2      -0.000888      -0.000462      -0.000425
   3      -0.000139       0.000072      -0.000042
   4      -0.000036      -0.000131       0.000061
   5       0.000051      -0.000018      -0.000040
   6      -0.000152       0.000017      -0.000002
   7      -0.000159       0.000085       0.000063
   8       0.000138      -0.000082       0.000034
   9       0.000028      -0.000061      -0.000044
---------------------------------------------------
 Number of fixed atoms: 0
 Gradient time:  CPU 63.60 s  wall 5.13 s
 ----------------------------------------------------------------
             Standard Nuclear Orientation (Angstroms)
    I     Atom           X                Y                Z
 ----------------------------------------------------------------
    1      C      -1.1464990729    -0.4336396230     0.4680526995
    2      O      -2.0567914655    -1.0078189221    -0.0727297783
    3      H      -0.9319162890    -0.5248207358     1.5434370862
    4      C      -0.2140251340     0.4811059473    -0.3001375466
    5      H      -0.4970758750     0.6648592846    -1.3387763357
    6      O       0.4707184350     1.3330243073     0.3565603192
    7      O       1.0711199983    -0.7689769156    -0.6452664390
    8      O       2.0970559045    -0.2345219479    -0.1064836761
    9      H       1.6083375597     0.7198570415     0.2935816276
 ----------------------------------------------------------------
 Nuclear Repulsion Energy =         236.30670426 hartrees
 There are       24 alpha and       23 beta electrons
 Discretize the solute cavity surface with Lebedev spheres
	Using 110 Lebedev grid points for each H atom
	Using 194 Lebedev grid points for other atoms
	Atomic van der Waals radii will be scaled by 1.20
 Remove points where switching function is < 1.0e-08
 Keep 804 surface tesserae and discard 690 interior tesserae
 Molecular Surface Area = 98.950 Angst**2

                       Distance Matrix (Angstroms)
             C (  1)   O (  2)   H (  3)   C (  4)   H (  5)   O (  6)
   O (  2)  1.204475
   H (  3)  1.100369  2.027468
   C (  4)  1.515382  2.380000  2.219465
   H (  5)  2.212031  2.614085  3.148266  1.092087
   O (  6)  2.397691  3.471620  2.612977  1.275104  2.063307
   O (  7)  2.503950  3.188836  2.976943  1.825765  2.235191  2.404693
   O (  8)  3.300059  4.225349  3.461385  2.427081  3.009477  2.305772
   H (  9)  2.991675  4.068442  3.092612  1.931453  2.664654  1.293877
             O (  7)   O (  8)
   O (  8)  1.276117
   H (  9)  1.840289  1.144437
 
 Requested basis set is 6-311++G(2df,2p)
 There are 66 shells and 234 basis functions
 A cutoff of  1.0D-12 yielded   2101 shell pairs
 There are     26464 function pairs (     33626 Cartesian)
 Smallest overlap matrix eigenvalue = 7.46E-05
 Guess MOs from SCF MO coefficient file

 -----------------------------------------------------------------------
  General SCF calculation program by
  Eric Jon Sundstrom, Paul Horn, Yuezhi Mao, Dmitri Zuev, Alec White,
  David Stuck, Shaama M.S., Shane Yost, Joonho Lee, David Small,
  Daniel Levine, Susi Lehtola, Hugh Burton, Evgeny Epifanovsky,
  Bang C. Huynh
 -----------------------------------------------------------------------
 Exchange:     0.1500 Hartree-Fock + 1.0000 wB97M-V + LR-HF
 Correlation:  1.0000 wB97M-V
 Using SG-2 standard quadrature grid
 Nonlocal Correlation:  VV10 with C = 0.0100 and b = 6.00 and scale = 1.00000
 Grid used for NLC:  SG-1 standard quadrature
 
 Citation of the SMD model:
 Marenich, A.V.; Cramer, C.J.; Truhlar, D.G.
 J. Phys. Chem. B 2009, 113, 6378-6396.
 iSolventCode=           1
 Solvent: water                                                           
 
 vradii
            1           2           3           4           5           6
    1   1.8500000   1.5200000   1.2000000   1.8500000   1.2000000   1.5200000
            7           8           9
    1   1.5200000   1.5200000   1.2000000
 -------------------------------------------------------
 OpenMP BLAS3 based DFT computing Module                
 Release: version 1.0, May 2013, Q-Chem Inc. Pittsburgh 
 -------------------------------------------------------
 A unrestricted SCF calculation will be
 performed using Roothaan-Hall, DIIS, GDM
 SCF converges when RMS gradient is below 1.0e-07
 ---------------------------------------
  Cycle       Energy         DIIS error
 ---------------------------------------
    1    -378.7470156900      2.53e-04  Roothaan Step
 ---------------------------------------
  Cycle       Energy         DIIS error
 ---------------------------------------
    1    -378.7626305928      3.59e-04  
    2    -378.7633358694      4.40e-04  Done DIIS. Switching to GDM
 ---------------------------------------
  Cycle       Energy        RMS Gradient
 ---------------------------------------
    1    -378.7633358694      3.16e-02   Normal BFGS step
    2    -378.7610797857      4.70e-02  Line search: overstep
    3    -378.7667685036      2.97e-03   Normal BFGS step
    4    -378.7668395694      1.22e-03   Normal BFGS step
    5    -378.7668499827      1.26e-03   Normal BFGS step
    6    -378.7668544611      4.78e-04   Normal BFGS step
    7    -378.7668552327      8.47e-05   Normal BFGS step
    8    -378.7668553195      4.55e-05   Normal BFGS step
    9    -378.7668553454      3.92e-05   Normal BFGS step
   10    -378.7668553546      2.37e-05   Normal BFGS step
   11    -378.7668553581      1.38e-05   Normal BFGS step
   12    -378.7668553590      7.95e-06   Normal BFGS step
   13    -378.7668553592      3.66e-06   Normal BFGS step
   14    -378.7668553593      1.68e-06   Normal BFGS step
   15    -378.7668553593      7.35e-07   Normal BFGS step
   16    -378.7668553593      3.31e-07   Normal BFGS step
   17    -378.7668553593      1.65e-07   Normal BFGS step
   18    -378.7668553593      5.76e-08  Convergence criterion met
 ---------------------------------------
 SCF time:   CPU 504.88s  wall 32.00s 
<S^2> =          0.755304473
(3)  G-ENP(liq) elect-nuc-pol free energy of system     -378.766855359 a.u.
(4)  G-CDS(liq) cavity-dispersion-solvent structure 
     free energy                                                3.6318 kcal/mol
(6)  G-S(liq) free energy of system                     -378.761067724 a.u.
 SCF   energy in the final basis set =     -378.7610677237
 Total energy in the final basis set =     -378.7610677237
 
 --------------------------------------------------------------
 
                    Orbital Energies (a.u.)
 --------------------------------------------------------------
 
 Alpha MOs
 -- Occupied --
-19.4776 -19.4734 -19.3648 -19.3467 -10.4645 -10.4533  -1.3927  -1.2134
 -1.1887  -1.0070  -0.8307  -0.7373  -0.7133  -0.6541  -0.6432  -0.6102
 -0.5987  -0.5611  -0.5327  -0.4771  -0.4558  -0.4373  -0.4220  -0.3709
 -- Virtual --
  0.0052   0.0368   0.0452   0.0515   0.0814   0.0943   0.1025   0.1160
  0.1208   0.1433   0.1531   0.1612   0.1790   0.1812   0.2021   0.2319
  0.2387   0.2503   0.2621   0.2708   0.2890   0.2903   0.3123   0.3165
  0.3279   0.3325   0.3433   0.3495   0.3568   0.3775   0.3940   0.3998
  0.4130   0.4488   0.4792   0.4910   0.5559   0.5899   0.5973   0.6311
  0.6503   0.6625   0.6702   0.6983   0.7401   0.7522   0.8035   0.8287
  0.8555   0.9015   0.9337   0.9925   1.0253   1.0462   1.0654   1.0738
  1.0851   1.1062   1.1229   1.1389   1.1499   1.1621   1.1791   1.1837
  1.1993   1.2191   1.2326   1.2512   1.2650   1.3173   1.3342   1.3893
  1.4123   1.4276   1.4729   1.5023   1.5469   1.5586   1.5760   1.6253
  1.6621   1.6917   1.7497   1.7784   1.7901   1.8506   1.9070   1.9843
  2.0013   2.0453   2.0785   2.1238   2.1689   2.2548   2.2744   2.3039
  2.4712   2.4964   2.5245   2.5325   2.6243   2.6508   2.6599   2.7031
  2.7390   2.8342   2.8878   2.9458   2.9883   3.0264   3.0861   3.1101
  3.1478   3.2233   3.2753   3.3238   3.3593   3.4006   3.4130   3.4387
  3.4512   3.5753   3.5870   3.6293   3.6573   3.6813   3.7345   3.7842
  3.8173   3.8898   3.9034   3.9381   3.9775   4.0721   4.1691   4.1808
  4.2206   4.2931   4.3278   4.4815   4.5197   4.6615   4.6780   4.7013
  4.7259   4.7913   4.8961   5.0221   5.0563   5.0983   5.1117   5.1365
  5.1450   5.1640   5.1840   5.2068   5.2133   5.2235   5.2609   5.2853
  5.3131   5.3452   5.3774   5.4147   5.4720   5.5334   5.5447   5.5698
  5.5706   5.6166   5.6280   5.7316   5.7661   5.8722   6.1860   6.3256
  6.4020   6.4200   6.5330   6.7045   6.7687   6.8078   6.9119   6.9348
  6.9640   7.0027   7.0472   7.0590   7.0944   7.1170   7.1410   7.2749
  7.2976   7.3452   7.3955   7.4736   7.4913   7.5058   7.5502   7.7240
  7.7520   7.9611   8.0172   8.1230  24.7849  24.9659  50.4494  50.4728
 50.6951  50.7079
 
 Beta MOs
 -- Occupied --
-19.4614 -19.4590 -19.3648 -19.3467 -10.4648 -10.4531  -1.3645  -1.2132
 -1.1879  -0.9689  -0.8269  -0.7276  -0.7089  -0.6257  -0.6120  -0.6068
 -0.5649  -0.5491  -0.5294  -0.4719  -0.4432  -0.4247  -0.3745
 -- Virtual --
 -0.0543   0.0094   0.0370   0.0454   0.0519   0.0820   0.0950   0.1046
  0.1165   0.1217   0.1444   0.1538   0.1627   0.1795   0.1858   0.2052
  0.2367   0.2407   0.2511   0.2641   0.2723   0.2918   0.2990   0.3130
  0.3172   0.3296   0.3360   0.3440   0.3513   0.3577   0.3804   0.3963
  0.4011   0.4137   0.4491   0.4796   0.4921   0.5578   0.5915   0.5979
  0.6315   0.6516   0.6630   0.6710   0.6987   0.7402   0.7523   0.8068
  0.8291   0.8561   0.9025   0.9347   0.9972   1.0264   1.0511   1.0760
  1.0788   1.0880   1.1118   1.1368   1.1417   1.1549   1.1688   1.1806
  1.1895   1.2014   1.2214   1.2348   1.2625   1.2756   1.3191   1.3365
  1.3936   1.4159   1.4404   1.4763   1.5115   1.5595   1.5636   1.5768
  1.6324   1.6771   1.6998   1.7588   1.7811   1.7920   1.8518   1.9225
  1.9918   2.0075   2.0524   2.0799   2.1319   2.1723   2.2618   2.2932
  2.3172   2.4728   2.4981   2.5291   2.5364   2.6288   2.6534   2.6639
  2.7054   2.7389   2.8343   2.8880   2.9451   2.9882   3.0264   3.0859
  3.1100   3.1473   3.2228   3.2755   3.3234   3.3592   3.4008   3.4140
  3.4384   3.4511   3.5745   3.5878   3.6291   3.6576   3.6805   3.7344
  3.7838   3.8173   3.8898   3.9049   3.9382   3.9773   4.0714   4.1688
  4.1807   4.2207   4.2937   4.3286   4.4825   4.5598   4.6732   4.7031
  4.7119   4.7278   4.8070   4.9080   5.0697   5.0988   5.1070   5.1433
  5.1500   5.1661   5.1795   5.2061   5.2314   5.2394   5.2512   5.2855
  5.3014   5.3212   5.3638   5.3852   5.4184   5.4837   5.5348   5.5553
  5.5718   5.5773   5.6215   5.6512   5.7357   5.7826   5.8727   6.1879
  6.3259   6.4039   6.4289   6.5835   6.7179   6.7729   6.8547   6.9234
  6.9659   6.9872   7.0057   7.0994   7.1128   7.1290   7.1351   7.1548
  7.2972   7.3141   7.3873   7.4159   7.4831   7.4969   7.5220   7.5542
  7.7273   7.7589   7.9650   8.0298   8.1430  24.7847  24.9660  50.4609
 50.4851  50.6952  50.7080
 --------------------------------------------------------------
 
          Ground-State Mulliken Net Atomic Charges

     Atom                 Charge (a.u.)    Spin (a.u.)
  --------------------------------------------------------
      1 C                     0.147562       0.009841
      2 O                    -0.347175       0.000346
      3 H                     0.219728       0.000937
      4 C                    -0.114228      -0.028603
      5 H                     0.270748       0.007226
      6 O                    -0.468581       0.002182
      7 O                    -0.006610       0.538844
      8 O                    -0.067242       0.478332
      9 H                     0.365798      -0.009106
  --------------------------------------------------------
  Sum of atomic charges =     0.000000
  Sum of spin   charges =     1.000000

 -----------------------------------------------------------------
                    Cartesian Multipole Moments
 -----------------------------------------------------------------
    Charge (ESU x 10^10)
                 0.0000
    Dipole Moment (Debye)
         X       1.5621      Y       0.5721      Z       0.4351
       Tot       1.7195
    Quadrupole Moments (Debye-Ang)
        XX     -39.9522     XY      -3.1780     YY     -39.8484
        XZ      -0.8057     YZ      -3.1721     ZZ     -31.7382
    Octopole Moments (Debye-Ang^2)
       XXX      14.1047    XXY      17.1420    XYY       1.6132
       YYY       3.4786    XXZ       5.6923    XYZ       0.8628
       YYZ       0.1010    XZZ      -2.6032    YZZ       2.4220
       ZZZ       3.9115
    Hexadecapole Moments (Debye-Ang^3)
      XXXX    -458.0683   XXXY     -46.8790   XXYY    -106.5728
      XYYY     -42.0507   YYYY    -181.9249   XXXZ      17.2094
      XXYZ      -3.3953   XYYZ       6.3327   YYYZ     -12.8779
      XXZZ     -80.1268   XYZZ     -11.0284   YYZZ     -40.9900
      XZZZ      14.3353   YZZZ     -14.5594   ZZZZ     -69.6004
 -----------------------------------------------------------------
 Calculating analytic gradient of the SCF energy
 Gradient of CDS energy
            1           2           3           4           5           6
    1  -0.0019851   0.0010388   0.0001245   0.0015318   0.0000146  -0.0011924
    2  -0.0015381   0.0006818   0.0001101   0.0024652  -0.0002241  -0.0014777
    3  -0.0000675   0.0005456   0.0000781   0.0006689  -0.0001616  -0.0010294
            7           8           9
    1   0.0002212  -0.0000266   0.0002731
    2   0.0000998  -0.0002597   0.0001427
    3  -0.0000286  -0.0001471   0.0001414
 Gradient of SCF Energy
            1           2           3           4           5           6
    1  -0.0008781  -0.0048789   0.0028440   0.0046816  -0.0023456  -0.0026620
    2   0.0016227  -0.0035699  -0.0009159  -0.0042595   0.0021805   0.0090931
    3  -0.0083720  -0.0024129   0.0101805   0.0096195  -0.0108130   0.0031821
            7           8           9
    1  -0.0031540   0.0052318   0.0011612
    2  -0.0017166  -0.0027296   0.0002952
    3  -0.0020193  -0.0006739   0.0013090
 Max gradient component =       1.081E-02
 RMS gradient           =       4.882E-03
 Computing fast CPCM-SWIG gradient
 Updating gradient with PCM contributions...
 -- total gradient after adding PCM contribution --
---------------------------------------------------
  Atom         X              Y              Z     
---------------------------------------------------
   1      -0.001227      -0.000535      -0.000428
   2       0.000845       0.000509       0.000453
   3       0.000092       0.000054       0.000048
   4       0.000322      -0.000001      -0.000068
   5       0.000013      -0.000027      -0.000004
   6      -0.000134       0.000086      -0.000017
   7      -0.000056       0.000063       0.000038
   8       0.000109      -0.000091       0.000018
   9       0.000037      -0.000058      -0.000040
---------------------------------------------------
 Number of fixed atoms: 0
 Gradient time:  CPU 63.19 s  wall 5.22 s
 ----------------------------------------------------------------
             Standard Nuclear Orientation (Angstroms)
    I     Atom           X                Y                Z
 ----------------------------------------------------------------
    1      C      -1.1454990729    -0.4326396230     0.4680526995
    2      O      -2.0567914655    -1.0078189221    -0.0727297783
    3      H      -0.9319162890    -0.5248207358     1.5434370862
    4      C      -0.2140251340     0.4811059473    -0.3001375466
    5      H      -0.4970758750     0.6648592846    -1.3387763357
    6      O       0.4707184350     1.3330243073     0.3565603192
    7      O       1.0711199983    -0.7689769156    -0.6452664390
    8      O       2.0970559045    -0.2345219479    -0.1064836761
    9      H       1.6083375597     0.7198570415     0.2935816276
 ----------------------------------------------------------------
 Nuclear Repulsion Energy =         236.30824966 hartrees
 There are       24 alpha and       23 beta electrons
 Discretize the solute cavity surface with Lebedev spheres
	Using 110 Lebedev grid points for each H atom
	Using 194 Lebedev grid points for other atoms
	Atomic van der Waals radii will be scaled by 1.20
 Remove points where switching function is < 1.0e-08
 Keep 806 surface tesserae and discard 688 interior tesserae
 Molecular Surface Area = 98.947 Angst**2

                       Distance Matrix (Angstroms)
             C (  1)   O (  2)   H (  3)   C (  4)   H (  5)   O (  6)
   O (  2)  1.205708
   H (  3)  1.100257  2.027468
   C (  4)  1.514163  2.380000  2.219465
   H (  5)  2.211241  2.614085  3.148266  1.092087
   O (  6)  2.396280  3.471620  2.612977  1.275104  2.063307
   O (  7)  2.503198  3.188836  2.976943  1.825765  2.235191  2.404693
   O (  8)  3.299016  4.225349  3.461385  2.427081  3.009477  2.305772
   H (  9)  2.990369  4.068442  3.092612  1.931453  2.664654  1.293877
             O (  7)   O (  8)
   O (  8)  1.276117
   H (  9)  1.840289  1.144437
 
 Requested basis set is 6-311++G(2df,2p)
 There are 66 shells and 234 basis functions
 A cutoff of  1.0D-12 yielded   2101 shell pairs
 There are     26464 function pairs (     33626 Cartesian)
 Smallest overlap matrix eigenvalue = 7.43E-05
 Guess MOs from SCF MO coefficient file

 -----------------------------------------------------------------------
  General SCF calculation program by
  Eric Jon Sundstrom, Paul Horn, Yuezhi Mao, Dmitri Zuev, Alec White,
  David Stuck, Shaama M.S., Shane Yost, Joonho Lee, David Small,
  Daniel Levine, Susi Lehtola, Hugh Burton, Evgeny Epifanovsky,
  Bang C. Huynh
 -----------------------------------------------------------------------
 Exchange:     0.1500 Hartree-Fock + 1.0000 wB97M-V + LR-HF
 Correlation:  1.0000 wB97M-V
 Using SG-2 standard quadrature grid
 Nonlocal Correlation:  VV10 with C = 0.0100 and b = 6.00 and scale = 1.00000
 Grid used for NLC:  SG-1 standard quadrature
 
 Citation of the SMD model:
 Marenich, A.V.; Cramer, C.J.; Truhlar, D.G.
 J. Phys. Chem. B 2009, 113, 6378-6396.
 iSolventCode=           1
 Solvent: water                                                           
 
 vradii
            1           2           3           4           5           6
    1   1.8500000   1.5200000   1.2000000   1.8500000   1.2000000   1.5200000
            7           8           9
    1   1.5200000   1.5200000   1.2000000
 -------------------------------------------------------
 OpenMP BLAS3 based DFT computing Module                
 Release: version 1.0, May 2013, Q-Chem Inc. Pittsburgh 
 -------------------------------------------------------
 A unrestricted SCF calculation will be
 performed using Roothaan-Hall, DIIS, GDM
 SCF converges when RMS gradient is below 1.0e-07
 ---------------------------------------
  Cycle       Energy         DIIS error
 ---------------------------------------
    1    -378.7470201076      2.53e-04  Roothaan Step
 ---------------------------------------
  Cycle       Energy         DIIS error
 ---------------------------------------
    1    -378.7625494071      3.63e-04  
    2    -378.7632053929      4.48e-04  Done DIIS. Switching to GDM
 ---------------------------------------
  Cycle       Energy        RMS Gradient
 ---------------------------------------
    1    -378.7632053929      3.23e-02   Normal BFGS step
    2    -378.7608438649      4.80e-02  Line search: overstep
    3    -378.7667609522      2.95e-03   Normal BFGS step
    4    -378.7668329375      1.25e-03   Normal BFGS step
    5    -378.7668435139      1.28e-03   Normal BFGS step
    6    -378.7668482089      4.74e-04   Normal BFGS step
    7    -378.7668489730      8.76e-05   Normal BFGS step
    8    -378.7668490652      4.63e-05   Normal BFGS step
    9    -378.7668490921      3.98e-05   Normal BFGS step
   10    -378.7668491016      2.40e-05   Normal BFGS step
   11    -378.7668491053      1.38e-05   Normal BFGS step
   12    -378.7668491062      8.11e-06   Normal BFGS step
   13    -378.7668491064      3.78e-06   Normal BFGS step
   14    -378.7668491065      1.68e-06   Normal BFGS step
   15    -378.7668491065      7.50e-07   Normal BFGS step
   16    -378.7668491065      3.40e-07   Normal BFGS step
   17    -378.7668491065      1.66e-07   Normal BFGS step
   18    -378.7668491065      6.07e-08  Convergence criterion met
 ---------------------------------------
 SCF time:   CPU 505.43s  wall 32.00s 
<S^2> =          0.755307698
(3)  G-ENP(liq) elect-nuc-pol free energy of system     -378.766849107 a.u.
(4)  G-CDS(liq) cavity-dispersion-solvent structure 
     free energy                                                3.6276 kcal/mol
(6)  G-S(liq) free energy of system                     -378.761068147 a.u.
 SCF   energy in the final basis set =     -378.7610681467
 Total energy in the final basis set =     -378.7610681467
 
 --------------------------------------------------------------
 
                    Orbital Energies (a.u.)
 --------------------------------------------------------------
 
 Alpha MOs
 -- Occupied --
-19.4777 -19.4735 -19.3648 -19.3468 -10.4645 -10.4534  -1.3928  -1.2128
 -1.1887  -1.0071  -0.8310  -0.7374  -0.7133  -0.6542  -0.6433  -0.6101
 -0.5987  -0.5609  -0.5324  -0.4771  -0.4558  -0.4373  -0.4220  -0.3711
 -- Virtual --
  0.0048   0.0368   0.0452   0.0515   0.0814   0.0943   0.1025   0.1160
  0.1208   0.1433   0.1531   0.1612   0.1790   0.1812   0.2021   0.2319
  0.2387   0.2503   0.2621   0.2708   0.2890   0.2903   0.3123   0.3164
  0.3279   0.3325   0.3434   0.3495   0.3568   0.3775   0.3941   0.3999
  0.4131   0.4488   0.4791   0.4910   0.5558   0.5899   0.5972   0.6311
  0.6503   0.6625   0.6703   0.6982   0.7400   0.7521   0.8035   0.8283
  0.8555   0.9014   0.9338   0.9925   1.0253   1.0462   1.0654   1.0738
  1.0851   1.1062   1.1229   1.1389   1.1500   1.1622   1.1792   1.1837
  1.1994   1.2192   1.2326   1.2513   1.2650   1.3175   1.3343   1.3894
  1.4124   1.4277   1.4729   1.5023   1.5468   1.5586   1.5759   1.6253
  1.6622   1.6916   1.7497   1.7782   1.7897   1.8505   1.9070   1.9842
  2.0012   2.0453   2.0783   2.1237   2.1687   2.2548   2.2744   2.3039
  2.4710   2.4962   2.5244   2.5321   2.6243   2.6507   2.6597   2.7029
  2.7393   2.8340   2.8881   2.9456   2.9886   3.0264   3.0861   3.1103
  3.1483   3.2233   3.2756   3.3239   3.3592   3.4012   3.4130   3.4387
  3.4512   3.5754   3.5866   3.6290   3.6574   3.6813   3.7341   3.7843
  3.8171   3.8908   3.9035   3.9377   3.9779   4.0725   4.1700   4.1817
  4.2210   4.2924   4.3281   4.4808   4.5196   4.6618   4.6779   4.7022
  4.7272   4.7913   4.8960   5.0220   5.0563   5.0985   5.1116   5.1365
  5.1451   5.1640   5.1840   5.2068   5.2132   5.2234   5.2609   5.2853
  5.3131   5.3451   5.3769   5.4151   5.4719   5.5335   5.5446   5.5689
  5.5696   5.6171   5.6280   5.7315   5.7661   5.8694   6.1859   6.3231
  6.4004   6.4198   6.5330   6.7044   6.7661   6.8072   6.9118   6.9345
  6.9636   7.0024   7.0472   7.0589   7.0944   7.1170   7.1386   7.2748
  7.2975   7.3451   7.3954   7.4736   7.4913   7.5057   7.5502   7.7237
  7.7518   7.9611   8.0171   8.1230  24.7843  24.9664  50.4494  50.4727
 50.6935  50.7076
 
 Beta MOs
 -- Occupied --
-19.4614 -19.4591 -19.3648 -19.3467 -10.4649 -10.4532  -1.3646  -1.2126
 -1.1879  -0.9690  -0.8273  -0.7277  -0.7089  -0.6258  -0.6120  -0.6067
 -0.5647  -0.5491  -0.5291  -0.4719  -0.4431  -0.4246  -0.3747
 -- Virtual --
 -0.0544   0.0091   0.0370   0.0454   0.0519   0.0820   0.0950   0.1046
  0.1165   0.1217   0.1444   0.1538   0.1627   0.1795   0.1858   0.2052
  0.2367   0.2407   0.2512   0.2641   0.2723   0.2918   0.2990   0.3130
  0.3172   0.3296   0.3360   0.3440   0.3513   0.3577   0.3804   0.3964
  0.4011   0.4139   0.4491   0.4795   0.4921   0.5577   0.5915   0.5978
  0.6315   0.6516   0.6630   0.6712   0.6986   0.7401   0.7522   0.8068
  0.8287   0.8562   0.9025   0.9348   0.9972   1.0265   1.0511   1.0760
  1.0789   1.0880   1.1118   1.1368   1.1417   1.1550   1.1688   1.1807
  1.1895   1.2014   1.2214   1.2348   1.2626   1.2756   1.3193   1.3365
  1.3937   1.4159   1.4405   1.4763   1.5115   1.5595   1.5635   1.5766
  1.6325   1.6772   1.6997   1.7587   1.7810   1.7916   1.8517   1.9224
  1.9917   2.0074   2.0524   2.0797   2.1318   2.1721   2.2618   2.2931
  2.3173   2.4726   2.4979   2.5288   2.5363   2.6288   2.6533   2.6636
  2.7052   2.7392   2.8342   2.8883   2.9449   2.9884   3.0265   3.0859
  3.1101   3.1478   3.2228   3.2758   3.3235   3.3591   3.4014   3.4140
  3.4384   3.4511   3.5747   3.5874   3.6288   3.6577   3.6806   3.7340
  3.7838   3.8171   3.8908   3.9050   3.9378   3.9777   4.0718   4.1698
  4.1816   4.2210   4.2930   4.3288   4.4818   4.5598   4.6738   4.7031
  4.7126   4.7290   4.8070   4.9080   5.0698   5.0989   5.1071   5.1433
  5.1501   5.1661   5.1794   5.2060   5.2313   5.2394   5.2512   5.2855
  5.3013   5.3212   5.3635   5.3849   5.4188   5.4836   5.5349   5.5552
  5.5703   5.5770   5.6221   5.6512   5.7356   5.7827   5.8699   6.1878
  6.3234   6.4022   6.4288   6.5834   6.7179   6.7699   6.8545   6.9233
  6.9653   6.9872   7.0055   7.0989   7.1127   7.1288   7.1351   7.1530
  7.2971   7.3141   7.3872   7.4158   7.4831   7.4968   7.5219   7.5542
  7.7269   7.7588   7.9650   8.0298   8.1429  24.7841  24.9664  50.4609
 50.4850  50.6936  50.7077
 --------------------------------------------------------------
 
          Ground-State Mulliken Net Atomic Charges

     Atom                 Charge (a.u.)    Spin (a.u.)
  --------------------------------------------------------
      1 C                     0.147901       0.009842
      2 O                    -0.348073       0.000315
      3 H                     0.220124       0.000933
      4 C                    -0.114594      -0.028627
      5 H                     0.270859       0.007218
      6 O                    -0.468466       0.002171
      7 O                    -0.006493       0.538828
      8 O                    -0.067059       0.478427
      9 H                     0.365801      -0.009108
  --------------------------------------------------------
  Sum of atomic charges =     0.000000
  Sum of spin   charges =     1.000000

 -----------------------------------------------------------------
                    Cartesian Multipole Moments
 -----------------------------------------------------------------
    Charge (ESU x 10^10)
                 0.0000
    Dipole Moment (Debye)
         X       1.5723      Y       0.5770      Z       0.4363
       Tot       1.7307
    Quadrupole Moments (Debye-Ang)
        XX     -39.9663     XY      -3.1880     YY     -39.8531
        XZ      -0.8073     YZ      -3.1730     ZZ     -31.7335
    Octopole Moments (Debye-Ang^2)
       XXX      14.1583    XXY      17.1530    XYY       1.6240
       YYY       3.4805    XXZ       5.6910    XYZ       0.8634
       YYZ       0.1011    XZZ      -2.6037    YZZ       2.4190
       ZZZ       3.9200
    Hexadecapole Moments (Debye-Ang^3)
      XXXX    -458.1092   XXXY     -46.9010   XXYY    -106.5805
      XYYY     -42.0558   YYYY    -181.9200   XXXZ      17.2060
      XXYZ      -3.3943   XYYZ       6.3315   YYYZ     -12.8837
      XXZZ     -80.1233   XYZZ     -11.0268   YYZZ     -40.9829
      XZZZ      14.3159   YZZZ     -14.5766   ZZZZ     -69.5650
 -----------------------------------------------------------------
 Calculating analytic gradient of the SCF energy
 Gradient of CDS energy
            1           2           3           4           5           6
    1  -0.0019969   0.0010524   0.0001242   0.0015306   0.0000144  -0.0011924
    2  -0.0015453   0.0006908   0.0001097   0.0024634  -0.0002241  -0.0014774
    3  -0.0000754   0.0005529   0.0000783   0.0006697  -0.0001617  -0.0010296
            7           8           9
    1   0.0002211  -0.0000265   0.0002731
    2   0.0000998  -0.0002597   0.0001427
    3  -0.0000285  -0.0001472   0.0001414
 Gradient of SCF Energy
            1           2           3           4           5           6
    1   0.0008730  -0.0062226   0.0027318   0.0044540  -0.0023405  -0.0027373
    2   0.0029531  -0.0044728  -0.0010377  -0.0045269   0.0021975   0.0090272
    3  -0.0078833  -0.0030958   0.0102209   0.0097877  -0.0108407   0.0031901
            7           8           9
    1  -0.0032091   0.0052822   0.0011684
    2  -0.0017073  -0.0027156   0.0002826
    3  -0.0020385  -0.0006457   0.0013054
 Max gradient component =       1.084E-02
 RMS gradient           =       4.990E-03
 Computing fast CPCM-SWIG gradient
 Updating gradient with PCM contributions...
 -- total gradient after adding PCM contribution --
---------------------------------------------------
  Atom         X              Y              Z     
---------------------------------------------------
   1       0.000524       0.000789       0.000082
   2      -0.000505      -0.000396      -0.000242
   3      -0.000013      -0.000055       0.000072
   4       0.000097      -0.000266       0.000101
   5       0.000015      -0.000017      -0.000020
   6      -0.000203       0.000018      -0.000013
   7      -0.000103       0.000077       0.000023
   8       0.000148      -0.000076       0.000045
   9       0.000041      -0.000074      -0.000048
---------------------------------------------------
 Number of fixed atoms: 0
 Gradient time:  CPU 62.32 s  wall 5.05 s
 ----------------------------------------------------------------
             Standard Nuclear Orientation (Angstroms)
    I     Atom           X                Y                Z
 ----------------------------------------------------------------
    1      C      -1.1454990729    -0.4346396230     0.4680526995
    2      O      -2.0567914655    -1.0078189221    -0.0727297783
    3      H      -0.9319162890    -0.5248207358     1.5434370862
    4      C      -0.2140251340     0.4811059473    -0.3001375466
    5      H      -0.4970758750     0.6648592846    -1.3387763357
    6      O       0.4707184350     1.3330243073     0.3565603192
    7      O       1.0711199983    -0.7689769156    -0.6452664390
    8      O       2.0970559045    -0.2345219479    -0.1064836761
    9      H       1.6083375597     0.7198570415     0.2935816276
 ----------------------------------------------------------------
 Nuclear Repulsion Energy =         236.30868773 hartrees
 There are       24 alpha and       23 beta electrons
 Discretize the solute cavity surface with Lebedev spheres
	Using 110 Lebedev grid points for each H atom
	Using 194 Lebedev grid points for other atoms
	Atomic van der Waals radii will be scaled by 1.20
 Remove points where switching function is < 1.0e-08
 Keep 806 surface tesserae and discard 688 interior tesserae
 Molecular Surface Area = 98.948 Angst**2

                       Distance Matrix (Angstroms)
             C (  1)   O (  2)   H (  3)   C (  4)   H (  5)   O (  6)
   O (  2)  1.204755
   H (  3)  1.100092  2.027468
   C (  4)  1.515371  2.380000  2.219465
   H (  5)  2.212235  2.614085  3.148266  1.092087
   O (  6)  2.397754  3.471620  2.612977  1.275104  2.063307
   O (  7)  2.502930  3.188836  2.976943  1.825765  2.235191  2.404693
   O (  8)  3.299137  4.225349  3.461385  2.427081  3.009477  2.305772
   H (  9)  2.991140  4.068442  3.092612  1.931453  2.664654  1.293877
             O (  7)   O (  8)
   O (  8)  1.276117
   H (  9)  1.840289  1.144437
 
 Requested basis set is 6-311++G(2df,2p)
 There are 66 shells and 234 basis functions
 A cutoff of  1.0D-12 yielded   2101 shell pairs
 There are     26464 function pairs (     33626 Cartesian)
 Smallest overlap matrix eigenvalue = 7.46E-05
 Guess MOs from SCF MO coefficient file

 -----------------------------------------------------------------------
  General SCF calculation program by
  Eric Jon Sundstrom, Paul Horn, Yuezhi Mao, Dmitri Zuev, Alec White,
  David Stuck, Shaama M.S., Shane Yost, Joonho Lee, David Small,
  Daniel Levine, Susi Lehtola, Hugh Burton, Evgeny Epifanovsky,
  Bang C. Huynh
 -----------------------------------------------------------------------
 Exchange:     0.1500 Hartree-Fock + 1.0000 wB97M-V + LR-HF
 Correlation:  1.0000 wB97M-V
 Using SG-2 standard quadrature grid
 Nonlocal Correlation:  VV10 with C = 0.0100 and b = 6.00 and scale = 1.00000
 Grid used for NLC:  SG-1 standard quadrature
 
 Citation of the SMD model:
 Marenich, A.V.; Cramer, C.J.; Truhlar, D.G.
 J. Phys. Chem. B 2009, 113, 6378-6396.
 iSolventCode=           1
 Solvent: water                                                           
 
 vradii
            1           2           3           4           5           6
    1   1.8500000   1.5200000   1.2000000   1.8500000   1.2000000   1.5200000
            7           8           9
    1   1.5200000   1.5200000   1.2000000
 -------------------------------------------------------
 OpenMP BLAS3 based DFT computing Module                
 Release: version 1.0, May 2013, Q-Chem Inc. Pittsburgh 
 -------------------------------------------------------
 A unrestricted SCF calculation will be
 performed using Roothaan-Hall, DIIS, GDM
 SCF converges when RMS gradient is below 1.0e-07
 ---------------------------------------
  Cycle       Energy         DIIS error
 ---------------------------------------
    1    -378.7470192733      2.53e-04  Roothaan Step
 ---------------------------------------
  Cycle       Energy         DIIS error
 ---------------------------------------
    1    -378.7626162288      3.60e-04  
    2    -378.7633144299      4.42e-04  Done DIIS. Switching to GDM
 ---------------------------------------
  Cycle       Energy        RMS Gradient
 ---------------------------------------
    1    -378.7633144299      3.18e-02   Normal BFGS step
    2    -378.7610389549      4.72e-02  Line search: overstep
    3    -378.7667677952      2.97e-03   Normal BFGS step
    4    -378.7668391405      1.23e-03   Normal BFGS step
    5    -378.7668495886      1.27e-03   Normal BFGS step
    6    -378.7668541401      4.74e-04   Normal BFGS step
    7    -378.7668549058      8.27e-05   Normal BFGS step
    8    -378.7668549917      3.86e-05   Normal BFGS step
    9    -378.7668550163      3.41e-05   Normal BFGS step
   10    -378.7668550244      2.05e-05   Normal BFGS step
   11    -378.7668550273      1.21e-05   Normal BFGS step
   12    -378.7668550281      7.45e-06   Normal BFGS step
   13    -378.7668550283      3.73e-06   Normal BFGS step
   14    -378.7668550283      1.61e-06   Normal BFGS step
   15    -378.7668550284      7.37e-07   Normal BFGS step
   16    -378.7668550284      3.17e-07   Normal BFGS step
   17    -378.7668550284      1.64e-07   Normal BFGS step
   18    -378.7668550284      6.37e-08  Convergence criterion met
 ---------------------------------------
 SCF time:   CPU 510.19s  wall 32.00s 
<S^2> =          0.755304127
(3)  G-ENP(liq) elect-nuc-pol free energy of system     -378.766855028 a.u.
(4)  G-CDS(liq) cavity-dispersion-solvent structure 
     free energy                                                3.6313 kcal/mol
(6)  G-S(liq) free energy of system                     -378.761068239 a.u.
 SCF   energy in the final basis set =     -378.7610682387
 Total energy in the final basis set =     -378.7610682387
 
 --------------------------------------------------------------
 
                    Orbital Energies (a.u.)
 --------------------------------------------------------------
 
 Alpha MOs
 -- Occupied --
-19.4776 -19.4734 -19.3648 -19.3468 -10.4645 -10.4533  -1.3927  -1.2132
 -1.1887  -1.0070  -0.8307  -0.7373  -0.7133  -0.6541  -0.6432  -0.6102
 -0.5987  -0.5611  -0.5326  -0.4771  -0.4558  -0.4373  -0.4220  -0.3709
 -- Virtual --
  0.0052   0.0368   0.0452   0.0515   0.0814   0.0942   0.1024   0.1160
  0.1208   0.1432   0.1531   0.1612   0.1790   0.1812   0.2021   0.2319
  0.2387   0.2503   0.2621   0.2708   0.2890   0.2903   0.3124   0.3165
  0.3279   0.3325   0.3433   0.3494   0.3568   0.3775   0.3940   0.3999
  0.4129   0.4488   0.4791   0.4909   0.5560   0.5899   0.5973   0.6309
  0.6504   0.6625   0.6702   0.6983   0.7400   0.7522   0.8035   0.8288
  0.8552   0.9015   0.9338   0.9926   1.0252   1.0462   1.0656   1.0738
  1.0852   1.1061   1.1229   1.1389   1.1499   1.1621   1.1791   1.1838
  1.1993   1.2192   1.2326   1.2513   1.2649   1.3172   1.3343   1.3892
  1.4124   1.4277   1.4729   1.5023   1.5469   1.5587   1.5760   1.6253
  1.6620   1.6919   1.7497   1.7784   1.7899   1.8505   1.9072   1.9844
  2.0017   2.0453   2.0780   2.1238   2.1690   2.2547   2.2744   2.3037
  2.4713   2.4963   2.5243   2.5326   2.6244   2.6508   2.6598   2.7029
  2.7389   2.8340   2.8877   2.9460   2.9879   3.0268   3.0861   3.1098
  3.1478   3.2235   3.2756   3.3236   3.3593   3.4007   3.4131   3.4387
  3.4510   3.5752   3.5874   3.6289   3.6571   3.6812   3.7348   3.7840
  3.8172   3.8898   3.9034   3.9383   3.9775   4.0721   4.1690   4.1810
  4.2209   4.2932   4.3278   4.4814   4.5197   4.6617   4.6780   4.7016
  4.7261   4.7914   4.8961   5.0221   5.0563   5.0985   5.1117   5.1367
  5.1450   5.1639   5.1840   5.2068   5.2133   5.2235   5.2608   5.2853
  5.3131   5.3451   5.3774   5.4149   5.4720   5.5334   5.5448   5.5697
  5.5704   5.6165   5.6277   5.7316   5.7661   5.8720   6.1858   6.3251
  6.4016   6.4200   6.5331   6.7045   6.7684   6.8077   6.9119   6.9348
  6.9639   7.0026   7.0472   7.0590   7.0944   7.1169   7.1406   7.2749
  7.2977   7.3451   7.3955   7.4737   7.4913   7.5059   7.5501   7.7239
  7.7519   7.9611   8.0172   8.1230  24.7847  24.9658  50.4495  50.4728
 50.6948  50.7078
 
 Beta MOs
 -- Occupied --
-19.4613 -19.4590 -19.3648 -19.3467 -10.4648 -10.4532  -1.3645  -1.2131
 -1.1879  -0.9689  -0.8270  -0.7276  -0.7089  -0.6257  -0.6119  -0.6068
 -0.5648  -0.5491  -0.5293  -0.4719  -0.4431  -0.4247  -0.3745
 -- Virtual --
 -0.0543   0.0094   0.0370   0.0454   0.0519   0.0820   0.0950   0.1046
  0.1165   0.1217   0.1444   0.1538   0.1627   0.1795   0.1859   0.2052
  0.2367   0.2407   0.2511   0.2641   0.2723   0.2918   0.2990   0.3130
  0.3172   0.3296   0.3360   0.3440   0.3513   0.3577   0.3804   0.3963
  0.4011   0.4137   0.4491   0.4796   0.4920   0.5579   0.5915   0.5979
  0.6313   0.6517   0.6630   0.6711   0.6986   0.7402   0.7524   0.8069
  0.8292   0.8558   0.9026   0.9348   0.9973   1.0263   1.0510   1.0760
  1.0791   1.0881   1.1117   1.1368   1.1418   1.1550   1.1688   1.1806
  1.1896   1.2014   1.2215   1.2348   1.2626   1.2756   1.3191   1.3366
  1.3935   1.4159   1.4405   1.4763   1.5115   1.5595   1.5637   1.5768
  1.6325   1.6769   1.7000   1.7588   1.7811   1.7918   1.8517   1.9226
  1.9921   2.0078   2.0524   2.0794   2.1318   2.1724   2.2617   2.2931
  2.3171   2.4728   2.4980   2.5287   2.5367   2.6290   2.6534   2.6637
  2.7052   2.7389   2.8342   2.8879   2.9453   2.9877   3.0269   3.0859
  3.1097   3.1473   3.2230   3.2758   3.3233   3.3593   3.4009   3.4142
  3.4384   3.4508   3.5744   3.5882   3.6287   3.6573   3.6804   3.7347
  3.7836   3.8172   3.8898   3.9049   3.9383   3.9773   4.0713   4.1688
  4.1808   4.2210   4.2938   4.3285   4.4825   4.5598   4.6735   4.7031
  4.7121   4.7280   4.8070   4.9080   5.0697   5.0989   5.1072   5.1433
  5.1500   5.1659   5.1796   5.2061   5.2313   5.2394   5.2512   5.2855
  5.3014   5.3212   5.3637   5.3853   5.4186   5.4837   5.5348   5.5554
  5.5716   5.5772   5.6213   5.6512   5.7357   5.7827   5.8725   6.1878
  6.3253   6.4034   6.4289   6.5835   6.7179   6.7725   6.8547   6.9234
  6.9658   6.9872   7.0056   7.0992   7.1128   7.1289   7.1350   7.1547
  7.2972   7.3142   7.3872   7.4159   7.4832   7.4969   7.5220   7.5541
  7.7272   7.7588   7.9650   8.0299   8.1430  24.7846  24.9658  50.4609
 50.4851  50.6949  50.7079
 --------------------------------------------------------------
 
          Ground-State Mulliken Net Atomic Charges

     Atom                 Charge (a.u.)    Spin (a.u.)
  --------------------------------------------------------
      1 C                     0.147068       0.009827
      2 O                    -0.347365       0.000362
      3 H                     0.219868       0.000935
      4 C                    -0.113687      -0.028586
      5 H                     0.270833       0.007228
      6 O                    -0.468557       0.002203
      7 O                    -0.006531       0.538828
      8 O                    -0.067406       0.478311
      9 H                     0.365778      -0.009109
  --------------------------------------------------------
  Sum of atomic charges =     0.000000
  Sum of spin   charges =     1.000000

 -----------------------------------------------------------------
                    Cartesian Multipole Moments
 -----------------------------------------------------------------
    Charge (ESU x 10^10)
                 0.0000
    Dipole Moment (Debye)
         X       1.5647      Y       0.5722      Z       0.4360
       Tot       1.7222
    Quadrupole Moments (Debye-Ang)
        XX     -39.9607     XY      -3.1779     YY     -39.8482
        XZ      -0.8062     YZ      -3.1731     ZZ     -31.7349
    Octopole Moments (Debye-Ang^2)
       XXX      14.1074    XXY      17.1510    XYY       1.6111
       YYY       3.4971    XXZ       5.6917    XYZ       0.8635
       YYZ       0.1019    XZZ      -2.6102    YZZ       2.4289
       ZZZ       3.9166
    Hexadecapole Moments (Debye-Ang^3)
      XXXX    -458.0501   XXXY     -46.8976   XXYY    -106.5741
      XYYY     -42.0663   YYYY    -181.9585   XXXZ      17.2051
      XXYZ      -3.3930   XYYZ       6.3307   YYYZ     -12.8722
      XXZZ     -80.1141   XYZZ     -11.0327   YYZZ     -40.9935
      XZZZ      14.3210   YZZZ     -14.5538   ZZZZ     -69.5791
 -----------------------------------------------------------------
 Calculating analytic gradient of the SCF energy
 Gradient of CDS energy
            1           2           3           4           5           6
    1  -0.0019880   0.0010427   0.0001242   0.0015312   0.0000145  -0.0011924
    2  -0.0015398   0.0006824   0.0001103   0.0024659  -0.0002242  -0.0014777
    3  -0.0000687   0.0005473   0.0000776   0.0006690  -0.0001616  -0.0010294
            7           8           9
    1   0.0002211  -0.0000265   0.0002731
    2   0.0001000  -0.0002597   0.0001427
    3  -0.0000285  -0.0001472   0.0001414
 Gradient of SCF Energy
            1           2           3           4           5           6
    1  -0.0002193  -0.0052675   0.0027038   0.0045427  -0.0023062  -0.0026111
    2   0.0013866  -0.0036315  -0.0007717  -0.0041188   0.0021801   0.0090928
    3  -0.0080711  -0.0025972   0.0100818   0.0095790  -0.0108371   0.0031929
            7           8           9
    1  -0.0032131   0.0052228   0.0011479
    2  -0.0017092  -0.0027379   0.0003096
    3  -0.0019745  -0.0006879   0.0013141
 Max gradient component =       1.084E-02
 RMS gradient           =       4.855E-03
 Computing fast CPCM-SWIG gradient
 Updating gradient with PCM contributions...
 -- total gradient after adding PCM contribution --
---------------------------------------------------
  Atom         X              Y              Z     
---------------------------------------------------
   1      -0.000592      -0.000739      -0.000113
   2       0.000460       0.000440       0.000268
   3      -0.000033       0.000181      -0.000066
   4       0.000189       0.000135      -0.000108
   5       0.000048      -0.000028      -0.000025
   6      -0.000083       0.000085      -0.000006
   7      -0.000112       0.000070       0.000078
   8       0.000099      -0.000097       0.000008
   9       0.000024      -0.000045      -0.000036
---------------------------------------------------
[...]
    Charge (ESU x 10^10)
                 0.0000
    Dipole Moment (Debye)
         X       1.0573      Y       1.2442      Z       0.7937
       Tot       1.8154
    Quadrupole Moments (Debye-Ang)
        XX     -41.8632     XY      -1.4706     YY     -38.8541
        XZ      -0.0656     YZ      -2.8254     ZZ     -31.4756
    Octopole Moments (Debye-Ang^2)
       XXX       7.5524    XXY      20.8331    XYY       1.3372
       YYY      10.0050    XXZ       7.6138    XYZ       1.2712
       YYZ       1.9913    XZZ      -3.1600    YZZ       4.6516
       ZZZ       7.1652
    Hexadecapole Moments (Debye-Ang^3)
      XXXX    -462.0758   XXXY     -37.0561   XXYY    -104.1523
      XYYY     -33.7105   YYYY    -176.3135   XXXZ      23.6665
      XXYZ      -4.1858   XYYZ       8.7395   YYYZ     -14.4493
      XXZZ     -79.5467   XYZZ      -9.0496   YYZZ     -40.7853
      XZZZ      17.6792   YZZZ     -16.7207   ZZZZ     -73.1194
 -----------------------------------------------------------------
 Calculating analytic gradient of the SCF energy
 Gradient of CDS energy
            1           2           3           4           5           6
    1  -0.0020278   0.0010549   0.0001516   0.0028066  -0.0000555  -0.0024677
    2  -0.0013374   0.0006133   0.0001437   0.0049583  -0.0001795  -0.0043014
    3  -0.0000210   0.0005019   0.0000875   0.0023280  -0.0001421  -0.0028752
            7           8           9
    1   0.0002171  -0.0000078   0.0003285
    2   0.0000877  -0.0001834   0.0001987
    3   0.0000334  -0.0001098   0.0001973
 Gradient of SCF Energy
            1           2           3           4           5           6
    1  -0.0017351  -0.0040538   0.0021243   0.0034891  -0.0036555  -0.0078382
    2   0.0026744  -0.0033056  -0.0009085  -0.0057152   0.0038686   0.0090713
    3  -0.0103297  -0.0019645   0.0116509   0.0073108  -0.0085440   0.0017879
            7           8           9
    1  -0.0033856   0.0050192   0.0100357
    2  -0.0014898   0.0013336  -0.0055286
    3  -0.0010301   0.0013611  -0.0002425
 Max gradient component =       1.165E-02
 RMS gradient           =       5.479E-03
 Computing fast CPCM-SWIG gradient
 Updating gradient with PCM contributions...
 -- total gradient after adding PCM contribution --
---------------------------------------------------
  Atom         X              Y              Z     
---------------------------------------------------
   1      -0.002054      -0.000943      -0.001716
   2       0.002271       0.000895       0.000967
   3      -0.000373      -0.000348       0.000716
   4      -0.003792      -0.000450      -0.003692
   5       0.000695      -0.000266       0.002144
   6       0.001382       0.001263       0.001337
   7      -0.001352       0.000172       0.000608
   8       0.002021       0.002451       0.001694
   9       0.001203      -0.002772      -0.002057
---------------------------------------------------
 Number of fixed atoms: 0
 Gradient time:  CPU 65.83 s  wall 5.40 s
rPathMan2.  file_steps = 952
 IRC --- Status = 3.  Assess initial corrector step
 IRC --- bisector search: b =  0.000000 E =     -378.782106 G.B =  -0.006430
 IRC --- bisector search: b =  0.018095 E =     -378.782089 G.B =   0.008338
 IRC --- performed gradient/energy interpolation
 IRC --- bisector search:  estimate b(min) =   7.877283384543687E-003
 ----------------------------------------------------------------
             Standard Nuclear Orientation (Angstroms)
    I     Atom           X                Y                Z
 ----------------------------------------------------------------
    1      C      -1.1117430234    -0.4528289265     0.4588839277
    2      O      -2.0558748459    -0.9782061282    -0.0706969737
    3      H      -0.9293429931    -0.5012251305     1.5425442453
    4      C      -0.0681543898     0.3157817902    -0.3484037572
    5      H      -0.4722149482     0.6382498758    -1.3086862020
    6      O       0.5169216787     1.3228757249     0.3680801052
    7      O       0.9472333156    -0.7277201279    -0.6915538589
    8      O       2.1180106894    -0.4495235477    -0.2166333757
    9      H       1.4570885911     1.0616648836     0.4647039151
 ----------------------------------------------------------------
 Nuclear Repulsion Energy =         237.95968684 hartrees
 There are       24 alpha and       23 beta electrons
 Discretize the solute cavity surface with Lebedev spheres
	Using 110 Lebedev grid points for each H atom
	Using 194 Lebedev grid points for other atoms
	Atomic van der Waals radii will be scaled by 1.20
 Remove points where switching function is < 1.0e-08
 Keep 810 surface tesserae and discard 684 interior tesserae
 Molecular Surface Area = 99.017 Angst**2

                       Distance Matrix (Angstroms)
             C (  1)   O (  2)   H (  3)   C (  4)   H (  5)   O (  6)
   O (  2)  1.203271
   H (  3)  1.099969  2.024631
   C (  4)  1.526942  2.388003  2.232673
   H (  5)  2.173420  2.579443  3.104333  1.090593
   O (  6)  2.411207  3.479481  2.607373  1.367443  2.063649
   O (  7)  2.374543  3.076827  2.926437  1.495881  2.064355  2.347964
   O (  8)  3.299643  4.209765  3.519054  2.319994  3.014150  2.459019
   H (  9)  2.982050  4.097394  3.049495  1.882512  2.654507  0.980551
             O (  7)   O (  8)
   O (  8)  1.293701
   H (  9)  2.190613  1.784581
 
 Applying Cartesian multipole field
    Component          Value
    ---------          -----
     (2,0,0)        1.00000E-11
     (0,2,0)        2.00000E-11
     (0,0,2)       -3.00000E-11
 Nucleus-field energy     =     0.0000000042 hartrees
 Requested basis set is 6-311++G(2df,2p)
 There are 66 shells and 234 basis functions
 A cutoff of  1.0D-12 yielded   2102 shell pairs
 There are     26510 function pairs (     33720 Cartesian)
 Smallest overlap matrix eigenvalue = 8.02E-05
 Guess MOs from SCF MO coefficient file

 -----------------------------------------------------------------------
  General SCF calculation program by
  Eric Jon Sundstrom, Paul Horn, Yuezhi Mao, Dmitri Zuev, Alec White,
  David Stuck, Shaama M.S., Shane Yost, Joonho Lee, David Small,
  Daniel Levine, Susi Lehtola, Hugh Burton, Evgeny Epifanovsky,
  Bang C. Huynh
 -----------------------------------------------------------------------
 Exchange:     0.1500 Hartree-Fock + 1.0000 wB97M-V + LR-HF
 Correlation:  1.0000 wB97M-V
 Using SG-2 standard quadrature grid
 Nonlocal Correlation:  VV10 with C = 0.0100 and b = 6.00 and scale = 1.00000
 Grid used for NLC:  SG-1 standard quadrature
 
 Citation of the SMD model:
 Marenich, A.V.; Cramer, C.J.; Truhlar, D.G.
 J. Phys. Chem. B 2009, 113, 6378-6396.
 iSolventCode=           1
 Solvent: water                                                           
 
 vradii
            1           2           3           4           5           6
    1   1.8500000   1.5200000   1.2000000   1.8500000   1.2000000   1.5200000
            7           8           9
    1   1.5200000   1.5200000   1.2000000
 -------------------------------------------------------
 OpenMP BLAS3 based DFT computing Module                
 Release: version 1.0, May 2013, Q-Chem Inc. Pittsburgh 
 -------------------------------------------------------
 A unrestricted SCF calculation will be
 performed using Roothaan-Hall, DIIS, GDM
 SCF converges when RMS gradient is below 1.0e-07
 ---------------------------------------
  Cycle       Energy         DIIS error
 ---------------------------------------
    1    -378.7675704451      2.54e-04  Roothaan Step
 ---------------------------------------
  Cycle       Energy         DIIS error
 ---------------------------------------
    1    -378.7831228064      3.54e-04  
    2    -378.7838366494      4.32e-04  Done DIIS. Switching to GDM
 ---------------------------------------
  Cycle       Energy        RMS Gradient
 ---------------------------------------
    1    -378.7838366494      3.34e-02   Normal BFGS step
    2    -378.7815602782      5.08e-02  Line search: overstep
    3    -378.7871637153      2.99e-03   Normal BFGS step
    4    -378.7872327480      1.32e-03   Normal BFGS step
    5    -378.7872451550      1.08e-03   Normal BFGS step
    6    -378.7872497694      1.91e-04   Normal BFGS step
    7    -378.7872503306      1.00e-04   Normal BFGS step
    8    -378.7872504599      6.47e-05   Normal BFGS step
    9    -378.7872504828      5.02e-05   Normal BFGS step
   10    -378.7872504933      3.79e-05   Normal BFGS step
   11    -378.7872504979      1.97e-05   Normal BFGS step
   12    -378.7872504991      1.41e-05   Normal BFGS step
   13    -378.7872504999      8.47e-06   Normal BFGS step
   14    -378.7872505004      2.97e-06   Normal BFGS step
   15    -378.7872505005      1.44e-06   Normal BFGS step
   16    -378.7872505005      6.70e-07   Normal BFGS step
   17    -378.7872505005      2.82e-07   Normal BFGS step
   18    -378.7872505005      1.07e-07   Normal BFGS step
   19    -378.7872505006      3.06e-08  Convergence criterion met
 ---------------------------------------
 SCF time:   CPU 531.77s  wall 34.00s 
<S^2> =          0.754262280
(3)  G-ENP(liq) elect-nuc-pol free energy of system     -378.787250501 a.u.
(4)  G-CDS(liq) cavity-dispersion-solvent structure 
     free energy                                                3.2120 kcal/mol
(6)  G-S(liq) free energy of system                     -378.782131811 a.u.
 SCF   energy in the final basis set =     -378.7821318112
 Total energy in the final basis set =     -378.7821318112
 
 --------------------------------------------------------------
 
                    Orbital Energies (a.u.)
 --------------------------------------------------------------
 
 Alpha MOs
 -- Occupied --
-19.4842 -19.4371 -19.3660 -19.3645 -10.4727 -10.4555  -1.3713  -1.2155
 -1.1966  -1.0261  -0.8399  -0.7336  -0.7079  -0.6530  -0.6498  -0.6133
 -0.5869  -0.5606  -0.5260  -0.5143  -0.4480  -0.4311  -0.4193  -0.3723
 -- Virtual --
  0.0219   0.0357   0.0457   0.0503   0.0843   0.0937   0.1105   0.1150
  0.1292   0.1392   0.1563   0.1658   0.1729   0.2077   0.2294   0.2329
  0.2384   0.2533   0.2569   0.2723   0.2834   0.2968   0.3047   0.3128
  0.3251   0.3331   0.3352   0.3477   0.3590   0.3740   0.3849   0.3889
  0.4009   0.4461   0.4707   0.4887   0.5625   0.5852   0.5998   0.6351
  0.6471   0.6560   0.6642   0.7012   0.7246   0.7506   0.8043   0.8344
  0.8664   0.9138   0.9533   0.9947   1.0320   1.0565   1.0707   1.0827
  1.0969   1.1123   1.1219   1.1298   1.1471   1.1585   1.1661   1.2006
  1.2147   1.2187   1.2298   1.2627   1.2685   1.2933   1.3077   1.3783
  1.3937   1.4453   1.4831   1.5188   1.5286   1.5535   1.5709   1.6163
  1.6601   1.6773   1.7100   1.7615   1.7842   1.8030   1.8970   1.9031
  1.9335   2.0474   2.0782   2.1590   2.1880   2.2259   2.2452   2.2920
  2.3430   2.4221   2.4816   2.5330   2.5536   2.6267   2.6656   2.6946
  2.7901   2.8475   2.8768   2.9616   3.0068   3.0384   3.0927   3.1559
  3.1945   3.2595   3.2772   3.3307   3.3741   3.4174   3.4479   3.4999
  3.5313   3.5678   3.6105   3.6241   3.7105   3.7520   3.7763   3.8033
  3.8184   3.8425   3.9457   3.9756   4.0478   4.1536   4.1659   4.1951
  4.2678   4.3323   4.4094   4.4365   4.5551   4.6131   4.6749   4.7162
  4.7907   4.8708   4.9440   5.0443   5.0776   5.1112   5.1216   5.1483
  5.1582   5.1627   5.1735   5.2079   5.2248   5.2340   5.2421   5.2730
  5.3244   5.3400   5.3901   5.4367   5.4989   5.5136   5.5479   5.5759
  5.6243   5.6601   5.6925   5.8105   5.8596   5.9946   6.0729   6.2882
  6.3780   6.4917   6.6323   6.6591   6.7627   6.7833   6.9093   6.9357
  6.9639   6.9866   7.0650   7.0917   7.1354   7.1558   7.2110   7.2797
  7.2907   7.3676   7.4054   7.4458   7.4645   7.5174   7.6245   7.6877
  7.7419   7.8759   8.0279   8.0937  24.6893  24.9309  50.4376  50.4786
 50.5914  50.6957
 
 Beta MOs
 -- Occupied --
-19.4730 -19.4188 -19.3659 -19.3644 -10.4731 -10.4551  -1.3457  -1.2148
 -1.1951  -0.9948  -0.8299  -0.7271  -0.6995  -0.6450  -0.6204  -0.6017
 -0.5681  -0.5289  -0.5198  -0.5102  -0.4427  -0.4105  -0.3821
 -- Virtual --
 -0.0437   0.0256   0.0361   0.0459   0.0507   0.0850   0.0944   0.1116
  0.1160   0.1300   0.1438   0.1571   0.1679   0.1733   0.2110   0.2317
  0.2360   0.2437   0.2558   0.2596   0.2748   0.2884   0.2988   0.3057
  0.3145   0.3265   0.3357   0.3372   0.3486   0.3611   0.3774   0.3859
  0.3908   0.4022   0.4470   0.4719   0.4894   0.5643   0.5860   0.6004
  0.6365   0.6476   0.6578   0.6650   0.7019   0.7255   0.7513   0.8062
  0.8349   0.8683   0.9151   0.9541   0.9956   1.0357   1.0625   1.0758
  1.0846   1.1033   1.1178   1.1246   1.1414   1.1494   1.1683   1.1793
  1.2043   1.2179   1.2243   1.2360   1.2689   1.2743   1.2986   1.3092
  1.3796   1.3955   1.4597   1.4861   1.5252   1.5402   1.5570   1.5759
  1.6240   1.6703   1.6914   1.7189   1.7713   1.7868   1.8043   1.9074
  1.9155   1.9381   2.0494   2.0850   2.1662   2.1947   2.2349   2.2490
  2.3072   2.3495   2.4254   2.4867   2.5339   2.5571   2.6336   2.6690
  2.6989   2.7907   2.8493   2.8773   2.9631   3.0077   3.0393   3.0931
  3.1566   3.1949   3.2600   3.2784   3.3317   3.3748   3.4178   3.4491
  3.5003   3.5323   3.5680   3.6113   3.6248   3.7117   3.7520   3.7773
  3.8035   3.8182   3.8427   3.9465   3.9767   4.0484   4.1545   4.1661
  4.1960   4.2685   4.3335   4.4120   4.4394   4.5912   4.6168   4.6865
  4.7251   4.8166   4.8828   4.9578   5.1064   5.1192   5.1450   5.1569
  5.1591   5.1696   5.1750   5.2022   5.2356   5.2395   5.2534   5.2602
  5.2956   5.3326   5.3458   5.4028   5.4466   5.5086   5.5214   5.5509
  5.5806   5.6316   5.6694   5.7033   5.8265   5.8629   5.9958   6.0755
  6.2980   6.3789   6.5390   6.6424   6.6626   6.7649   6.8546   6.9284
  6.9738   6.9884   7.0327   7.0855   7.1258   7.1516   7.1688   7.2545
  7.2832   7.2986   7.3844   7.4293   7.4572   7.4871   7.5221   7.6314
  7.6921   7.7428   7.8813   8.0400   8.1144  24.6891  24.9312  50.4499
 50.4887  50.5921  50.6958
 --------------------------------------------------------------
 
          Ground-State Mulliken Net Atomic Charges

     Atom                 Charge (a.u.)    Spin (a.u.)
  --------------------------------------------------------
      1 C                     0.186587       0.015105
      2 O                    -0.345581       0.003833
      3 H                     0.221542       0.002408
      4 C                    -0.141059      -0.017558
      5 H                     0.256072       0.012945
      6 O                    -0.394055       0.004057
      7 O                     0.051998       0.336859
      8 O                    -0.175760       0.646823
      9 H                     0.340256      -0.004471
  --------------------------------------------------------
  Sum of atomic charges =     0.000000
  Sum of spin   charges =     1.000000

 -----------------------------------------------------------------
                    Cartesian Multipole Moments
 -----------------------------------------------------------------
    Charge (ESU x 10^10)
                 0.0000
    Dipole Moment (Debye)
         X       1.0773      Y       1.2709      Z       0.8174
       Tot       1.8558
    Quadrupole Moments (Debye-Ang)
        XX     -41.9200     XY      -1.4631     YY     -38.8165
        XZ      -0.0705     YZ      -2.8079     ZZ     -31.4798
    Octopole Moments (Debye-Ang^2)
       XXX       7.5642    XXY      20.8941    XYY       1.3971
       YYY      10.1378    XXZ       7.6222    XYZ       1.2761
       YYZ       2.0166    XZZ      -3.1329    YZZ       4.6768
       ZZZ       7.2022
    Hexadecapole Moments (Debye-Ang^3)
      XXXX    -462.4977   XXXY     -37.0561   XXYY    -104.1432
      XYYY     -33.6656   YYYY    -176.0622   XXXZ      23.7202
      XXYZ      -4.1610   XYYZ       8.7569   YYYZ     -14.3860
      XXZZ     -79.5598   XYZZ      -9.0449   YYZZ     -40.7552
      XZZZ      17.7188   YZZZ     -16.6643   ZZZZ     -73.1331
 -----------------------------------------------------------------
 Calculating analytic gradient of the SCF energy
 Gradient of CDS energy
            1           2           3           4           5           6
    1  -0.0020461   0.0010715   0.0001494   0.0027348  -0.0000578  -0.0023867
    2  -0.0013487   0.0006221   0.0001420   0.0048321  -0.0001790  -0.0041651
    3  -0.0000294   0.0005107   0.0000840   0.0022484  -0.0001498  -0.0027784
            7           8           9
    1   0.0002162  -0.0000074   0.0003261
    2   0.0000879  -0.0001834   0.0001920
    3   0.0000316  -0.0001102   0.0001930
 Gradient of SCF Energy
            1           2           3           4           5           6
    1  -0.0005250  -0.0060320   0.0022529   0.0075464  -0.0047024  -0.0087099
    2   0.0034227  -0.0044350  -0.0007579  -0.0042757   0.0046456   0.0070502
    3  -0.0086537  -0.0029592   0.0108402   0.0119428  -0.0109179   0.0002030
            7           8           9
    1  -0.0015275   0.0025926   0.0091049
    2  -0.0012828   0.0009428  -0.0053099
    3  -0.0005851   0.0004961  -0.0003661
 Max gradient component =       1.194E-02
 RMS gradient           =       5.788E-03
 Computing fast CPCM-SWIG gradient
 Updating gradient with PCM contributions...
 -- total gradient after adding PCM contribution --
---------------------------------------------------
  Atom         X              Y              Z     
---------------------------------------------------
   1      -0.000756      -0.000183       0.000015
   2       0.000256      -0.000256      -0.000037
   3      -0.000282      -0.000217      -0.000114
   4       0.000188       0.000955       0.000930
   5      -0.000381       0.000542      -0.000320
   6       0.000654      -0.000700      -0.000151
   7       0.000526       0.000372       0.001069
   8      -0.000394       0.002088       0.000850
   9       0.000189      -0.002602      -0.002242
---------------------------------------------------
 Number of fixed atoms: 0
 Gradient time:  CPU 68.15 s  wall 5.36 s
rPathMan2.  file_steps = 952
 IRC --- Status = 4.  Checking bisector search.
 IRC --- Bisector search finished successfully.
 ------------------------------------------------------------------------
 Reaction path following.  The coordinates are cartesian              
 Step  13 E=    -378.782132 |G|=  0.004774 S_lin= 1.0446 S_tot= 1.1316
 ------------------------------------------------------------------------
  IRC -- convergence criterion reached.
 ----------------------------------------------------------------
             Standard Nuclear Orientation (Angstroms)
    I     Atom           X                Y                Z
 ----------------------------------------------------------------
    1      C      -1.1454990729    -0.4336396230     0.4680526995
    2      O      -2.0567914655    -1.0078189221    -0.0727297783
    3      H      -0.9319162890    -0.5248207358     1.5434370862
    4      C      -0.2140251340     0.4811059473    -0.3001375466
    5      H      -0.4970758750     0.6648592846    -1.3387763357
    6      O       0.4707184350     1.3330243073     0.3565603192
    7      O       1.0711199983    -0.7689769156    -0.6452664390
    8      O       2.0970559045    -0.2345219479    -0.1064836761
    9      H       1.6083375597     0.7198570415     0.2935816276
 ----------------------------------------------------------------
 Nuclear Repulsion Energy =         236.30847253 hartrees
 There are       24 alpha and       23 beta electrons
 Here is where we should summarize the reaction path
 Total job time:  3431.31s(wall), 52636.08s(cpu) 
 Thu May  9 19:15:04 2024

        *************************************************************
        *                                                           *
        *  Thank you very much for using Q-Chem.  Have a nice day.  *
        *                                                           *
        *************************************************************


