
Running Job 1 of 2 Q_in.in
qchem Q_in.in_212760.0 /scratch/ari.fischer/qChem1351504.hpc-mn1/qchem212760/ 0
/usr/local/qchem-5.4.1/exe/qcprog.exe_s Q_in.in_212760.0 /scratch/ari.fischer/qChem1351504.hpc-mn1/qchem212760/
                  Welcome to Q-Chem
     A Quantum Leap Into The Future Of Chemistry


 Q-Chem 5.4, Q-Chem, Inc., Pleasanton, CA (2021)

 License issued to: Nanyang Technological University (site)

 E. Epifanovsky,  A. T. B. Gilbert,  Xintian Feng,  Joonho Lee,  Yuezhi Mao,  
 N. Mardirossian,  P. Pokhilko,  A. White,  M. Wormit,  M. P. Coons,  
 A. L. Dempwolff,  Zhengting Gan,  D. Hait,  P. R. Horn,  L. D. Jacobson,  
 I. Kaliman,  J. Kussmann,  A. W. Lange,  Ka Un Lao,  D. S. Levine,  Jie Liu,  
 S. C. McKenzie,  A. F. Morrison,  K. Nanda,  F. Plasser,  D. R. Rehn,  
 M. L. Vidal,  Zhi-Qiang You,  Ying Zhu,  B. Alam,  B. Albrecht,  
 A. Aldossary,  E. Alguire,  J. H. Andersen,  D. Barton,  K. Begam,  A. Behn,  
 Y. A. Bernard,  E. J. Berquist,  H. Burton,  A. Carreras,  K. Carter-Fenk,  
 R. Chakraborty,  A. D. Chien,  K. D. Closser,  V. Cofer-Shabica,  
 S. Dasgupta,  Jia Deng,  M. de Wergifosse,  M. Diedenhofen,  Hainam Do,  
 S. Ehlert,  Po-Tung Fang,  S. Fatehi,  Qingguo Feng,  T. Friedhoff,  
 J. Gayvert,  Qinghui Ge,  G. Gidofalvi,  M. Goldey,  J. Gomes,  
 C. Gonzalez-Espinoza,  S. Gulania,  A. Gunina,  M. W. D. Hanson-Heine,  
 P. H. P. Harbach,  A. W. Hauser,  M. F. Herbst,  M. Hernandez Vera,  
 M. Hodecker,  Z. C. Holden,  S. Houck,  Xunkun Huang,  Kerwin Hui,  
 B. C. Huynh,  M. Ivanov,  Hyunjun Ji,  Hanjie Jiang,  B. Kaduk,  S. Kaehler,  
 K. Khistyaev,  Jaehoon Kim,  P. Klunzinger,  Z. Koczor-Benda,  
 Joong Hoon Koh,  D. Kosenkov,  L. Koulias,  T. Kowalczyk,  C. M. Krauter,  
 K. Kue,  A. Kunitsa,  T. Kus,  A. Landau,  K. V. Lawler,  D. Lefrancois,  
 S. Lehtola,  Rain Li,  Yi-Pei Li,  Jiashu Liang,  M. Liebenthal,  
 Hung-Hsuan Lin,  You-Sheng Lin,  Fenglai Liu,  Kuan-Yu Liu,  
 M. Loipersberger,  A. Luenser,  A. Manjanath,  P. Manohar,  E. Mansoor,  
 S. F. Manzer,  Shan-Ping Mao,  A. V. Marenich,  T. Markovich,  S. Mason,  
 S. A. Maurer,  P. F. McLaughlin,  M. F. S. J. Menger,  J.-M. Mewes,  
 S. A. Mewes,  P. Morgante,  J. W. Mullinax,  K. J. Oosterbaan,  G. Paran,  
 Alexander C. Paul,  Suranjan K. Paul,  F. Pavosevic,  Zheng Pei,  S. Prager,  
 E. I. Proynov,  E. Ramos,  B. Rana,  A. E. Rask,  A. Rettig,  R. M. Richard,  
 F. Rob,  E. Rossomme,  T. Scheele,  M. Scheurer,  M. Schneider,  
 N. Sergueev,  S. M. Sharada,  W. Skomorowski,  D. W. Small,  C. J. Stein,  
 Yu-Chuan Su,  E. J. Sundstrom,  Zhen Tao,  J. Thirman,  T. Tsuchimochi,  
 N. M. Tubman,  S. P. Veccham,  O. Vydrov,  J. Wenzel,  J. Witte,  A. Yamada,  
 Kun Yao,  S. Yeganeh,  S. R. Yost,  A. Zech,  Igor Ying Zhang,  Xing Zhang,  
 Yu Zhang,  D. Zuev,  A. Aspuru-Guzik,  A. T. Bell,  N. A. Besley,  
 K. B. Bravaya,  B. R. Brooks,  D. Casanova,  Jeng-Da Chai,  S. Coriani,  
 C. J. Cramer,  A. E. DePrince, III,  R. A. DiStasio Jr.,  A. Dreuw,  
 B. D. Dunietz,  T. R. Furlani,  W. A. Goddard III,  S. Grimme,  
 S. Hammes-Schiffer,  T. Head-Gordon,  W. J. Hehre,  Chao-Ping Hsu,  
 T.-C. Jagau,  Yousung Jung,  A. Klamt,  Jing Kong,  D. S. Lambrecht,  
 WanZhen Liang,  N. J. Mayhall,  C. W. McCurdy,  J. B. Neaton,  
 C. Ochsenfeld,  J. A. Parkhill,  R. Peverati,  V. A. Rassolov,  Yihan Shao,  
 L. V. Slipchenko,  T. Stauch,  R. P. Steele,  J. E. Subotnik,  
 A. J. W. Thom,  A. Tkatchenko,  D. G. Truhlar,  T. Van Voorhis,  
 T. A. Wesolowski,  K. B. Whaley,  H. L. Woodcock III,  P. M. Zimmerman,  
 S. Faraji,  P. M. W. Gill,  M. Head-Gordon,  J. M. Herbert,  A. I. Krylov

 Additional authors for Version 5.4.1: 
 S. Kotaru,  Shaozhi Li,  Xiangyuan Li,  F. Matz,  A. Molle,  Haisheng Ren,  
 Yingli Su,  Hung-Yi Tsai,  C. Utku,  Fang Wang

 Contributors to earlier versions of Q-Chem not listed above: 
 R. D. Adamson,  B. Austin,  R. Baer,  J. Baker,  G. J. O. Beran,  
 K. Brandhorst,  S. T. Brown,  E. F. C. Byrd,  A. K. Chakraborty,  
 G. K. L. Chan,  Chun-Min Chang,  Yunqing Chen,  C.-L. Cheng,  
 Siu Hung Chien,  D. M. Chipman,  D. L. Crittenden,  H. Dachsel,  
 R. J. Doerksen,  A. D. Dutoi,  R. G. Edgar,  J. Fosso-Tande,  
 L. Fusti-Molnar,  D. Ghosh,  A. Ghysels,  A. Golubeva-Zadorozhnaya,  
 J. Gonthier,  M. S. Gordon,  S. R. Gwaltney,  G. Hawkins,  J. E. Herr,  
 A. Heyden,  S. Hirata,  E. G. Hohenstein,  G. Kedziora,  F. J. Keil,  
 C. Kelley,  Jihan Kim,  R. A. King,  R. Z. Khaliullin,  P. P. Korambath,  
 W. Kurlancheek,  A. Laurent,  A. M. Lee,  M. S. Lee,  S. V. Levchenko,  
 Ching Yeh Lin,  D. Liotard,  E. Livshits,  R. C. Lochan,  I. Lotan,  
 L. A. Martinez-Martinez,  P. E. Maslen,  N. Nair,  D. P. O'Neill,  
 D. Neuhauser,  E. Neuscamman,  C. M. Oana,  R. Olivares-Amaya,  R. Olson,  
 T. M. Perrine,  B. Peters,  P. A. Pieniazek,  A. Prociuk,  Y. M. Rhee,  
 J. Ritchie,  M. A. Rohrdanz,  E. Rosta,  N. J. Russ,  H. F. Schaefer III,  
 M. W. Schmidt,  N. E. Schultz,  S. Sharma,  N. Shenvi,  C. D. Sherrill,  
 A. C. Simmonett,  A. Sodt,  T. Stein,  D. Stuck,  K. S. Thanthiriwatte,  
 V. Vanovschi,  L. Vogt,  Tao Wang,  A. Warshel,  M. A. Watson,  
 C. F. Williams,  Q. Wu,  X. Xu,  Jun Yang,  W. Zhang,  Yan Zhao

 Please cite Q-Chem as follows:
 Y. Shao et al., Mol. Phys. 113, 184-215 (2015)
 DOI: 10.1080/00268976.2014.952696

 Q-Chem 5.4.1 for Intel X86 EM64T Linux

 Parts of Q-Chem use Armadillo 9.800.1 (Horizon Scraper).
 http://arma.sourceforge.net/

 Q-Chem begins on Sun Dec 11 21:14:48 2022  

 Host: 
0

     Scratch files written to /scratch/ari.fischer/qChem1351504.hpc-mn1/qchem212760//
 Aug1521 |scratch|qcdevops|jenkins|workspace|build_RNUM 8249   
 Processing $rem in /usr/local/qchem-5.4.1/config/preferences:
 Processing $rem in /home/ari.fischer/.qchemrc:
 Now reading second FSM geometry
 Symmetry turned off for PCM/SM12/SMD calculation

 Checking the input file for inconsistencies... 	...done.

--------------------------------------------------------------
User input:
--------------------------------------------------------------
$molecule
0 2
C        -1.1913351321   -0.4410543917    0.4594493310
O        -1.8103297858   -1.3240137884   -0.0799033445
H        -0.8849483501   -0.4766914593    1.5150719293
C        -0.8208869830    0.8259264621   -0.2926659536
H        -0.9841467676    0.8055464042   -1.3794095523
O        -0.4109821672    1.7940557828    0.2982495812
O         1.3474836921   -0.7424812060   -0.4543292205
O         2.1504887172    0.1142094027    0.1214365213
H         3.0447292937   -0.2759654296    0.0782900773
****
C   -0.5373745   -1.6726011    0.3770434
O   -1.2994607   -2.4520124   -0.1329340
H    0.0284341   -1.9040543    1.2898986
C   -0.3045611   -0.2758656   -0.1703024
H   -1.0078620    0.4270127    0.2793841
O    1.0150434    0.0736998    0.0267414
O   -0.6225941   -0.3348853   -1.5917912
O   -0.7041361    0.8671519   -2.0910244
H    1.0954286    1.0351225    0.0171924
$end

$rem
BASIS = 6-311++G(2df,2p)
GUI = 2
JOB_TYPE = FSM
FSM_MODE = 2
METHOD = wB97M-v
MAX_SCF_CYCLES = 120
FSM_NGRAD = 6
FSM_NNODE = 20
SCF_CONVERGENCE = 7
THRESH = 12
SCF_ALGORITHM = DIIS_GDM
UNRESTRICTED = 1
solvent_method = SMD
$end

--------------------------------------------------------------
 ----------------------------------------------------------------
             Standard Nuclear Orientation (Angstroms)
    I     Atom           X                Y                Z
 ----------------------------------------------------------------
    1      C      -1.1913351321    -0.4410543917     0.4594493310
    2      O      -1.8103297858    -1.3240137884    -0.0799033445
    3      H      -0.8849483501    -0.4766914593     1.5150719293
    4      C      -0.8208869830     0.8259264621    -0.2926659536
    5      H      -0.9841467676     0.8055464042    -1.3794095523
    6      O      -0.4109821672     1.7940557828     0.2982495812
    7      O       1.3474836921    -0.7424812060    -0.4543292205
    8      O       2.1504887172     0.1142094027     0.1214365213
    9      H       3.0447292937    -0.2759654296     0.0782900773
 ----------------------------------------------------------------
 Nuclear Repulsion Energy =         218.34098435 hartrees
 There are       24 alpha and       23 beta electrons
 Requested basis set is 6-311++G(2df,2p)
 There are 66 shells and 234 basis functions

 Total QAlloc Memory Limit 288000 MB
 Mega-Array Size       188 MB
 MEM_STATIC part       192 MB
 beginning FSman 

*******************************************
*******************************************
******** Starting FSM Calculation *********
*******************************************
*******************************************
-FSM parameters:
 Maximum displacement of each coordinate during optimization (Angstrom)      0.05
 Maximum optimization steps for each new node                                6
 The scaling factor for optimization (hartrees/Angstrom^2)                   1.75
 The number of LST interpolations used for reparameterization                100
-Aligning product structure to maximum coincidence with the reactant structure
 Total R --> P Distance 3.886437
 New node interpolation distace (Angstroms): 0.19
-Performing force calculation on reactant structure in state:0
 ----------------------------------------------------------------
             Standard Nuclear Orientation (Angstroms)
    I     Atom           X                Y                Z
 ----------------------------------------------------------------
    1      C      -1.1913351321    -0.4410543917     0.4594493310
    2      O      -1.8103297858    -1.3240137884    -0.0799033445
    3      H      -0.8849483501    -0.4766914593     1.5150719293
    4      C      -0.8208869830     0.8259264621    -0.2926659536
    5      H      -0.9841467676     0.8055464042    -1.3794095523
    6      O      -0.4109821672     1.7940557828     0.2982495812
    7      O       1.3474836921    -0.7424812060    -0.4543292205
    8      O       2.1504887172     0.1142094027     0.1214365213
    9      H       3.0447292937    -0.2759654296     0.0782900773
 ----------------------------------------------------------------
 Nuclear Repulsion Energy =         218.34098435 hartrees
 There are       24 alpha and       23 beta electrons
 
 Citation of the SMD model:
 Marenich, A.V.; Cramer, C.J.; Truhlar, D.G.
 J. Phys. Chem. B 2009, 113, 6378-6396.
 iSolventCode=           1
 Solvent: water                                                           
 
 vradii
            1           2           3           4           5           6
    1   1.8500000   1.5200000   1.2000000   1.8500000   1.2000000   1.5200000
            7           8           9
    1   1.5200000   1.5200000   1.2000000
 Changing PCM_VDW_RADII to SMD_RADIUS
 Discretize the solute cavity surface with Lebedev spheres
	Using 110 Lebedev grid points for each H atom
	Using 194 Lebedev grid points for other atoms
	Atomic van der Waals radii will be scaled by 1.20
 Remove points where switching function is < 1.0e-08
 Keep 897 surface tesserae and discard 597 interior tesserae
 Molecular Surface Area = 112.021 Angst**2

                       Distance Matrix (Angstroms)
             C (  1)   O (  2)   H (  3)   C (  4)   H (  5)   O (  6)
   O (  2)  1.205684
   H (  3)  1.099764  2.029343
   C (  4)  1.519260  2.376238  2.229088
   H (  5)  2.231220  2.627988  3.167333  1.099127
   O (  6)  2.372900  3.438536  2.619464  1.206017  2.029830
   O (  7)  2.715042  3.232671  2.988802  2.681020  2.947654  3.176885
   O (  8)  3.404461  4.218662  3.391941  3.083358  3.543505  3.068270
   H (  9)  4.256381  4.969409  4.188914  4.036677  4.418868  4.034267
             O (  7)   O (  8)
   O (  8)  1.307762
   H (  9)  1.839011  0.976609
 
 Requested basis set is 6-311++G(2df,2p)
 There are 66 shells and 234 basis functions
 A cutoff of  1.0D-12 yielded   2027 shell pairs
 There are     25724 function pairs (     32701 Cartesian)
 Smallest overlap matrix eigenvalue = 9.60E-05

 Scale SEOQF with 1.000000e-01/1.000000e-01/1.000000e-01

 Standard Electronic Orientation quadrupole field applied
 Nucleus-field energy     =     0.0000000064 hartrees
 Guess from superposition of atomic densities
 Warning:  Energy on first SCF cycle will be non-variational
 SAD guess density has 47.000000 electrons

 -----------------------------------------------------------------------
  General SCF calculation program by
  Eric Jon Sundstrom, Paul Horn, Yuezhi Mao, Dmitri Zuev, Alec White,
  David Stuck, Shaama M.S., Shane Yost, Joonho Lee, David Small,
  Daniel Levine, Susi Lehtola, Hugh Burton, Evgeny Epifanovsky,
  Bang C. Huynh
 -----------------------------------------------------------------------
 Exchange:     0.1500 Hartree-Fock + 1.0000 wB97M-V + LR-HF
 Correlation:  1.0000 wB97M-V
 Using SG-2 standard quadrature grid
 Nonlocal Correlation:  VV10 with C = 0.0100 and b = 6.00 and scale = 1.00000
 Grid used for NLC:  SG-1 standard quadrature
 
 Citation of the SMD model:
 Marenich, A.V.; Cramer, C.J.; Truhlar, D.G.
 J. Phys. Chem. B 2009, 113, 6378-6396.
 iSolventCode=           1
 Solvent: water                                                           
 
 vradii
            1           2           3           4           5           6
    1   1.8500000   1.5200000   1.2000000   1.8500000   1.2000000   1.5200000
            7           8           9
    1   1.5200000   1.5200000   1.2000000
 using 8 threads for integral computing
 -------------------------------------------------------
 OpenMP Integral computing Module                
 Release: version 1.0, May 2013, Q-Chem Inc. Pittsburgh 
 -------------------------------------------------------
 -------------------------------------------------------
 OpenMP BLAS3 based DFT computing Module                
 Release: version 1.0, May 2013, Q-Chem Inc. Pittsburgh 
 -------------------------------------------------------
 A unrestricted SCF calculation will be
 performed using DIIS, GDM
 SCF converges when RMS gradient is below 1.0e-07
 ---------------------------------------
  Cycle       Energy         DIIS error
 ---------------------------------------
    1    -379.4285687606      1.57e-02  
    2    -378.6351010391      2.49e-03  Done DIIS. Switching to GDM
 ---------------------------------------
  Cycle       Energy        RMS Gradient
 ---------------------------------------
    1    -378.6351010391      1.69e-01   Descent step
    2    -378.7619086179      2.91e-02   Normal BFGS step
    3    -378.7746499397      1.25e-02   Normal BFGS step
    4    -378.7759805915      1.21e-02   Normal BFGS step
    5    -378.7761844997      2.77e-03   Normal BFGS step
    6    -378.7762714731      4.27e-03   Normal BFGS step
    7    -378.7762945397      5.21e-04   Normal BFGS step
    8    -378.7763019972      2.79e-04   Normal BFGS step
    9    -378.7763028189      8.42e-05   Normal BFGS step
   10    -378.7763028776      4.85e-05   Normal BFGS step
   11    -378.7763028847      3.78e-05   Normal BFGS step
   12    -378.7763028903      2.78e-05   Normal BFGS step
   13    -378.7763028917      2.36e-05   Normal BFGS step
   14    -378.7763028935      1.34e-05   Normal BFGS step
   15    -378.7763028943      6.18e-06   Normal BFGS step
   16    -378.7763028946      4.06e-06   Normal BFGS step
   17    -378.7763028947      2.74e-06   Normal BFGS step
   18    -378.7763028947      1.30e-06   Normal BFGS step
   19    -378.7763028947      5.18e-07   Normal BFGS step
   20    -378.7763028947      1.98e-07   Normal BFGS step
   21    -378.7763028947      1.69e-07   Normal BFGS step
   22    -378.7763028947      1.31e-07   Normal BFGS step
   23    -378.7763028947      3.31e-08  Convergence criterion met
 ---------------------------------------
 SCF time:   CPU 443.42s  wall 56.00s 
<S^2> =          0.753995519
(3)  G-ENP(liq) elect-nuc-pol free energy of system     -378.776302895 a.u.
(4)  G-CDS(liq) cavity-dispersion-solvent structure 
     free energy                                                4.5181 kcal/mol
(6)  G-S(liq) free energy of system                     -378.769102806 a.u.
 SCF   energy in the final basis set =     -378.7691028063
 Total energy in the final basis set =     -378.7691028063
 
 --------------------------------------------------------------
 
                    Orbital Energies (a.u.)
 --------------------------------------------------------------
 
 Alpha MOs
 -- Occupied --
-19.4623 -19.4296 -19.3643 -19.3635 -10.4516 -10.4511  -1.3469  -1.2164
 -1.2027  -1.0034  -0.8210  -0.7074  -0.6869  -0.6200  -0.6148  -0.6080
 -0.6076  -0.5662  -0.5470  -0.4978  -0.4375  -0.4208  -0.4131  -0.3670
 -- Virtual --
 -0.0091   0.0323   0.0452   0.0493   0.0706   0.0933   0.0964   0.1068
  0.1197   0.1292   0.1462   0.1533   0.1765   0.1871   0.2067   0.2279
  0.2376   0.2441   0.2500   0.2640   0.2698   0.2760   0.2978   0.3187
  0.3247   0.3305   0.3322   0.3470   0.3555   0.3747   0.3915   0.4064
  0.4148   0.4372   0.4779   0.4940   0.5749   0.5862   0.6107   0.6219
  0.6551   0.6629   0.6786   0.6874   0.7358   0.7399   0.7998   0.8081
  0.8280   0.8381   0.8599   0.9045   1.0128   1.0204   1.0545   1.0567
  1.0658   1.0849   1.0910   1.0992   1.1192   1.1352   1.1543   1.1633
  1.1855   1.2008   1.2118   1.2437   1.2535   1.2583   1.3211   1.3495
  1.3835   1.4056   1.4580   1.4711   1.4927   1.5655   1.5864   1.6080
  1.6369   1.6496   1.6946   1.7141   1.7474   1.7880   1.8324   1.8624
  1.8760   1.9084   2.0189   2.0791   2.1230   2.1796   2.2548   2.2674
  2.2794   2.3691   2.5172   2.5211   2.5521   2.6122   2.6651   2.6730
  2.7032   2.7462   2.8159   2.8709   2.9441   2.9767   3.0016   3.0453
  3.0932   3.1076   3.1903   3.2620   3.2986   3.3329   3.3956   3.4112
  3.4234   3.4467   3.5171   3.5609   3.6040   3.6869   3.6978   3.7378
  3.7412   3.8515   3.8583   3.9147   3.9286   4.1140   4.1706   4.2106
  4.2367   4.2528   4.2729   4.5102   4.5139   4.6635   4.6920   4.7133
  4.7280   4.7675   4.8723   5.0260   5.0642   5.0845   5.0903   5.1205
  5.1275   5.1512   5.1666   5.1722   5.1846   5.2130   5.2193   5.2458
  5.2701   5.2921   5.3109   5.3844   5.4459   5.4660   5.5487   5.5670
  5.5889   5.6082   5.6336   5.7387   5.8348   5.9170   6.3362   6.3664
  6.4291   6.4534   6.5832   6.8203   6.8498   6.8755   6.8802   6.9206
  6.9324   6.9453   6.9798   6.9855   7.0571   7.0697   7.1023   7.1284
  7.1795   7.2776   7.3273   7.3546   7.3820   7.4978   7.5399   7.6308
  7.7105   7.7659   7.9454   7.9917  24.8572  24.9992  50.3783  50.4327
 50.6960  50.7009
 
 Beta MOs
 -- Occupied --
-19.4523 -19.4101 -19.3643 -19.3636 -10.4516 -10.4511  -1.3196  -1.2165
 -1.2027  -0.9629  -0.8209  -0.7071  -0.6698  -0.6082  -0.6081  -0.5987
 -0.5655  -0.5447  -0.5354  -0.4974  -0.4372  -0.3987  -0.3669
 -- Virtual --
 -0.0362  -0.0083   0.0329   0.0455   0.0498   0.0710   0.0951   0.0971
  0.1072   0.1201   0.1311   0.1477   0.1540   0.1792   0.1887   0.2093
  0.2314   0.2387   0.2452   0.2511   0.2718   0.2773   0.2799   0.2993
  0.3216   0.3261   0.3308   0.3345   0.3473   0.3564   0.3772   0.3926
  0.4069   0.4153   0.4379   0.4783   0.4939   0.5754   0.5888   0.6113
  0.6227   0.6561   0.6633   0.6789   0.6875   0.7373   0.7411   0.8011
  0.8088   0.8301   0.8394   0.8608   0.9048   1.0189   1.0270   1.0563
  1.0607   1.0691   1.0887   1.0965   1.1082   1.1255   1.1384   1.1590
  1.1658   1.1920   1.2030   1.2144   1.2538   1.2595   1.2679   1.3280
  1.3497   1.3978   1.4186   1.4639   1.4801   1.4943   1.5664   1.5925
  1.6148   1.6427   1.6722   1.7050   1.7262   1.7591   1.7898   1.8361
  1.8667   1.8772   1.9289   2.0191   2.0795   2.1338   2.1844   2.2723
  2.2810   2.2866   2.3747   2.5178   2.5215   2.5525   2.6252   2.6652
  2.6737   2.7041   2.7531   2.8160   2.8712   2.9442   2.9770   3.0016
  3.0454   3.0934   3.1077   3.1906   3.2625   3.2987   3.3333   3.3959
  3.4113   3.4236   3.4469   3.5174   3.5611   3.6040   3.6941   3.6993
  3.7381   3.7415   3.8545   3.8600   3.9152   3.9289   4.1142   4.1763
  4.2107   4.2371   4.2532   4.2734   4.5137   4.5497   4.6758   4.6932
  4.7204   4.7479   4.7831   4.8937   5.0842   5.0935   5.1131   5.1260
  5.1394   5.1512   5.1669   5.1726   5.1839   5.1996   5.2372   5.2481
  5.2691   5.2947   5.3013   5.3331   5.3845   5.4657   5.4770   5.5488
  5.5670   5.5890   5.6085   5.6610   5.7606   5.8348   5.9170   6.3365
  6.3672   6.4660   6.4770   6.5832   6.8523   6.8884   6.9169   6.9323
  6.9415   6.9462   6.9676   6.9995   7.0394   7.0601   7.1073   7.1203
  7.1400   7.1856   7.2821   7.3354   7.4036   7.4050   7.4978   7.5401
  7.6471   7.7112   7.7663   7.9569   8.0161  24.8572  24.9992  50.3895
 50.4442  50.6960  50.7009
 --------------------------------------------------------------
 
          Ground-State Mulliken Net Atomic Charges

     Atom                 Charge (a.u.)    Spin (a.u.)
  --------------------------------------------------------
      1 C                     0.044303       0.002468
      2 O                    -0.328137       0.000233
      3 H                     0.233162      -0.000021
      4 C                     0.039664      -0.001401
      5 H                     0.242383       0.000156
      6 O                    -0.313985      -0.002940
      7 O                    -0.149828       0.698043
      8 O                    -0.136444       0.310472
      9 H                     0.368882      -0.007010
  --------------------------------------------------------
  Sum of atomic charges =     0.000000
  Sum of spin   charges =     1.000000

 -----------------------------------------------------------------
                    Cartesian Multipole Moments
 -----------------------------------------------------------------
    Charge (ESU x 10^10)
                 0.0000
    Dipole Moment (Debye)
         X       3.9794      Y      -0.3501      Z       0.3133
       Tot       4.0070
    Quadrupole Moments (Debye-Ang)
        XX     -22.6763     XY      -6.0316     YY     -44.6543
        XZ      -0.0524     YZ      -3.9630     ZZ     -32.0069
    Octopole Moments (Debye-Ang^2)
       XXX      70.1614    XXY       4.2155    XYY      11.2681
       YYY     -10.3627    XXZ       3.3692    XYZ       1.2553
       YYZ      -2.1803    XZZ       1.3304    YZZ      -1.3340
       ZZZ      -0.8345
    Hexadecapole Moments (Debye-Ang^3)
      XXXX    -287.1851   XXXY     -51.0681   XXYY    -131.3825
      XYYY     -18.9804   YYYY    -291.2808   XXXZ      10.8507
      XXYZ      -6.7343   XYYZ       5.8904   YYYZ     -10.9664
      XXZZ     -85.0309   XYZZ      -4.4305   YYZZ     -54.3816
      XZZZ       8.6815   YZZZ     -11.5956   ZZZZ     -62.3126
 -----------------------------------------------------------------
 Calculating analytic gradient of the SCF energy
 Gradient of CDS energy
            1           2           3           4           5           6
    1  -0.0013382   0.0007646   0.0000708   0.0005057  -0.0000157  -0.0003754
    2  -0.0021633   0.0010153   0.0001295   0.0023300  -0.0001680  -0.0010639
    3  -0.0000111   0.0005214   0.0000754   0.0001255  -0.0000955  -0.0005529
            7           8           9
    1   0.0001335  -0.0002152   0.0004699
    2   0.0000974  -0.0001291  -0.0000479
    3  -0.0000072  -0.0001128   0.0000573
 Gradient of SCF Energy
            1           2           3           4           5           6
    1  -0.0024622  -0.0015913   0.0021989   0.0014221  -0.0008980   0.0015600
    2  -0.0005420  -0.0032532  -0.0000508   0.0007098  -0.0002643   0.0033879
    3  -0.0070152  -0.0014043   0.0065686   0.0066480  -0.0059475   0.0012873
            7           8           9
    1  -0.0021280  -0.0191440   0.0210425
    2  -0.0034630   0.0110036  -0.0075280
    3  -0.0024005   0.0020960   0.0001676
 Max gradient component =       2.104E-02
 RMS gradient           =       6.752E-03
 Computing fast CPCM-SWIG gradient
 Updating gradient with PCM contributions...
 -- total gradient after adding PCM contribution --
---------------------------------------------------
  Atom         X              Y              Z     
---------------------------------------------------
   1      -0.000109      -0.000121      -0.000043
   2       0.000102       0.000014       0.000035
   3       0.000008      -0.000005       0.000132
   4       0.000024       0.000092      -0.000172
   5       0.000023       0.000034      -0.000012
   6       0.000003      -0.000047       0.000050
   7      -0.000089       0.000100      -0.000033
   8       0.000024      -0.000098      -0.000028
   9       0.000014       0.000032       0.000070
---------------------------------------------------
 Number of fixed atoms: 0
 Gradient time:  CPU 48.72 s  wall 7.57 s
-Performing force calculation on product structure in state0
 ----------------------------------------------------------------
             Standard Nuclear Orientation (Angstroms)
    I     Atom           X                Y                Z
 ----------------------------------------------------------------
    1      C      -1.1850488295    -0.4039585981     0.4398742716
    2      O      -1.6016470332    -1.4806683101     0.1000560377
    3      H      -1.7204720267     0.2457283194     1.1457379135
    4      C       0.1078693665     0.1821946637    -0.0981280082
    5      H      -0.0893843216     0.7666363836    -0.9983540172
    6      O       0.7246957089     0.9093975445     0.8984057333
    7      O       0.9320129960    -0.9492021825    -0.5055432472
    8      O       1.9467629673    -0.5416028499    -1.2161216000
    9      H       1.3252836895     1.5510068061     0.5002622856
 ----------------------------------------------------------------
 Nuclear Repulsion Energy =         237.23017665 hartrees
 There are       24 alpha and       23 beta electrons
 Discretize the solute cavity surface with Lebedev spheres
	Using 110 Lebedev grid points for each H atom
	Using 194 Lebedev grid points for other atoms
	Atomic van der Waals radii will be scaled by 1.20
 Remove points where switching function is < 1.0e-08
 Keep 837 surface tesserae and discard 657 interior tesserae
 Molecular Surface Area = 101.582 Angst**2

                       Distance Matrix (Angstroms)
             C (  1)   O (  2)   H (  3)   C (  4)   H (  5)   O (  6)
   O (  2)  1.203468
   H (  3)  1.098642  2.021884
   C (  4)  1.518111  2.393081  2.212255
   H (  5)  2.153897  2.922982  2.743888  1.091278
   O (  6)  2.362685  3.429526  2.545678  1.379267  2.069011
   O (  7)  2.381818  2.658691  3.345185  1.457827  2.056749  2.338471
   O (  8)  3.545351  3.899408  4.432480  2.270533  2.429981  2.840788
   H (  9)  3.182343  4.232983  3.375947  1.927126  2.205079  0.964825
             O (  7)   O (  8)
   O (  8)  1.304138
   H (  9)  2.723482  2.776909
 
 Applying Cartesian multipole field
    Component          Value
    ---------          -----
     (2,0,0)        1.00000E-11
     (0,2,0)        2.00000E-11
     (0,0,2)       -3.00000E-11
 Nucleus-field energy     =     0.0000000028 hartrees
 Requested basis set is 6-311++G(2df,2p)
 There are 66 shells and 234 basis functions
 A cutoff of  1.0D-12 yielded   2093 shell pairs
 There are     26529 function pairs (     33774 Cartesian)
 Smallest overlap matrix eigenvalue = 8.45E-05
 Guess from superposition of atomic densities
 Warning:  Energy on first SCF cycle will be non-variational
 SAD guess density has 47.000000 electrons

 -----------------------------------------------------------------------
  General SCF calculation program by
  Eric Jon Sundstrom, Paul Horn, Yuezhi Mao, Dmitri Zuev, Alec White,
  David Stuck, Shaama M.S., Shane Yost, Joonho Lee, David Small,
  Daniel Levine, Susi Lehtola, Hugh Burton, Evgeny Epifanovsky,
  Bang C. Huynh
 -----------------------------------------------------------------------
 Exchange:     0.1500 Hartree-Fock + 1.0000 wB97M-V + LR-HF
 Correlation:  1.0000 wB97M-V
 Using SG-2 standard quadrature grid
 Nonlocal Correlation:  VV10 with C = 0.0100 and b = 6.00 and scale = 1.00000
 Grid used for NLC:  SG-1 standard quadrature
 
 Citation of the SMD model:
 Marenich, A.V.; Cramer, C.J.; Truhlar, D.G.
 J. Phys. Chem. B 2009, 113, 6378-6396.
 iSolventCode=           1
 Solvent: water                                                           
 
 vradii
            1           2           3           4           5           6
    1   1.8500000   1.5200000   1.2000000   1.8500000   1.2000000   1.5200000
            7           8           9
    1   1.5200000   1.5200000   1.2000000
 -------------------------------------------------------
 OpenMP BLAS3 based DFT computing Module                
 Release: version 1.0, May 2013, Q-Chem Inc. Pittsburgh 
 -------------------------------------------------------
 A unrestricted SCF calculation will be
 performed using DIIS, GDM
 SCF converges when RMS gradient is below 1.0e-07
 ---------------------------------------
  Cycle       Energy         DIIS error
 ---------------------------------------
    1    -379.7274102837      1.61e-02  
    2    -378.6550985313      2.50e-03  Done DIIS. Switching to GDM
 ---------------------------------------
  Cycle       Energy        RMS Gradient
 ---------------------------------------
    1    -378.6550985313      1.50e-01   Descent step
    2    -378.7796439509      1.62e-02   Normal BFGS step
    3    -378.7917807105      2.53e-02   Normal BFGS step
    4    -378.7934736439      5.30e-03   Normal BFGS step
    5    -378.7941382055      6.69e-03   Normal BFGS step
    6    -378.7942808463      3.04e-03   Normal BFGS step
    7    -378.7943389659      1.85e-03   Normal BFGS step
    8    -378.7943549892      7.90e-04   Normal BFGS step
    9    -378.7943573753      5.45e-04   Normal BFGS step
   10    -378.7943581524      3.45e-04   Normal BFGS step
   11    -378.7943587170      3.59e-04   Normal BFGS step
   12    -378.7943591990      2.86e-04   Normal BFGS step
   13    -378.7943595226      1.25e-04   Normal BFGS step
   14    -378.7943596117      3.77e-05   Normal BFGS step
   15    -378.7943596241      5.82e-06   Normal BFGS step
   16    -378.7943596256      3.43e-06   Normal BFGS step
   17    -378.7943596258      1.63e-06   Normal BFGS step
   18    -378.7943596258      4.39e-07   Normal BFGS step
   19    -378.7943596258      1.94e-07   Normal BFGS step
   20    -378.7943596258      1.15e-07   Normal BFGS step
   21    -378.7943596258      9.92e-08  Convergence criterion met
 ---------------------------------------
 SCF time:   CPU 445.21s  wall 56.00s 
<S^2> =          0.753808040
(3)  G-ENP(liq) elect-nuc-pol free energy of system     -378.794359626 a.u.
(4)  G-CDS(liq) cavity-dispersion-solvent structure 
     free energy                                                3.2705 kcal/mol
(6)  G-S(liq) free energy of system                     -378.789147821 a.u.
 SCF   energy in the final basis set =     -378.7891478212
 Total energy in the final basis set =     -378.7891478212
 
 --------------------------------------------------------------
 
                    Orbital Energies (a.u.)
 --------------------------------------------------------------
 
 Alpha MOs
 -- Occupied --
-19.4692 -19.4274 -19.3712 -19.3645 -10.4717 -10.4571  -1.3554  -1.2160
 -1.1986  -1.0202  -0.8505  -0.7293  -0.6883  -0.6631  -0.6468  -0.6043
 -0.5882  -0.5666  -0.5248  -0.4943  -0.4613  -0.4172  -0.4098  -0.3858
 -- Virtual --
  0.0219   0.0358   0.0482   0.0563   0.0766   0.0997   0.1099   0.1158
  0.1306   0.1412   0.1588   0.1680   0.1754   0.2060   0.2203   0.2315
  0.2381   0.2571   0.2660   0.2731   0.2782   0.2913   0.2993   0.3076
  0.3139   0.3306   0.3437   0.3470   0.3518   0.3693   0.3850   0.4015
  0.4251   0.4472   0.4560   0.4883   0.5755   0.5844   0.6024   0.6215
  0.6559   0.6581   0.6718   0.7002   0.7148   0.7688   0.8071   0.8290
  0.8476   0.9142   0.9604   0.9780   0.9964   1.0460   1.0696   1.0802
  1.0962   1.1095   1.1179   1.1331   1.1554   1.1588   1.1761   1.1770
  1.1974   1.2016   1.2331   1.2646   1.3162   1.3349   1.3533   1.3880
  1.4084   1.4649   1.4770   1.4895   1.5323   1.5503   1.5856   1.5892
  1.6139   1.6666   1.6946   1.7306   1.7811   1.8057   1.8581   1.8832
  1.9254   2.0448   2.0949   2.1265   2.1651   2.2047   2.2754   2.3155
  2.3403   2.3806   2.4002   2.4641   2.5606   2.6211   2.6754   2.7014
  2.7770   2.8176   2.8680   2.9760   2.9912   3.0622   3.1108   3.1424
  3.1985   3.2552   3.2794   3.3325   3.3612   3.4118   3.4149   3.4699
  3.5191   3.5645   3.5954   3.6099   3.7200   3.7556   3.7927   3.8022
  3.8497   3.8663   3.9566   3.9831   4.0868   4.1338   4.1800   4.2179
  4.2396   4.3417   4.4017   4.4985   4.5632   4.6172   4.6840   4.7070
  4.8317   4.8833   4.9959   5.0366   5.0740   5.0767   5.1039   5.1449
  5.1584   5.1605   5.1799   5.1969   5.2104   5.2402   5.2757   5.2933
  5.3223   5.3249   5.3831   5.4326   5.4997   5.5218   5.5440   5.5772
  5.6022   5.6728   5.7171   5.7896   5.8832   6.0372   6.1166   6.3690
  6.3991   6.4615   6.5814   6.6389   6.7533   6.8228   6.8739   6.9275
  6.9388   6.9812   7.0508   7.0929   7.1100   7.1782   7.2142   7.2769
  7.3075   7.3225   7.3568   7.4119   7.4784   7.5264   7.6424   7.7320
  7.7675   7.8312   8.0057   8.0807  24.7086  24.9431  50.4045  50.4939
 50.5829  50.6951
 
 Beta MOs
 -- Occupied --
-19.4594 -19.4081 -19.3710 -19.3645 -10.4721 -10.4572  -1.3300  -1.2150
 -1.1972  -0.9878  -0.8420  -0.7237  -0.6807  -0.6502  -0.6356  -0.5858
 -0.5607  -0.5425  -0.5239  -0.4810  -0.4558  -0.4054  -0.3796
 -- Virtual --
 -0.0389   0.0228   0.0359   0.0485   0.0569   0.0772   0.1003   0.1108
  0.1162   0.1318   0.1425   0.1614   0.1683   0.1798   0.2077   0.2215
  0.2336   0.2406   0.2654   0.2731   0.2739   0.2793   0.2933   0.2999
  0.3094   0.3171   0.3317   0.3452   0.3493   0.3533   0.3708   0.3866
  0.4036   0.4260   0.4480   0.4568   0.4893   0.5759   0.5847   0.6028
  0.6222   0.6561   0.6585   0.6724   0.7003   0.7151   0.7714   0.8075
  0.8295   0.8487   0.9145   0.9623   0.9797   0.9984   1.0570   1.0715
  1.0858   1.1038   1.1118   1.1218   1.1427   1.1609   1.1638   1.1820
  1.1898   1.2032   1.2104   1.2377   1.2674   1.3191   1.3363   1.3554
  1.3956   1.4110   1.4756   1.4829   1.4927   1.5365   1.5611   1.5961
  1.6048   1.6255   1.6742   1.7030   1.7403   1.7958   1.8065   1.8652
  1.8892   1.9282   2.0479   2.0999   2.1315   2.1707   2.2178   2.2832
  2.3298   2.3449   2.3875   2.4018   2.4654   2.5609   2.6238   2.6844
  2.7036   2.7774   2.8180   2.8684   2.9761   2.9912   3.0629   3.1107
  3.1424   3.1987   3.2558   3.2806   3.3342   3.3621   3.4121   3.4151
  3.4703   3.5196   3.5645   3.5955   3.6099   3.7207   3.7560   3.7941
  3.8025   3.8503   3.8670   3.9568   3.9838   4.0875   4.1344   4.1803
  4.2181   4.2406   4.3420   4.4055   4.5002   4.5921   4.6260   4.6850
  4.7250   4.8556   4.8945   5.0143   5.1032   5.1170   5.1239   5.1384
  5.1593   5.1719   5.1754   5.1935   5.2278   5.2367   5.2489   5.2903
  5.2966   5.3312   5.3420   5.3945   5.4451   5.5020   5.5297   5.5476
  5.5792   5.6135   5.6832   5.7286   5.8006   5.8847   6.0410   6.1226
  6.3754   6.4062   6.5078   6.5928   6.6457   6.7676   6.8987   6.9321
  6.9564   6.9736   6.9986   7.0589   7.1140   7.1301   7.2034   7.2325
  7.2787   7.3166   7.3256   7.3975   7.4341   7.4872   7.5408   7.6451
  7.7331   7.7735   7.8402   8.0171   8.1015  24.7084  24.9430  50.4174
 50.5026  50.5838  50.6951
 --------------------------------------------------------------
 
          Ground-State Mulliken Net Atomic Charges

     Atom                 Charge (a.u.)    Spin (a.u.)
  --------------------------------------------------------
      1 C                     0.157676       0.001042
      2 O                    -0.351380       0.002000
      3 H                     0.190721      -0.000486
      4 C                    -0.045246      -0.005062
      5 H                     0.261886       0.005563
      6 O                    -0.392655       0.003823
      7 O                     0.036372       0.294184
      8 O                    -0.218767       0.697908
      9 H                     0.361393       0.001028
  --------------------------------------------------------
  Sum of atomic charges =    -0.000000
  Sum of spin   charges =     1.000000

 -----------------------------------------------------------------
                    Cartesian Multipole Moments
 -----------------------------------------------------------------
    Charge (ESU x 10^10)
                -0.0000
    Dipole Moment (Debye)
         X      -0.7335      Y       5.3706      Z       0.3194
       Tot       5.4298
    Quadrupole Moments (Debye-Ang)
        XX     -37.9698     XY      -0.4580     YY     -36.9653
        XZ       1.0548     YZ      -2.4211     ZZ     -35.6189
    Octopole Moments (Debye-Ang^2)
       XXX     -15.5047    XXY      28.4223    XYY       6.7598
       YYY      49.6718    XXZ       9.8313    XYZ      -1.7288
       YYZ       2.5543    XZZ     -11.8156    YZZ      10.9665
       ZZZ       4.1288
    Hexadecapole Moments (Debye-Ang^3)
      XXXX    -370.5026   XXXY     -31.1747   XXYY     -98.4859
      XYYY     -29.2349   YYYY    -192.3966   XXXZ      60.2111
      XXYZ      -9.3294   XYYZ      21.8897   YYYZ     -27.9848
      XXZZ     -85.2265   XYZZ      -8.4750   YYZZ     -55.2012
      XZZZ      49.3604   YZZZ     -31.7286   ZZZZ    -135.3322
 -----------------------------------------------------------------
 Calculating analytic gradient of the SCF energy
 Gradient of CDS energy
            1           2           3           4           5           6
    1  -0.0015772   0.0005425   0.0001344   0.0026296   0.0001789  -0.0023551
    2  -0.0017663   0.0010981   0.0001769   0.0031225   0.0000088  -0.0030146
    3  -0.0000414   0.0003114   0.0000991   0.0036780  -0.0001785  -0.0038974
            7           8           9
    1   0.0001930  -0.0000059   0.0002598
    2   0.0001018  -0.0001182   0.0003910
    3  -0.0000445  -0.0000359   0.0001091
 Gradient of SCF Energy
            1           2           3           4           5           6
    1   0.0044201  -0.0009195  -0.0057398   0.0055842  -0.0033973  -0.0097613
    2  -0.0019298  -0.0068879   0.0073865  -0.0087156   0.0115019  -0.0138833
    3  -0.0085421  -0.0012313   0.0071637   0.0148000  -0.0126138   0.0108061
            7           8           9
    1  -0.0019153   0.0017070   0.0100218
    2   0.0001469  -0.0022578   0.0146390
    3   0.0001227  -0.0016555  -0.0088498
 Max gradient component =       1.480E-02
 RMS gradient           =       7.996E-03
 Computing fast CPCM-SWIG gradient
 Updating gradient with PCM contributions...
 -- total gradient after adding PCM contribution --
---------------------------------------------------
  Atom         X              Y              Z     
---------------------------------------------------
   1       0.000150       0.000028       0.000044
   2      -0.000010      -0.000054      -0.000001
   3      -0.000137       0.000067       0.000041
   4      -0.000070      -0.000063      -0.000068
   5      -0.000064      -0.000044      -0.000079
   6      -0.000070      -0.000032       0.000024
   7      -0.000009      -0.000043       0.000108
   8      -0.000065      -0.000030      -0.000104
   9       0.000275       0.000171       0.000034
---------------------------------------------------
 Number of fixed atoms: 0
 Gradient time:  CPU 55.34 s  wall 8.26 s

STARTING FREEZING STRING ITERATION # 1
 The distance between the innermost nodes (Angstroms): 3.886
-Adding two new nodes
 The distance between the previous and current R_nodes (Angstroms): 0.1861
 The distance between the previous and current P_nodes (Angstroms): 0.1742
-Optimizing new reactant side node
 Using BFGS, step: 2 E_tol 0.0200
 max_steps 6, node_spacing 0.1943, sigma 0.7000
 ----------------------------------------------------------------
             Standard Nuclear Orientation (Angstroms)
    I     Atom           X                Y                Z
 ----------------------------------------------------------------
    1      C      -1.2030530957    -0.4495731688     0.4594555423
    2      O      -1.8077196213    -1.3397773859    -0.0828211442
    3      H      -0.9429857581    -0.4634077533     1.5277080713
    4      C      -0.7738950040     0.7979901779    -0.2881776708
    5      H      -0.9380126524     0.7978724964    -1.3733254160
    6      O      -0.3663841180     1.7686182200     0.3238614903
    7      O       1.3059866660    -0.7641398922    -0.4563488103
    8      O       2.0702305201     0.1754147148     0.0329417677
    9      H       3.0620573637    -0.2858585960     0.1143413446
 ----------------------------------------------------------------
 Nuclear Repulsion Energy =         219.47857836 hartrees
 There are       24 alpha and       23 beta electrons
 Discretize the solute cavity surface with Lebedev spheres
	Using 110 Lebedev grid points for each H atom
	Using 194 Lebedev grid points for other atoms
	Atomic van der Waals radii will be scaled by 1.20
 Remove points where switching function is < 1.0e-08
 Keep 886 surface tesserae and discard 608 interior tesserae
 Molecular Surface Area = 111.485 Angst**2

                       Distance Matrix (Angstroms)
             C (  1)   O (  2)   H (  3)   C (  4)   H (  5)   O (  6)
   O (  2)  1.205052
   H (  3)  1.099541  2.027213
   C (  4)  1.516426  2.383488  2.217466
   H (  5)  2.232813  2.644114  3.163360  1.097488
   O (  6)  2.374610  3.450357  2.600703  1.217693  2.037044
   O (  7)  2.689411  3.188424  3.014100  2.606615  2.883793  3.133754
   O (  8)  3.359600  4.165058  3.423725  2.929124  3.378545  2.925752
   H (  9)  4.282181  4.986416  4.250823  4.006405  4.403202  4.002372
             O (  7)   O (  8)
   O (  8)  1.306230
   H (  9)  1.907413  1.096868
 
 Applying Cartesian multipole field
    Component          Value
    ---------          -----
     (2,0,0)        1.00000E-11
     (0,2,0)        2.00000E-11
     (0,0,2)       -3.00000E-11
 Nucleus-field energy     =     0.0000000062 hartrees
 Requested basis set is 6-311++G(2df,2p)
 There are 66 shells and 234 basis functions
 A cutoff of  1.0D-12 yielded   2037 shell pairs
 There are     25882 function pairs (     32908 Cartesian)
 Smallest overlap matrix eigenvalue = 8.83E-05
 Guess from superposition of atomic densities
 Warning:  Energy on first SCF cycle will be non-variational
 SAD guess density has 47.000000 electrons

 -----------------------------------------------------------------------
  General SCF calculation program by
  Eric Jon Sundstrom, Paul Horn, Yuezhi Mao, Dmitri Zuev, Alec White,
  David Stuck, Shaama M.S., Shane Yost, Joonho Lee, David Small,
  Daniel Levine, Susi Lehtola, Hugh Burton, Evgeny Epifanovsky,
  Bang C. Huynh
 -----------------------------------------------------------------------
 Exchange:     0.1500 Hartree-Fock + 1.0000 wB97M-V + LR-HF
 Correlation:  1.0000 wB97M-V
 Using SG-2 standard quadrature grid
 Nonlocal Correlation:  VV10 with C = 0.0100 and b = 6.00 and scale = 1.00000
 Grid used for NLC:  SG-1 standard quadrature
 
 Citation of the SMD model:
 Marenich, A.V.; Cramer, C.J.; Truhlar, D.G.
 J. Phys. Chem. B 2009, 113, 6378-6396.
 iSolventCode=           1
 Solvent: water                                                           
 
 vradii
            1           2           3           4           5           6
    1   1.8500000   1.5200000   1.2000000   1.8500000   1.2000000   1.5200000
            7           8           9
    1   1.5200000   1.5200000   1.2000000
 -------------------------------------------------------
 OpenMP BLAS3 based DFT computing Module                
 Release: version 1.0, May 2013, Q-Chem Inc. Pittsburgh 
 -------------------------------------------------------
 A unrestricted SCF calculation will be
 performed using DIIS, GDM
 SCF converges when RMS gradient is below 1.0e-07
 ---------------------------------------
  Cycle       Energy         DIIS error
 ---------------------------------------
    1    -379.3338991517      1.54e-02  
    2    -378.6193963420      2.53e-03  Done DIIS. Switching to GDM
 ---------------------------------------
  Cycle       Energy        RMS Gradient
 ---------------------------------------
    1    -378.6193963420      1.62e-01   Descent step
    2    -378.7510145726      3.23e-02   Normal BFGS step
    3    -378.7644051320      1.35e-02   Normal BFGS step
    4    -378.7658785852      9.07e-03   Normal BFGS step
    5    -378.7661241296      3.16e-03   Normal BFGS step
    6    -378.7662077918      3.73e-03   Normal BFGS step
    7    -378.7662259958      5.89e-04   Normal BFGS step
    8    -378.7662354137      3.10e-04   Normal BFGS step
    9    -378.7662362500      2.21e-04   Normal BFGS step
   10    -378.7662364446      9.56e-05   Normal BFGS step
   11    -378.7662365223      7.59e-05   Normal BFGS step
   12    -378.7662365340      6.73e-05   Normal BFGS step
   13    -378.7662365481      4.21e-05   Normal BFGS step
   14    -378.7662365539      2.37e-05   Normal BFGS step
   15    -378.7662365577      9.17e-06   Normal BFGS step
   16    -378.7662365586      6.82e-06   Normal BFGS step
   17    -378.7662365588      3.88e-06   Normal BFGS step
   18    -378.7662365589      1.88e-06   Normal BFGS step
   19    -378.7662365589      7.53e-07   Normal BFGS step
   20    -378.7662365589      3.54e-07   Normal BFGS step
   21    -378.7662365589      1.52e-07   Normal BFGS step
   22    -378.7662365589      8.54e-08  Convergence criterion met
 ---------------------------------------
 SCF time:   CPU 429.49s  wall 54.00s 
<S^2> =          0.754270000
(3)  G-ENP(liq) elect-nuc-pol free energy of system     -378.766236559 a.u.
(4)  G-CDS(liq) cavity-dispersion-solvent structure 
     free energy                                                4.5109 kcal/mol
(6)  G-S(liq) free energy of system                     -378.759047994 a.u.
 SCF   energy in the final basis set =     -378.7590479941
 Total energy in the final basis set =     -378.7590479941
 
 --------------------------------------------------------------
 
                    Orbital Energies (a.u.)
 --------------------------------------------------------------
 
 Alpha MOs
 -- Occupied --
-19.4695 -19.4276 -19.3643 -19.3630 -10.4522 -10.4517  -1.3394  -1.2142
 -1.1984  -0.9834  -0.8226  -0.7074  -0.6706  -0.6191  -0.6143  -0.6067
 -0.6062  -0.5642  -0.5438  -0.4949  -0.4365  -0.4157  -0.4100  -0.3679
 -- Virtual --
 -0.0102   0.0294   0.0447   0.0474   0.0706   0.0945   0.0955   0.1071
  0.1197   0.1270   0.1471   0.1553   0.1694   0.1828   0.1883   0.2265
  0.2343   0.2449   0.2502   0.2657   0.2696   0.2812   0.2967   0.3221
  0.3253   0.3317   0.3324   0.3461   0.3632   0.3772   0.3950   0.4103
  0.4119   0.4415   0.4776   0.4915   0.5344   0.5741   0.6043   0.6175
  0.6493   0.6613   0.6847   0.6924   0.7369   0.7431   0.7956   0.8045
  0.8132   0.8255   0.8517   0.8994   1.0140   1.0209   1.0484   1.0665
  1.0739   1.0901   1.0973   1.1073   1.1265   1.1396   1.1570   1.1667
  1.1970   1.2132   1.2215   1.2458   1.2569   1.2845   1.2966   1.3457
  1.3814   1.3916   1.4095   1.4787   1.4970   1.5550   1.5728   1.5937
  1.6392   1.6399   1.6854   1.7165   1.7486   1.7935   1.8335   1.8642
  1.8735   1.9023   2.0148   2.0817   2.1247   2.1917   2.2584   2.2845
  2.2904   2.3769   2.5132   2.5150   2.5563   2.5820   2.6615   2.6768
  2.6779   2.7103   2.8165   2.8791   2.9364   2.9828   2.9991   3.0479
  3.0917   3.1152   3.1889   3.2648   3.3012   3.3397   3.4003   3.4201
  3.4245   3.4429   3.5226   3.5603   3.5998   3.7006   3.7082   3.7227
  3.7481   3.8326   3.8608   3.9081   3.9310   3.9721   4.1226   4.2122
  4.2300   4.2555   4.2751   4.5119   4.5145   4.6473   4.6931   4.7077
  4.7272   4.7558   4.8397   5.0249   5.0630   5.0826   5.0942   5.1230
  5.1273   5.1499   5.1617   5.1693   5.1735   5.2114   5.2170   5.2205
  5.2631   5.2847   5.2988   5.3173   5.3807   5.4665   5.5389   5.5630
  5.5748   5.5851   5.6085   5.6436   5.8249   5.9082   6.3098   6.3352
  6.3594   6.4359   6.5539   6.6102   6.8023   6.8476   6.8817   6.8866
  6.9205   6.9325   6.9430   6.9638   6.9954   7.0567   7.0742   7.1146
  7.1715   7.2741   7.3315   7.3554   7.3924   7.4972   7.5372   7.5988
  7.7100   7.7631   7.9288   7.9966  24.8506  24.9930  50.3748  50.4197
 50.6855  50.6997
 
 Beta MOs
 -- Occupied --
-19.4590 -19.4084 -19.3643 -19.3630 -10.4522 -10.4517  -1.3112  -1.2142
 -1.1985  -0.9420  -0.8224  -0.7071  -0.6545  -0.6075  -0.6067  -0.5982
 -0.5638  -0.5430  -0.5304  -0.4947  -0.4361  -0.3941  -0.3678
 -- Virtual --
 -0.0354  -0.0081   0.0304   0.0450   0.0479   0.0709   0.0958   0.0968
  0.1074   0.1202   0.1287   0.1482   0.1561   0.1733   0.1840   0.1901
  0.2305   0.2353   0.2461   0.2519   0.2719   0.2784   0.2853   0.2981
  0.3245   0.3269   0.3326   0.3338   0.3463   0.3644   0.3793   0.3963
  0.4107   0.4128   0.4423   0.4778   0.4916   0.5363   0.5748   0.6052
  0.6176   0.6501   0.6616   0.6851   0.6925   0.7388   0.7440   0.7979
  0.8055   0.8135   0.8270   0.8521   0.8997   1.0181   1.0300   1.0521
  1.0703   1.0767   1.0971   1.1029   1.1111   1.1338   1.1436   1.1601
  1.1687   1.2025   1.2177   1.2232   1.2557   1.2694   1.2899   1.3010
  1.3464   1.3933   1.4002   1.4216   1.4875   1.5011   1.5581   1.5759
  1.6029   1.6436   1.6587   1.6946   1.7290   1.7590   1.7965   1.8396
  1.8673   1.8799   1.9197   2.0151   2.0821   2.1342   2.1988   2.2768
  2.2939   2.3001   2.3833   2.5135   2.5156   2.5574   2.5905   2.6619
  2.6777   2.6847   2.7105   2.8164   2.8795   2.9364   2.9831   2.9991
  3.0480   3.0919   3.1153   3.1892   3.2651   3.3012   3.3400   3.4005
  3.4203   3.4247   3.4430   3.5230   3.5605   3.5998   3.7028   3.7103
  3.7229   3.7486   3.8350   3.8609   3.9085   3.9311   3.9751   4.1226
  4.2122   4.2303   4.2559   4.2754   4.5121   4.5538   4.6582   4.6945
  4.7209   4.7401   4.7763   4.8579   5.0860   5.0958   5.1142   5.1205
  5.1289   5.1528   5.1660   5.1720   5.1784   5.1872   5.2399   5.2439
  5.2493   5.2875   5.2962   5.3140   5.3466   5.3812   5.4668   5.5389
  5.5635   5.5851   5.6047   5.6101   5.6678   5.8249   5.9083   6.3101
  6.3503   6.3610   6.4839   6.5540   6.6243   6.8449   6.8705   6.9175
  6.9318   6.9380   6.9490   6.9778   7.0044   7.0351   7.0586   7.1144
  7.1247   7.1762   7.2793   7.3383   7.4017   7.4182   7.4972   7.5377
  7.6152   7.7105   7.7635   7.9401   8.0210  24.8506  24.9930  50.3847
 50.4325  50.6855  50.6998
 --------------------------------------------------------------
 
          Ground-State Mulliken Net Atomic Charges

     Atom                 Charge (a.u.)    Spin (a.u.)
  --------------------------------------------------------
      1 C                     0.058545       0.002863
      2 O                    -0.333122       0.001728
      3 H                     0.228463       0.000079
      4 C                     0.029731      -0.002914
      5 H                     0.246253       0.000151
      6 O                    -0.324224      -0.003880
      7 O                    -0.160945       0.684285
      8 O                    -0.145856       0.330251
      9 H                     0.401155      -0.012564
  --------------------------------------------------------
  Sum of atomic charges =    -0.000000
  Sum of spin   charges =     1.000000

 -----------------------------------------------------------------
                    Cartesian Multipole Moments
 -----------------------------------------------------------------
    Charge (ESU x 10^10)
                -0.0000
    Dipole Moment (Debye)
         X       4.1638      Y      -0.4024      Z       0.4371
       Tot       4.2060
    Quadrupole Moments (Debye-Ang)
        XX     -22.0403     XY      -6.2593     YY     -44.9089
        XZ       0.3307     YZ      -4.0067     ZZ     -32.0910
    Octopole Moments (Debye-Ang^2)
       XXX      72.3540    XXY       3.8100    XYY      11.1784
       YYY      -9.3501    XXZ       5.0032    XYZ       1.4163
       YYZ      -2.0187    XZZ       1.5573    YZZ      -1.2575
       ZZZ      -0.0042
    Hexadecapole Moments (Debye-Ang^3)
      XXXX    -267.4616   XXXY     -57.5767   XXYY    -129.1237
      XYYY     -24.6116   YYYY    -290.0298   XXXZ      17.7025
      XXYZ      -6.8343   XYYZ       6.7691   YYYZ     -12.0123
      XXZZ     -82.3192   XYZZ      -6.2491   YYZZ     -54.3806
      XZZZ      11.6530   YZZZ     -12.5553   ZZZZ     -62.5520
 -----------------------------------------------------------------
 Calculating analytic gradient of the SCF energy
 Gradient of CDS energy
            1           2           3           4           5           6
    1  -0.0013446   0.0007511   0.0000725   0.0005536   0.0000042  -0.0004002
    2  -0.0021414   0.0010146   0.0001383   0.0024117  -0.0001774  -0.0011748
    3  -0.0000143   0.0005189   0.0000733   0.0002328  -0.0001041  -0.0006334
            7           8           9
    1   0.0001164  -0.0001775   0.0004246
    2   0.0001176  -0.0001439  -0.0000449
    3  -0.0000431  -0.0001152   0.0000851
 Gradient of SCF Energy
            1           2           3           4           5           6
    1  -0.0047420  -0.0006750   0.0019761   0.0027891  -0.0030324   0.0056194
    2  -0.0000238  -0.0037828   0.0003256  -0.0141097   0.0003950   0.0171780
    3  -0.0090291  -0.0001365   0.0058861  -0.0007852  -0.0051370   0.0097118
            7           8           9
    1   0.0004838  -0.0867406   0.0843216
    2  -0.0067791   0.0493132  -0.0425164
    3  -0.0025481  -0.0043186   0.0063565
 Max gradient component =       8.674E-02
 RMS gradient           =       2.708E-02
 Computing fast CPCM-SWIG gradient
 Updating gradient with PCM contributions...
 -- total gradient after adding PCM contribution --
---------------------------------------------------
  Atom         X              Y              Z     
---------------------------------------------------
   1      -0.002466       0.000523      -0.002111
   2       0.000827      -0.000679       0.001264
   3       0.000107       0.000262      -0.000349
   4       0.001060      -0.014762      -0.007754
   5      -0.001959       0.000589       0.000509
   6       0.004245       0.013946       0.008742
   7       0.002157      -0.003053      -0.000434
   8      -0.067110       0.036704      -0.004009
   9       0.063138      -0.033529       0.004142
---------------------------------------------------
 Number of fixed atoms: 0
 Gradient time:  CPU 49.15 s  wall 7.50 s
 ----------------------------------------------------------------
             Standard Nuclear Orientation (Angstroms)
    I     Atom           X                Y                Z
 ----------------------------------------------------------------
    1      C      -1.2020085324    -0.4509774378     0.4615489025
    2      O      -1.8073355313    -1.3412408256    -0.0837821582
    3      H      -0.9479480770    -0.4626328866     1.5293539380
    4      C      -0.7700876626     0.8069367127    -0.2807419155
    5      H      -0.9321651732     0.7970846864    -1.3722392325
    6      O      -0.3641869368     1.7543404222     0.3207296786
    7      O       1.2998687418    -0.7616975126    -0.4563620209
    8      O       2.1180795428     0.1571102033     0.0164447043
    9      H       3.0120573637    -0.2618487184     0.1226643971
 ----------------------------------------------------------------
 Nuclear Repulsion Energy =         219.74133902 hartrees
 There are       24 alpha and       23 beta electrons
 Discretize the solute cavity surface with Lebedev spheres
	Using 110 Lebedev grid points for each H atom
	Using 194 Lebedev grid points for other atoms
	Atomic van der Waals radii will be scaled by 1.20
 Remove points where switching function is < 1.0e-08
 Keep 890 surface tesserae and discard 604 interior tesserae
 Molecular Surface Area = 110.955 Angst**2

                       Distance Matrix (Angstroms)
             C (  1)   O (  2)   H (  3)   C (  4)   H (  5)   O (  6)
   O (  2)  1.206804
   H (  3)  1.097675  2.027981
   C (  4)  1.523122  2.393605  2.218082
   H (  5)  2.234559  2.645464  3.163286  1.103509
   O (  6)  2.363303  3.439321  2.591625  1.193355  2.026100
   O (  7)  2.683002  3.182673  3.014165  2.603109  2.872387  3.115028
   O (  8)  3.404537  4.202854  3.474694  2.975249  3.412038  2.967386
   H (  9)  4.231898  4.943102  4.207224  3.950906  4.348904  3.937420
             O (  7)   O (  8)
   O (  8)  1.318037
   H (  9)  1.875289  0.992978
 
 Applying Cartesian multipole field
    Component          Value
    ---------          -----
     (2,0,0)        1.00000E-11
     (0,2,0)        2.00000E-11
     (0,0,2)       -3.00000E-11
 Nucleus-field energy     =     0.0000000062 hartrees
 Requested basis set is 6-311++G(2df,2p)
 There are 66 shells and 234 basis functions
 A cutoff of  1.0D-12 yielded   2034 shell pairs
 There are     25816 function pairs (     32824 Cartesian)
 Smallest overlap matrix eigenvalue = 9.02E-05
 Guess from superposition of atomic densities
 Warning:  Energy on first SCF cycle will be non-variational
 SAD guess density has 47.000000 electrons

 -----------------------------------------------------------------------
  General SCF calculation program by
  Eric Jon Sundstrom, Paul Horn, Yuezhi Mao, Dmitri Zuev, Alec White,
  David Stuck, Shaama M.S., Shane Yost, Joonho Lee, David Small,
  Daniel Levine, Susi Lehtola, Hugh Burton, Evgeny Epifanovsky,
  Bang C. Huynh
 -----------------------------------------------------------------------
 Exchange:     0.1500 Hartree-Fock + 1.0000 wB97M-V + LR-HF
 Correlation:  1.0000 wB97M-V
 Using SG-2 standard quadrature grid
 Nonlocal Correlation:  VV10 with C = 0.0100 and b = 6.00 and scale = 1.00000
 Grid used for NLC:  SG-1 standard quadrature
 
 Citation of the SMD model:
 Marenich, A.V.; Cramer, C.J.; Truhlar, D.G.
 J. Phys. Chem. B 2009, 113, 6378-6396.
 iSolventCode=           1
 Solvent: water                                                           
 
 vradii
            1           2           3           4           5           6
    1   1.8500000   1.5200000   1.2000000   1.8500000   1.2000000   1.5200000
            7           8           9
    1   1.5200000   1.5200000   1.2000000
 -------------------------------------------------------
 OpenMP BLAS3 based DFT computing Module                
 Release: version 1.0, May 2013, Q-Chem Inc. Pittsburgh 
 -------------------------------------------------------
 A unrestricted SCF calculation will be
 performed using DIIS, GDM
 SCF converges when RMS gradient is below 1.0e-07
 ---------------------------------------
  Cycle       Energy         DIIS error
 ---------------------------------------
    1    -379.4195867929      1.57e-02  
    2    -378.6338852290      2.48e-03  Done DIIS. Switching to GDM
 ---------------------------------------
  Cycle       Energy        RMS Gradient
 ---------------------------------------
    1    -378.6338852290      1.55e-01   Descent step
    2    -378.7603559892      2.94e-02   Normal BFGS step
    3    -378.7734634504      1.20e-02   Normal BFGS step
    4    -378.7749223438      1.10e-02   Normal BFGS step
    5    -378.7751537681      2.07e-03   Normal BFGS step
    6    -378.7752508959      4.23e-03   Normal BFGS step
    7    -378.7752758662      6.35e-04   Normal BFGS step
    8    -378.7752848550      4.67e-04   Normal BFGS step
    9    -378.7752858517      3.03e-04   Normal BFGS step
   10    -378.7752862517      7.85e-05   Normal BFGS step
   11    -378.7752862988      2.88e-05   Normal BFGS step
   12    -378.7752863031      1.90e-05   Normal BFGS step
   13    -378.7752863046      9.72e-06   Normal BFGS step
   14    -378.7752863050      6.71e-06   Normal BFGS step
   15    -378.7752863052      3.89e-06   Normal BFGS step
   16    -378.7752863053      2.90e-06   Normal BFGS step
   17    -378.7752863053      2.10e-06   Normal BFGS step
   18    -378.7752863053      1.59e-06   Normal BFGS step
   19    -378.7752863053      9.41e-07   Normal BFGS step
   20    -378.7752863053      4.10e-07   Normal BFGS step
   21    -378.7752863053      2.85e-07   Normal BFGS step
   22    -378.7752863053      9.94e-08  Convergence criterion met
 ---------------------------------------
 SCF time:   CPU 427.37s  wall 54.00s 
<S^2> =          0.754088095
(3)  G-ENP(liq) elect-nuc-pol free energy of system     -378.775286305 a.u.
(4)  G-CDS(liq) cavity-dispersion-solvent structure 
     free energy                                                4.5249 kcal/mol
(6)  G-S(liq) free energy of system                     -378.768075394 a.u.
 SCF   energy in the final basis set =     -378.7680753943
 Total energy in the final basis set =     -378.7680753943
 
 --------------------------------------------------------------
 
                    Orbital Energies (a.u.)
 --------------------------------------------------------------
 
 Alpha MOs
 -- Occupied --
-19.4635 -19.4327 -19.3642 -19.3621 -10.4507 -10.4492  -1.3395  -1.2196
 -1.2046  -1.0045  -0.8196  -0.7064  -0.6841  -0.6189  -0.6141  -0.6079
 -0.6069  -0.5665  -0.5463  -0.4995  -0.4381  -0.4229  -0.4159  -0.3650
 -- Virtual --
 -0.0063   0.0320   0.0453   0.0489   0.0706   0.0953   0.0965   0.1071
  0.1191   0.1268   0.1466   0.1549   0.1756   0.1868   0.2047   0.2248
  0.2352   0.2455   0.2508   0.2611   0.2696   0.2809   0.2950   0.3204
  0.3272   0.3302   0.3343   0.3456   0.3628   0.3755   0.3945   0.4095
  0.4124   0.4410   0.4824   0.4918   0.5746   0.5804   0.6074   0.6189
  0.6501   0.6626   0.6854   0.6946   0.7383   0.7487   0.8042   0.8147
  0.8156   0.8398   0.8599   0.8991   1.0151   1.0219   1.0533   1.0666
  1.0711   1.0890   1.0973   1.1006   1.1246   1.1387   1.1564   1.1666
  1.1924   1.2113   1.2158   1.2448   1.2594   1.2634   1.3079   1.3464
  1.3869   1.4114   1.4494   1.4697   1.4957   1.5663   1.5818   1.6064
  1.6349   1.6437   1.6929   1.7193   1.7551   1.8009   1.8448   1.8733
  1.8793   1.9166   2.0199   2.0866   2.1066   2.1911   2.2467   2.2796
  2.2878   2.3682   2.5155   2.5274   2.5627   2.6123   2.6649   2.6825
  2.7049   2.7328   2.8184   2.8829   2.9372   2.9860   2.9988   3.0474
  3.0913   3.1134   3.1862   3.2653   3.3000   3.3395   3.4015   3.4196
  3.4220   3.4451   3.5197   3.5606   3.6109   3.6873   3.7143   3.7344
  3.7486   3.8489   3.8618   3.9148   3.9271   4.1091   4.1382   4.2162
  4.2304   4.2594   4.2835   4.5089   4.5264   4.6691   4.6875   4.7138
  4.7329   4.7498   4.8754   5.0312   5.0685   5.0836   5.0918   5.1192
  5.1258   5.1520   5.1675   5.1731   5.1828   5.2113   5.2154   5.2453
  5.2653   5.2920   5.3158   5.3890   5.4112   5.4661   5.5571   5.5775
  5.5988   5.6091   5.6156   5.6874   5.8437   5.9382   6.3438   6.3884
  6.4023   6.4251   6.5939   6.8082   6.8661   6.8778   6.8863   6.9211
  6.9352   6.9503   6.9586   6.9818   7.0401   7.0633   7.0781   7.1399
  7.1963   7.2723   7.3283   7.3554   7.3894   7.5003   7.5437   7.6369
  7.7144   7.7735   7.9344   7.9650  24.8723  25.0023  50.3669  50.4206
 50.6967  50.7240
 
 Beta MOs
 -- Occupied --
-19.4536 -19.4132 -19.3642 -19.3622 -10.4507 -10.4492  -1.3120  -1.2196
 -1.2045  -0.9638  -0.8194  -0.7061  -0.6670  -0.6090  -0.6076  -0.5988
 -0.5661  -0.5451  -0.5305  -0.4991  -0.4375  -0.4009  -0.3650
 -- Virtual --
 -0.0409  -0.0040   0.0327   0.0455   0.0495   0.0710   0.0961   0.0982
  0.1074   0.1197   0.1290   0.1478   0.1557   0.1792   0.1886   0.2070
  0.2290   0.2362   0.2468   0.2526   0.2702   0.2767   0.2827   0.2966
  0.3226   0.3286   0.3317   0.3348   0.3458   0.3642   0.3775   0.3958
  0.4103   0.4130   0.4418   0.4826   0.4919   0.5753   0.5832   0.6082
  0.6189   0.6510   0.6630   0.6858   0.6947   0.7404   0.7496   0.8054
  0.8155   0.8175   0.8418   0.8606   0.8995   1.0182   1.0320   1.0568
  1.0695   1.0757   1.0962   1.1020   1.1068   1.1289   1.1423   1.1596
  1.1690   1.1976   1.2151   1.2176   1.2598   1.2622   1.2736   1.3144
  1.3470   1.4009   1.4233   1.4551   1.4787   1.4976   1.5676   1.5868
  1.6153   1.6446   1.6619   1.7008   1.7310   1.7667   1.8028   1.8484
  1.8743   1.8880   1.9348   2.0203   2.0869   2.1187   2.1957   2.2712
  2.2891   2.2907   2.3733   2.5159   2.5278   2.5630   2.6253   2.6651
  2.6829   2.7062   2.7390   2.8184   2.8833   2.9371   2.9862   2.9988
  3.0475   3.0914   3.1135   3.1864   3.2656   3.3000   3.3397   3.4017
  3.4197   3.4222   3.4451   3.5202   3.5608   3.6109   3.6949   3.7147
  3.7346   3.7493   3.8534   3.8619   3.9152   3.9273   4.1092   4.1437
  4.2163   4.2308   4.2597   4.2840   4.5260   4.5484   4.6821   4.6882
  4.7161   4.7562   4.7659   4.8972   5.0861   5.0965   5.1169   5.1292
  5.1346   5.1527   5.1680   5.1734   5.1822   5.1989   5.2372   5.2473
  5.2731   5.2814   5.3036   5.3332   5.3893   5.4417   5.4670   5.5573
  5.5775   5.5992   5.6096   5.6428   5.7098   5.8437   5.9383   6.3446
  6.4031   6.4349   6.4379   6.5939   6.8691   6.8834   6.9192   6.9308
  6.9383   6.9409   6.9724   6.9868   7.0369   7.0639   7.0792   7.1058
  7.1474   7.1998   7.2781   7.3389   7.3988   7.4143   7.5004   7.5439
  7.6531   7.7151   7.7742   7.9461   7.9895  24.8723  25.0023  50.3777
 50.4324  50.6968  50.7240
 --------------------------------------------------------------
 
          Ground-State Mulliken Net Atomic Charges

     Atom                 Charge (a.u.)    Spin (a.u.)
  --------------------------------------------------------
      1 C                     0.059980       0.002891
      2 O                    -0.335983       0.002592
      3 H                     0.227239       0.000162
      4 C                     0.027814      -0.003316
      5 H                     0.238985       0.000177
      6 O                    -0.309657      -0.003471
      7 O                    -0.141118       0.697276
      8 O                    -0.143609       0.311275
      9 H                     0.376348      -0.007587
  --------------------------------------------------------
  Sum of atomic charges =     0.000000
  Sum of spin   charges =     1.000000

 -----------------------------------------------------------------
                    Cartesian Multipole Moments
 -----------------------------------------------------------------
    Charge (ESU x 10^10)
                 0.0000
    Dipole Moment (Debye)
         X       4.0027      Y      -0.2600      Z       0.5333
       Tot       4.0464
    Quadrupole Moments (Debye-Ang)
        XX     -22.8244     XY      -6.2251     YY     -44.5844
        XZ       0.3046     YZ      -3.8857     ZZ     -32.0317
    Octopole Moments (Debye-Ang^2)
       XXX      68.8736    XXY       4.7096    XYY      10.7804
       YYY      -7.9884    XXZ       5.4275    XYZ       1.3872
       YYZ      -1.8701    XZZ       1.6686    YZZ      -1.1185
       ZZZ       0.4010
    Hexadecapole Moments (Debye-Ang^3)
      XXXX    -281.9510   XXXY     -55.3720   XXYY    -129.5367
      XYYY     -25.1834   YYYY    -286.5607   XXXZ      18.7581
      XXYZ      -6.5441   XYYZ       6.8124   YYYZ     -11.6950
      XXZZ     -82.5217   XYZZ      -6.3427   YYZZ     -53.9611
      XZZZ      11.9815   YZZZ     -12.0323   ZZZZ     -62.6783
 -----------------------------------------------------------------
 Calculating analytic gradient of the SCF energy
 Gradient of CDS energy
            1           2           3           4           5           6
    1  -0.0013569   0.0007653   0.0000708   0.0004601   0.0000140  -0.0003126
    2  -0.0021734   0.0010326   0.0001372   0.0021866  -0.0001908  -0.0009159
    3  -0.0000196   0.0005291   0.0000682   0.0001044  -0.0001169  -0.0004811
            7           8           9
    1   0.0001210  -0.0002148   0.0004532
    2   0.0001149  -0.0001399  -0.0000513
    3  -0.0000588  -0.0001256   0.0001003
 Gradient of SCF Energy
            1           2           3           4           5           6
    1  -0.0018771  -0.0028897   0.0016115   0.0142446  -0.0028082  -0.0063658
    2   0.0004141  -0.0061334   0.0010812   0.0163864   0.0000583  -0.0124038
    3  -0.0064276  -0.0015170   0.0047444   0.0193554  -0.0072307  -0.0086318
            7           8           9
    1  -0.0129426  -0.0240721   0.0350993
    2  -0.0103374   0.0216276  -0.0106930
    3  -0.0065656  -0.0001429   0.0064157
 Max gradient component =       3.510E-02
 RMS gradient           =       1.224E-02
 Computing fast CPCM-SWIG gradient
 Updating gradient with PCM contributions...
 -- total gradient after adding PCM contribution --
---------------------------------------------------
  Atom         X              Y              Z     
---------------------------------------------------
   1       0.000245       0.000878       0.000564
   2      -0.001309      -0.002985      -0.000014
   3      -0.000322       0.000924      -0.001703
   4       0.012960       0.016282       0.012815
   5      -0.001824       0.000250      -0.001731
   6      -0.007991      -0.015977      -0.009818
   7      -0.010627      -0.006466      -0.004346
   8      -0.004795       0.009779       0.000944
   9       0.013662      -0.002686       0.003288
---------------------------------------------------
 Number of fixed atoms: 0
 Gradient time:  CPU 49.09 s  wall 7.51 s
 FSM gradient convergence criteria satisfied
done with opt_step_by_gradient, Reactant, iter1
-Optimizing new product side node
 Using BFGS, step: 2 E_tol 0.0200450
 max_steps 6, node_spacing 0.1943219, sigma 0.7000000
 ----------------------------------------------------------------
             Standard Nuclear Orientation (Angstroms)
    I     Atom           X                Y                Z
 ----------------------------------------------------------------
    1      C      -1.2004459526    -0.4130567980     0.4363396982
    2      O      -1.6137072955    -1.4863169538     0.0838376393
    3      H      -1.7209265967     0.2138698342     1.1731365583
    4      C       0.0705363720     0.2041146723    -0.1083775087
    5      H      -0.1286202117     0.7725372642    -1.0175126756
    6      O       0.6612699177     0.9266149729     0.8983923538
    7      O       0.9438115947    -0.9545157291    -0.5021127013
    8      O       1.9702380657    -0.5266581309    -1.1818776244
    9      H       1.4504030188     1.5323276139     0.4622384228
 ----------------------------------------------------------------
 Nuclear Repulsion Energy =         235.76668491 hartrees
 There are       24 alpha and       23 beta electrons
 Discretize the solute cavity surface with Lebedev spheres
	Using 110 Lebedev grid points for each H atom
	Using 194 Lebedev grid points for other atoms
	Atomic van der Waals radii will be scaled by 1.20
 Remove points where switching function is < 1.0e-08
 Keep 843 surface tesserae and discard 651 interior tesserae
 Molecular Surface Area = 102.705 Angst**2

                       Distance Matrix (Angstroms)
             C (  1)   O (  2)   H (  3)   C (  4)   H (  5)   O (  6)
   O (  2)  1.202884
   H (  3)  1.098548  2.022054
   C (  4)  1.514270  2.393989  2.202660
   H (  5)  2.160586  2.919054  2.765229  1.090548
   O (  6)  2.339701  3.414859  2.501669  1.372792  2.078066
   O (  7)  2.402439  2.677135  3.357442  1.503350  2.097250  2.362181
   O (  8)  3.561568  3.920159  4.440627  2.301151  2.473890  2.855332
   H (  9)  3.288190  4.317890  3.507284  1.998445  2.293525  1.086209
             O (  7)   O (  8)
   O (  8)  1.303339
   H (  9)  2.714958  2.685660
 
 Applying Cartesian multipole field
    Component          Value
    ---------          -----
     (2,0,0)        1.00000E-11
     (0,2,0)        2.00000E-11
     (0,0,2)       -3.00000E-11
 Nucleus-field energy     =     0.0000000029 hartrees
 Requested basis set is 6-311++G(2df,2p)
 There are 66 shells and 234 basis functions
 A cutoff of  1.0D-12 yielded   2089 shell pairs
 There are     26492 function pairs (     33728 Cartesian)
 Smallest overlap matrix eigenvalue = 8.36E-05
 Guess from superposition of atomic densities
 Warning:  Energy on first SCF cycle will be non-variational
 SAD guess density has 47.000000 electrons

 -----------------------------------------------------------------------
  General SCF calculation program by
  Eric Jon Sundstrom, Paul Horn, Yuezhi Mao, Dmitri Zuev, Alec White,
  David Stuck, Shaama M.S., Shane Yost, Joonho Lee, David Small,
  Daniel Levine, Susi Lehtola, Hugh Burton, Evgeny Epifanovsky,
  Bang C. Huynh
 -----------------------------------------------------------------------
 Exchange:     0.1500 Hartree-Fock + 1.0000 wB97M-V + LR-HF
 Correlation:  1.0000 wB97M-V
 Using SG-2 standard quadrature grid
 Nonlocal Correlation:  VV10 with C = 0.0100 and b = 6.00 and scale = 1.00000
 Grid used for NLC:  SG-1 standard quadrature
 
 Citation of the SMD model:
 Marenich, A.V.; Cramer, C.J.; Truhlar, D.G.
 J. Phys. Chem. B 2009, 113, 6378-6396.
 iSolventCode=           1
 Solvent: water                                                           
 
 vradii
            1           2           3           4           5           6
    1   1.8500000   1.5200000   1.2000000   1.8500000   1.2000000   1.5200000
            7           8           9
    1   1.5200000   1.5200000   1.2000000
 -------------------------------------------------------
 OpenMP BLAS3 based DFT computing Module                
 Release: version 1.0, May 2013, Q-Chem Inc. Pittsburgh 
 -------------------------------------------------------
 A unrestricted SCF calculation will be
 performed using DIIS, GDM
 SCF converges when RMS gradient is below 1.0e-07
 ---------------------------------------
  Cycle       Energy         DIIS error
 ---------------------------------------
    1    -379.5943598096      1.56e-02  
    2    -378.6477957410      2.46e-03  Done DIIS. Switching to GDM
 ---------------------------------------
  Cycle       Energy        RMS Gradient
 ---------------------------------------
    1    -378.6477957410      1.59e-01   Descent step
    2    -378.7686969947      1.92e-02   Normal BFGS step
    3    -378.7807857662      2.49e-02   Normal BFGS step
    4    -378.7823433365      4.78e-03   Normal BFGS step
    5    -378.7829907809      6.97e-03   Normal BFGS step
    6    -378.7831354734      3.10e-03   Normal BFGS step
    7    -378.7831885100      1.85e-03   Normal BFGS step
    8    -378.7832049289      7.68e-04   Normal BFGS step
    9    -378.7832076976      5.25e-04   Normal BFGS step
   10    -378.7832086578      4.33e-04   Normal BFGS step
   11    -378.7832094562      4.11e-04   Normal BFGS step
   12    -378.7832100456      2.96e-04   Normal BFGS step
   13    -378.7832104430      1.09e-04   Normal BFGS step
   14    -378.7832105448      2.89e-05   Normal BFGS step
   15    -378.7832105586      7.61e-06   Normal BFGS step
   16    -378.7832105605      5.73e-06   Normal BFGS step
   17    -378.7832105608      2.42e-06   Normal BFGS step
   18    -378.7832105608      4.46e-07   Normal BFGS step
   19    -378.7832105608      1.95e-07   Normal BFGS step
   20    -378.7832105608      1.25e-07   Normal BFGS step
   21    -378.7832105608      9.31e-08  Convergence criterion met
 ---------------------------------------
 SCF time:   CPU 446.30s  wall 57.00s 
<S^2> =          0.753932393
(3)  G-ENP(liq) elect-nuc-pol free energy of system     -378.783210561 a.u.
(4)  G-CDS(liq) cavity-dispersion-solvent structure 
     free energy                                                3.3498 kcal/mol
(6)  G-S(liq) free energy of system                     -378.777872339 a.u.
 SCF   energy in the final basis set =     -378.7778723387
 Total energy in the final basis set =     -378.7778723387
 
 --------------------------------------------------------------
 
                    Orbital Energies (a.u.)
 --------------------------------------------------------------
 
 Alpha MOs
 -- Occupied --
-19.4672 -19.4246 -19.3795 -19.3648 -10.4719 -10.4569  -1.3484  -1.2153
 -1.1866  -1.0064  -0.8462  -0.7270  -0.6695  -0.6564  -0.6428  -0.6020
 -0.5863  -0.5677  -0.5224  -0.4967  -0.4597  -0.4100  -0.4068  -0.3851
 -- Virtual --
  0.0196   0.0355   0.0468   0.0551   0.0768   0.1004   0.1090   0.1158
  0.1317   0.1377   0.1571   0.1672   0.1735   0.1934   0.2136   0.2221
  0.2350   0.2466   0.2641   0.2733   0.2782   0.2895   0.2949   0.3064
  0.3140   0.3291   0.3402   0.3451   0.3536   0.3682   0.3879   0.4082
  0.4236   0.4465   0.4606   0.4898   0.5441   0.5757   0.5991   0.6184
  0.6461   0.6588   0.6690   0.6974   0.7142   0.7544   0.7801   0.8294
  0.8456   0.9092   0.9605   0.9825   0.9956   1.0483   1.0651   1.0872
  1.0908   1.1067   1.1237   1.1341   1.1559   1.1623   1.1745   1.1843
  1.1988   1.2115   1.2346   1.2642   1.2942   1.3328   1.3429   1.3743
  1.3951   1.4477   1.4747   1.4804   1.5149   1.5480   1.5720   1.5781
  1.6112   1.6610   1.6910   1.7476   1.7810   1.7920   1.8527   1.8749
  1.9034   2.0235   2.0761   2.1232   2.1598   2.2057   2.2671   2.3103
  2.3362   2.3755   2.4068   2.4622   2.5583   2.6149   2.6677   2.6770
  2.7662   2.8110   2.8557   2.9721   2.9990   3.0572   3.1009   3.1282
  3.1897   3.2480   3.2598   3.2954   3.3579   3.4082   3.4122   3.4651
  3.5197   3.5579   3.5838   3.6052   3.7097   3.7337   3.7738   3.7963
  3.8498   3.8621   3.9456   3.9613   4.0507   4.0955   4.1275   4.1546
  4.2190   4.3449   4.3854   4.5066   4.5588   4.6215   4.6889   4.6997
  4.8140   4.8691   4.9781   5.0372   5.0737   5.0755   5.1025   5.1450
  5.1562   5.1595   5.1705   5.1935   5.2057   5.2227   5.2638   5.2772
  5.3070   5.3133   5.3494   5.3909   5.4524   5.5073   5.5139   5.5524
  5.5756   5.6102   5.6804   5.7382   5.8547   5.9950   6.0578   6.2806
  6.3879   6.4618   6.5663   6.6276   6.6705   6.7564   6.8260   6.8717
  6.9249   6.9367   6.9799   7.0256   7.0887   7.1096   7.1736   7.2157
  7.2804   7.3144   7.3566   7.4013   7.4675   7.5109   7.6009   7.7299
  7.7671   7.8272   7.9968   8.0757  24.6779  24.9447  50.4028  50.4899
 50.5554  50.6962
 
 Beta MOs
 -- Occupied --
-19.4571 -19.4055 -19.3793 -19.3648 -10.4723 -10.4569  -1.3223  -1.2147
 -1.1850  -0.9733  -0.8384  -0.7219  -0.6607  -0.6454  -0.6309  -0.5845
 -0.5603  -0.5399  -0.5218  -0.4837  -0.4537  -0.4004  -0.3774
 -- Virtual --
 -0.0355   0.0204   0.0356   0.0472   0.0557   0.0773   0.1011   0.1100
  0.1162   0.1330   0.1384   0.1602   0.1674   0.1770   0.1949   0.2156
  0.2231   0.2371   0.2534   0.2720   0.2752   0.2797   0.2913   0.2959
  0.3104   0.3160   0.3304   0.3418   0.3478   0.3546   0.3698   0.3897
  0.4103   0.4243   0.4471   0.4611   0.4908   0.5443   0.5761   0.5996
  0.6191   0.6465   0.6589   0.6694   0.6975   0.7145   0.7569   0.7807
  0.8298   0.8465   0.9098   0.9625   0.9840   0.9981   1.0549   1.0670
  1.0899   1.1056   1.1100   1.1288   1.1426   1.1603   1.1698   1.1794
  1.1958   1.2085   1.2144   1.2405   1.2672   1.2967   1.3335   1.3452
  1.3810   1.3981   1.4567   1.4764   1.4887   1.5188   1.5543   1.5875
  1.5960   1.6223   1.6658   1.7034   1.7576   1.7901   1.7950   1.8603
  1.8817   1.9059   2.0283   2.0811   2.1278   2.1651   2.2173   2.2778
  2.3228   2.3407   2.3834   2.4080   2.4631   2.5587   2.6167   2.6699
  2.6861   2.7669   2.8113   2.8558   2.9723   2.9991   3.0579   3.1006
  3.1283   3.1899   3.2487   3.2605   3.2968   3.3588   3.4083   3.4122
  3.4654   3.5200   3.5574   3.5837   3.6050   3.7106   3.7341   3.7746
  3.7963   3.8504   3.8626   3.9459   3.9614   4.0508   4.0962   4.1277
  4.1551   4.2189   4.3449   4.3887   4.5082   4.5900   4.6283   4.6902
  4.7174   4.8386   4.8797   4.9962   5.1016   5.1201   5.1228   5.1307
  5.1589   5.1681   5.1755   5.1927   5.2150   5.2214   5.2401   5.2807
  5.2843   5.3206   5.3287   5.3575   5.4024   5.4550   5.5134   5.5207
  5.5548   5.5779   5.6256   5.6951   5.7529   5.8559   5.9977   6.0632
  6.2924   6.3890   6.5088   6.5774   6.6311   6.6736   6.7720   6.8982
[...]
 ---------------------------------------
 SCF time:   CPU 440.78s  wall 56.00s 
<S^2> =          0.755305907
(3)  G-ENP(liq) elect-nuc-pol free energy of system     -378.766852792 a.u.
(4)  G-CDS(liq) cavity-dispersion-solvent structure 
     free energy                                                3.6294 kcal/mol
(6)  G-S(liq) free energy of system                     -378.761068915 a.u.
 SCF   energy in the final basis set =     -378.7610689148
 Total energy in the final basis set =     -378.7610689148
 
 --------------------------------------------------------------
 
                    Orbital Energies (a.u.)
 --------------------------------------------------------------
 
 Alpha MOs
 -- Occupied --
-19.4776 -19.4734 -19.3648 -19.3468 -10.4645 -10.4534  -1.3927  -1.2130
 -1.1887  -1.0070  -0.8309  -0.7374  -0.7133  -0.6542  -0.6432  -0.6102
 -0.5987  -0.5610  -0.5325  -0.4771  -0.4558  -0.4373  -0.4220  -0.3710
 -- Virtual --
  0.0050   0.0368   0.0452   0.0515   0.0814   0.0943   0.1025   0.1160
  0.1208   0.1432   0.1531   0.1612   0.1790   0.1812   0.2021   0.2319
  0.2387   0.2503   0.2621   0.2708   0.2890   0.2903   0.3124   0.3165
  0.3279   0.3325   0.3433   0.3495   0.3568   0.3775   0.3940   0.3999
  0.4130   0.4488   0.4791   0.4910   0.5559   0.5899   0.5972   0.6310
  0.6504   0.6625   0.6703   0.6982   0.7400   0.7522   0.8035   0.8285
  0.8553   0.9014   0.9338   0.9925   1.0253   1.0462   1.0655   1.0738
  1.0851   1.1062   1.1229   1.1389   1.1500   1.1621   1.1792   1.1837
  1.1993   1.2192   1.2326   1.2513   1.2650   1.3173   1.3343   1.3893
  1.4124   1.4277   1.4729   1.5023   1.5468   1.5586   1.5759   1.6253
  1.6621   1.6917   1.7497   1.7783   1.7898   1.8505   1.9071   1.9843
  2.0014   2.0453   2.0781   2.1237   2.1688   2.2548   2.2744   2.3038
  2.4711   2.4962   2.5243   2.5323   2.6244   2.6508   2.6597   2.7029
  2.7391   2.8340   2.8879   2.9458   2.9882   3.0266   3.0861   3.1101
  3.1481   3.2234   3.2756   3.3238   3.3593   3.4009   3.4131   3.4387
  3.4511   3.5753   3.5870   3.6289   3.6572   3.6812   3.7344   3.7842
  3.8172   3.8903   3.9035   3.9380   3.9777   4.0723   4.1695   4.1813
  4.2209   4.2928   4.3279   4.4811   4.5197   4.6617   4.6780   4.7019
  4.7266   4.7914   4.8960   5.0220   5.0563   5.0985   5.1116   5.1366
  5.1450   5.1639   5.1840   5.2068   5.2133   5.2235   5.2609   5.2853
  5.3131   5.3451   5.3772   5.4150   5.4719   5.5334   5.5447   5.5694
  5.5699   5.6168   5.6278   5.7316   5.7661   5.8707   6.1858   6.3241
  6.4010   6.4199   6.5330   6.7045   6.7673   6.8074   6.9119   6.9347
  6.9638   7.0025   7.0472   7.0589   7.0944   7.1170   7.1396   7.2748
  7.2976   7.3451   7.3955   7.4736   7.4913   7.5058   7.5502   7.7238
  7.7518   7.9611   8.0172   8.1230  24.7845  24.9661  50.4494  50.4727
 50.6942  50.7077
 
 Beta MOs
 -- Occupied --
-19.4614 -19.4591 -19.3648 -19.3467 -10.4648 -10.4532  -1.3645  -1.2128
 -1.1879  -0.9690  -0.8271  -0.7276  -0.7089  -0.6258  -0.6120  -0.6068
 -0.5648  -0.5491  -0.5292  -0.4719  -0.4431  -0.4247  -0.3746
 -- Virtual --
 -0.0544   0.0092   0.0370   0.0454   0.0519   0.0820   0.0950   0.1046
  0.1165   0.1217   0.1444   0.1538   0.1627   0.1795   0.1858   0.2052
  0.2367   0.2407   0.2511   0.2641   0.2723   0.2918   0.2990   0.3130
  0.3172   0.3296   0.3360   0.3440   0.3513   0.3577   0.3804   0.3963
  0.4011   0.4138   0.4491   0.4796   0.4921   0.5578   0.5915   0.5979
  0.6314   0.6517   0.6630   0.6711   0.6986   0.7401   0.7523   0.8069
  0.8289   0.8560   0.9025   0.9348   0.9972   1.0264   1.0510   1.0760
  1.0790   1.0881   1.1117   1.1368   1.1418   1.1550   1.1688   1.1806
  1.1896   1.2014   1.2215   1.2348   1.2626   1.2756   1.3192   1.3365
  1.3936   1.4159   1.4405   1.4763   1.5115   1.5595   1.5636   1.5767
  1.6325   1.6771   1.6998   1.7588   1.7810   1.7917   1.8517   1.9225
  1.9919   2.0076   2.0524   2.0796   2.1318   2.1723   2.2618   2.2931
  2.3172   2.4727   2.4980   2.5288   2.5365   2.6289   2.6534   2.6637
  2.7052   2.7390   2.8342   2.8881   2.9451   2.9881   3.0267   3.0859
  3.1099   3.1476   3.2229   3.2758   3.3234   3.3592   3.4011   3.4141
  3.4384   3.4509   3.5746   3.5878   3.6288   3.6575   3.6805   3.7344
  3.7837   3.8171   3.8903   3.9050   3.9381   3.9775   4.0715   4.1693
  4.1812   4.2210   4.2934   4.3287   4.4821   4.5598   4.6736   4.7031
  4.7124   4.7285   4.8070   4.9080   5.0697   5.0989   5.1071   5.1433
  5.1500   5.1660   5.1795   5.2061   5.2313   5.2394   5.2512   5.2855
  5.3014   5.3212   5.3636   5.3851   5.4187   5.4836   5.5348   5.5553
  5.5710   5.5771   5.6217   5.6512   5.7356   5.7827   5.8712   6.1878
  6.3244   6.4028   6.4289   6.5835   6.7179   6.7712   6.8546   6.9233
  6.9656   6.9872   7.0055   7.0991   7.1128   7.1289   7.1351   7.1539
  7.2971   7.3142   7.3872   7.4159   7.4831   7.4969   7.5219   7.5541
  7.7271   7.7588   7.9650   8.0298   8.1430  24.7844  24.9661  50.4609
 50.4851  50.6943  50.7078
 --------------------------------------------------------------
 
          Ground-State Mulliken Net Atomic Charges

     Atom                 Charge (a.u.)    Spin (a.u.)
  --------------------------------------------------------
      1 C                     0.147485       0.009835
      2 O                    -0.347720       0.000338
      3 H                     0.219996       0.000934
      4 C                    -0.114141      -0.028607
      5 H                     0.270846       0.007223
      6 O                    -0.468512       0.002187
      7 O                    -0.006512       0.538828
      8 O                    -0.067232       0.478370
      9 H                     0.365789      -0.009108
  --------------------------------------------------------
  Sum of atomic charges =     0.000000
  Sum of spin   charges =     1.000000

 -----------------------------------------------------------------
                    Cartesian Multipole Moments
 -----------------------------------------------------------------
    Charge (ESU x 10^10)
                 0.0000
    Dipole Moment (Debye)
         X       1.5685      Y       0.5746      Z       0.4362
       Tot       1.7264
    Quadrupole Moments (Debye-Ang)
        XX     -39.9635     XY      -3.1829     YY     -39.8507
        XZ      -0.8067     YZ      -3.1731     ZZ     -31.7342
    Octopole Moments (Debye-Ang^2)
       XXX      14.1329    XXY      17.1520    XYY       1.6176
       YYY       3.4888    XXZ       5.6913    XYZ       0.8635
       YYZ       0.1015    XZZ      -2.6070    YZZ       2.4239
       ZZZ       3.9183
    Hexadecapole Moments (Debye-Ang^3)
      XXXX    -458.0796   XXXY     -46.8993   XXYY    -106.5773
      XYYY     -42.0611   YYYY    -181.9392   XXXZ      17.2056
      XXYZ      -3.3937   XYYZ       6.3311   YYYZ     -12.8780
      XXZZ     -80.1187   XYZZ     -11.0297   YYZZ     -40.9882
      XZZZ      14.3184   YZZZ     -14.5652   ZZZZ     -69.5720
 -----------------------------------------------------------------
 Calculating analytic gradient of the SCF energy
 Gradient of CDS energy
            1           2           3           4           5           6
    1  -0.0019925   0.0010475   0.0001242   0.0015309   0.0000145  -0.0011924
    2  -0.0015425   0.0006866   0.0001100   0.0024647  -0.0002241  -0.0014775
    3  -0.0000721   0.0005501   0.0000780   0.0006694  -0.0001616  -0.0010295
            7           8           9
    1   0.0002211  -0.0000265   0.0002731
    2   0.0000999  -0.0002597   0.0001427
    3  -0.0000285  -0.0001472   0.0001414
 Gradient of SCF Energy
            1           2           3           4           5           6
    1   0.0003273  -0.0057458   0.0027178   0.0044986  -0.0023234  -0.0026742
    2   0.0021696  -0.0040522  -0.0009046  -0.0043227   0.0021888   0.0090600
    3  -0.0079764  -0.0028469   0.0101512   0.0096831  -0.0108389   0.0031915
            7           8           9
    1  -0.0032111   0.0052525   0.0011582
    2  -0.0017083  -0.0027267   0.0002961
    3  -0.0020065  -0.0006668   0.0013098
 Max gradient component =       1.084E-02
 RMS gradient           =       4.917E-03
 Computing fast CPCM-SWIG gradient
 Updating gradient with PCM contributions...
 -- total gradient after adding PCM contribution --
---------------------------------------------------
  Atom         X              Y              Z     
---------------------------------------------------
   1      -0.000033       0.000024      -0.000015
   2      -0.000023       0.000022       0.000013
   3      -0.000023       0.000063       0.000003
   4       0.000143      -0.000065      -0.000004
   5       0.000032      -0.000023      -0.000022
   6      -0.000143       0.000051      -0.000009
   7      -0.000107       0.000074       0.000050
   8       0.000123      -0.000087       0.000026
   9       0.000032      -0.000060      -0.000042
---------------------------------------------------
 Number of fixed atoms: 0
 Gradient time:  CPU 63.00 s  wall 9.21 s
 Geometry Optimization Parameters
   NAtoms,    NIC,     NZ,  NCons,   NDum,   NFix, NCnnct, MaxDiis
        9      49       0       0       0       0       0       0

 Cartesian Hessian Update
 Hessian updated using Powell/Murtagh-Sargent update
  Mixing factors:     0.999914 Powell                      0.000086 Murtagh-Sargent


** GEOMETRY OPTIMIZATION IN DELOCALIZED INTERNAL COORDINATES **
   Searching for a Transition State

   Optimization Cycle:  78

                       Coordinates (Angstroms)
     ATOM                X               Y               Z
      1  C        -1.1454990729   -0.4336396230    0.4680526995
      2  O        -2.0567914655   -1.0078189221   -0.0727297783
      3  H        -0.9319162890   -0.5248207358    1.5434370862
      4  C        -0.2140251340    0.4811059473   -0.3001375466
      5  H        -0.4970758750    0.6648592846   -1.3387763357
      6  O         0.4707184350    1.3330243073    0.3565603192
      7  O         1.0711199983   -0.7689769156   -0.6452664390
      8  O         2.0970559045   -0.2345219479   -0.1064836761
      9  H         1.6083375597    0.7198570415    0.2935816276
   Point Group: c1    Number of degrees of freedom:    21


   Energy is   -378.761068915

 Hessian updated using Powell/Murtagh-Sargent update
  Mixing factors:     0.999775 Powell                      0.000225 Murtagh-Sargent

 21 Hessian modes will be used to form the next step
  Hessian Eigenvalues:
    -0.122534    0.001071    0.014769    0.031353    0.046712    0.075751
     0.099126    0.110292    0.158925    0.188089    0.203827    0.220561
     0.233760    0.298988    0.321384    0.331528    0.458461    0.583738
     0.804027    0.906903    1.007564

 Transition state search - taking P-RFO step
 Searching for Lamda that Maximizes Along the Lowest mode
 Value Taken    Lamda =   0.00000000
 Searching for Lamda that Minimizes Along All other modes
 Value Taken    Lamda =  -0.00000029
 Step Taken.  Stepsize is  0.006742

                             Maximum     Tolerance    Cnvgd?
         Gradient           0.000254      0.000300     YES
         Displacement       0.004443      0.001200      NO
         Energy change     -0.000000      0.000001     YES


                       Distance Matrix (Angstroms)
             C (  1)   O (  2)   H (  3)   C (  4)   H (  5)   O (  6)
   O (  2)  1.205231
   H (  3)  1.100174  2.027468
   C (  4)  1.514767  2.380000  2.219465
   H (  5)  2.211738  2.614085  3.148266  1.092087
   O (  6)  2.397017  3.471620  2.612977  1.275104  2.063307
   O (  7)  2.503064  3.188836  2.976943  1.825765  2.235191  2.404693
   O (  8)  3.299076  4.225349  3.461385  2.427081  3.009477  2.305772
   H (  9)  2.990754  4.068442  3.092612  1.931453  2.664654  1.293877
             O (  7)   O (  8)
   O (  8)  1.276117
   H (  9)  1.840289  1.144437
 
 Final energy is   -378.761068914775     


 ******************************
 **  OPTIMIZATION CONVERGED  **
 ******************************

                       Coordinates (Angstroms)
     ATOM                X               Y               Z
      1  C        -1.1454990729   -0.4336396230    0.4680526995
      2  O        -2.0567914655   -1.0078189221   -0.0727297783
      3  H        -0.9319162890   -0.5248207358    1.5434370862
      4  C        -0.2140251340    0.4811059473   -0.3001375466
      5  H        -0.4970758750    0.6648592846   -1.3387763357
      6  O         0.4707184350    1.3330243073    0.3565603192
      7  O         1.0711199983   -0.7689769156   -0.6452664390
      8  O         2.0970559045   -0.2345219479   -0.1064836761
      9  H         1.6083375597    0.7198570415    0.2935816276

Z-matrix Print:
$molecule
0 2
O 
O  1 1.276117
H  2 1.144437 1 98.831809
O  3 1.293877 2 141.969154 1 0.334459 0
C  4 1.275104 3 97.496679 2 -1.385137 0
H  5 1.092087 4 121.102927 3 -103.205467 0
C  5 1.514767 4 118.197149 3 104.414776 0
H  7 1.100174 5 115.237854 4 -19.002500 0
O  7 1.205231 5 121.675107 4 160.565149 0
$end

 
 --------------------------------------------------------------
 
                    Orbital Energies (a.u.)
 --------------------------------------------------------------
 
 Alpha MOs
 -- Occupied --
-19.4776 -19.4734 -19.3648 -19.3468 -10.4645 -10.4534  -1.3927  -1.2130
 -1.1887  -1.0070  -0.8309  -0.7374  -0.7133  -0.6542  -0.6432  -0.6102
 -0.5987  -0.5610  -0.5325  -0.4771  -0.4558  -0.4373  -0.4220  -0.3710
 -- Virtual --
  0.0050   0.0368   0.0452   0.0515   0.0814   0.0943   0.1025   0.1160
  0.1208   0.1432   0.1531   0.1612   0.1790   0.1812   0.2021   0.2319
  0.2387   0.2503   0.2621   0.2708   0.2890   0.2903   0.3124   0.3165
  0.3279   0.3325   0.3433   0.3495   0.3568   0.3775   0.3940   0.3999
  0.4130   0.4488   0.4791   0.4910   0.5559   0.5899   0.5972   0.6310
  0.6504   0.6625   0.6703   0.6982   0.7400   0.7522   0.8035   0.8285
  0.8553   0.9014   0.9338   0.9925   1.0253   1.0462   1.0655   1.0738
  1.0851   1.1062   1.1229   1.1389   1.1500   1.1621   1.1792   1.1837
  1.1993   1.2192   1.2326   1.2513   1.2650   1.3173   1.3343   1.3893
  1.4124   1.4277   1.4729   1.5023   1.5468   1.5586   1.5759   1.6253
  1.6621   1.6917   1.7497   1.7783   1.7898   1.8505   1.9071   1.9843
  2.0014   2.0453   2.0781   2.1237   2.1688   2.2548   2.2744   2.3038
  2.4711   2.4962   2.5243   2.5323   2.6244   2.6508   2.6597   2.7029
  2.7391   2.8340   2.8879   2.9458   2.9882   3.0266   3.0861   3.1101
  3.1481   3.2234   3.2756   3.3238   3.3593   3.4009   3.4131   3.4387
  3.4511   3.5753   3.5870   3.6289   3.6572   3.6812   3.7344   3.7842
  3.8172   3.8903   3.9035   3.9380   3.9777   4.0723   4.1695   4.1813
  4.2209   4.2928   4.3279   4.4811   4.5197   4.6617   4.6780   4.7019
  4.7266   4.7914   4.8960   5.0220   5.0563   5.0985   5.1116   5.1366
  5.1450   5.1639   5.1840   5.2068   5.2133   5.2235   5.2609   5.2853
  5.3131   5.3451   5.3772   5.4150   5.4719   5.5334   5.5447   5.5694
  5.5699   5.6168   5.6278   5.7316   5.7661   5.8707   6.1858   6.3241
  6.4010   6.4199   6.5330   6.7045   6.7673   6.8074   6.9119   6.9347
  6.9638   7.0025   7.0472   7.0589   7.0944   7.1170   7.1396   7.2748
  7.2976   7.3451   7.3955   7.4736   7.4913   7.5058   7.5502   7.7238
  7.7518   7.9611   8.0172   8.1230  24.7845  24.9661  50.4494  50.4727
 50.6942  50.7077
 
 Beta MOs
 -- Occupied --
-19.4614 -19.4591 -19.3648 -19.3467 -10.4648 -10.4532  -1.3645  -1.2128
 -1.1879  -0.9690  -0.8271  -0.7276  -0.7089  -0.6258  -0.6120  -0.6068
 -0.5648  -0.5491  -0.5292  -0.4719  -0.4431  -0.4247  -0.3746
 -- Virtual --
 -0.0544   0.0092   0.0370   0.0454   0.0519   0.0820   0.0950   0.1046
  0.1165   0.1217   0.1444   0.1538   0.1627   0.1795   0.1858   0.2052
  0.2367   0.2407   0.2511   0.2641   0.2723   0.2918   0.2990   0.3130
  0.3172   0.3296   0.3360   0.3440   0.3513   0.3577   0.3804   0.3963
  0.4011   0.4138   0.4491   0.4796   0.4921   0.5578   0.5915   0.5979
  0.6314   0.6517   0.6630   0.6711   0.6986   0.7401   0.7523   0.8069
  0.8289   0.8560   0.9025   0.9348   0.9972   1.0264   1.0510   1.0760
  1.0790   1.0881   1.1117   1.1368   1.1418   1.1550   1.1688   1.1806
  1.1896   1.2014   1.2215   1.2348   1.2626   1.2756   1.3192   1.3365
  1.3936   1.4159   1.4405   1.4763   1.5115   1.5595   1.5636   1.5767
  1.6325   1.6771   1.6998   1.7588   1.7810   1.7917   1.8517   1.9225
  1.9919   2.0076   2.0524   2.0796   2.1318   2.1723   2.2618   2.2931
  2.3172   2.4727   2.4980   2.5288   2.5365   2.6289   2.6534   2.6637
  2.7052   2.7390   2.8342   2.8881   2.9451   2.9881   3.0267   3.0859
  3.1099   3.1476   3.2229   3.2758   3.3234   3.3592   3.4011   3.4141
  3.4384   3.4509   3.5746   3.5878   3.6288   3.6575   3.6805   3.7344
  3.7837   3.8171   3.8903   3.9050   3.9381   3.9775   4.0715   4.1693
  4.1812   4.2210   4.2934   4.3287   4.4821   4.5598   4.6736   4.7031
  4.7124   4.7285   4.8070   4.9080   5.0697   5.0989   5.1071   5.1433
  5.1500   5.1660   5.1795   5.2061   5.2313   5.2394   5.2512   5.2855
  5.3014   5.3212   5.3636   5.3851   5.4187   5.4836   5.5348   5.5553
  5.5710   5.5771   5.6217   5.6512   5.7356   5.7827   5.8712   6.1878
  6.3244   6.4028   6.4289   6.5835   6.7179   6.7712   6.8546   6.9233
  6.9656   6.9872   7.0055   7.0991   7.1128   7.1289   7.1351   7.1539
  7.2971   7.3142   7.3872   7.4159   7.4831   7.4969   7.5219   7.5541
  7.7271   7.7588   7.9650   8.0298   8.1430  24.7844  24.9661  50.4609
 50.4851  50.6943  50.7078
 --------------------------------------------------------------
 
          Ground-State Mulliken Net Atomic Charges

     Atom                 Charge (a.u.)    Spin (a.u.)
  --------------------------------------------------------
      1 C                     0.147485       0.009835
      2 O                    -0.347720       0.000338
      3 H                     0.219996       0.000934
      4 C                    -0.114141      -0.028607
      5 H                     0.270846       0.007223
      6 O                    -0.468512       0.002187
      7 O                    -0.006512       0.538828
      8 O                    -0.067232       0.478370
      9 H                     0.365789      -0.009108
  --------------------------------------------------------
  Sum of atomic charges =     0.000000
  Sum of spin   charges =     1.000000

 -----------------------------------------------------------------
                    Cartesian Multipole Moments
 -----------------------------------------------------------------
    Charge (ESU x 10^10)
                 0.0000
    Dipole Moment (Debye)
         X       1.5685      Y       0.5746      Z       0.4362
       Tot       1.7264
    Quadrupole Moments (Debye-Ang)
        XX     -39.9635     XY      -3.1829     YY     -39.8507
        XZ      -0.8067     YZ      -3.1731     ZZ     -31.7342
    Octopole Moments (Debye-Ang^2)
       XXX      14.1329    XXY      17.1520    XYY       1.6176
       YYY       3.4888    XXZ       5.6913    XYZ       0.8635
       YYZ       0.1015    XZZ      -2.6070    YZZ       2.4239
       ZZZ       3.9183
    Hexadecapole Moments (Debye-Ang^3)
      XXXX    -458.0796   XXXY     -46.8993   XXYY    -106.5773
      XYYY     -42.0611   YYYY    -181.9392   XXXZ      17.2056
      XXYZ      -3.3937   XYYZ       6.3311   YYYZ     -12.8780
      XXZZ     -80.1187   XYZZ     -11.0297   YYZZ     -40.9882
      XZZZ      14.3184   YZZZ     -14.5652   ZZZZ     -69.5720
 -----------------------------------------------------------------
 Total job time:  5119.87s(wall), 39685.89s(cpu) 
 Sun Dec 11 23:59:41 2022

        *************************************************************
        *                                                           *
        *  Thank you very much for using Q-Chem.  Have a nice day.  *
        *                                                           *
        *************************************************************


