
Running Job 1 of 1 Q_in.in
qchem Q_in.in_99830.0 /scratch/ari.fischer/qChem2192917.hpc-mn1/qchem99830/ 0
/usr/local/qchem-5.4.1/exe/qcprog.exe_s Q_in.in_99830.0 /scratch/ari.fischer/qChem2192917.hpc-mn1/qchem99830/
                  Welcome to Q-Chem
     A Quantum Leap Into The Future Of Chemistry


 Q-Chem 5.4, Q-Chem, Inc., Pleasanton, CA (2021)

 License issued to: Nanyang Technological University (site)

 E. Epifanovsky,  A. T. B. Gilbert,  Xintian Feng,  Joonho Lee,  Yuezhi Mao,  
 N. Mardirossian,  P. Pokhilko,  A. White,  M. Wormit,  M. P. Coons,  
 A. L. Dempwolff,  Zhengting Gan,  D. Hait,  P. R. Horn,  L. D. Jacobson,  
 I. Kaliman,  J. Kussmann,  A. W. Lange,  Ka Un Lao,  D. S. Levine,  Jie Liu,  
 S. C. McKenzie,  A. F. Morrison,  K. Nanda,  F. Plasser,  D. R. Rehn,  
 M. L. Vidal,  Zhi-Qiang You,  Ying Zhu,  B. Alam,  B. Albrecht,  
 A. Aldossary,  E. Alguire,  J. H. Andersen,  D. Barton,  K. Begam,  A. Behn,  
 Y. A. Bernard,  E. J. Berquist,  H. Burton,  A. Carreras,  K. Carter-Fenk,  
 R. Chakraborty,  A. D. Chien,  K. D. Closser,  V. Cofer-Shabica,  
 S. Dasgupta,  Jia Deng,  M. de Wergifosse,  M. Diedenhofen,  Hainam Do,  
 S. Ehlert,  Po-Tung Fang,  S. Fatehi,  Qingguo Feng,  T. Friedhoff,  
 J. Gayvert,  Qinghui Ge,  G. Gidofalvi,  M. Goldey,  J. Gomes,  
 C. Gonzalez-Espinoza,  S. Gulania,  A. Gunina,  M. W. D. Hanson-Heine,  
 P. H. P. Harbach,  A. W. Hauser,  M. F. Herbst,  M. Hernandez Vera,  
 M. Hodecker,  Z. C. Holden,  S. Houck,  Xunkun Huang,  Kerwin Hui,  
 B. C. Huynh,  M. Ivanov,  Hyunjun Ji,  Hanjie Jiang,  B. Kaduk,  S. Kaehler,  
 K. Khistyaev,  Jaehoon Kim,  P. Klunzinger,  Z. Koczor-Benda,  
 Joong Hoon Koh,  D. Kosenkov,  L. Koulias,  T. Kowalczyk,  C. M. Krauter,  
 K. Kue,  A. Kunitsa,  T. Kus,  A. Landau,  K. V. Lawler,  D. Lefrancois,  
 S. Lehtola,  Rain Li,  Yi-Pei Li,  Jiashu Liang,  M. Liebenthal,  
 Hung-Hsuan Lin,  You-Sheng Lin,  Fenglai Liu,  Kuan-Yu Liu,  
 M. Loipersberger,  A. Luenser,  A. Manjanath,  P. Manohar,  E. Mansoor,  
 S. F. Manzer,  Shan-Ping Mao,  A. V. Marenich,  T. Markovich,  S. Mason,  
 S. A. Maurer,  P. F. McLaughlin,  M. F. S. J. Menger,  J.-M. Mewes,  
 S. A. Mewes,  P. Morgante,  J. W. Mullinax,  K. J. Oosterbaan,  G. Paran,  
 Alexander C. Paul,  Suranjan K. Paul,  F. Pavosevic,  Zheng Pei,  S. Prager,  
 E. I. Proynov,  E. Ramos,  B. Rana,  A. E. Rask,  A. Rettig,  R. M. Richard,  
 F. Rob,  E. Rossomme,  T. Scheele,  M. Scheurer,  M. Schneider,  
 N. Sergueev,  S. M. Sharada,  W. Skomorowski,  D. W. Small,  C. J. Stein,  
 Yu-Chuan Su,  E. J. Sundstrom,  Zhen Tao,  J. Thirman,  T. Tsuchimochi,  
 N. M. Tubman,  S. P. Veccham,  O. Vydrov,  J. Wenzel,  J. Witte,  A. Yamada,  
 Kun Yao,  S. Yeganeh,  S. R. Yost,  A. Zech,  Igor Ying Zhang,  Xing Zhang,  
 Yu Zhang,  D. Zuev,  A. Aspuru-Guzik,  A. T. Bell,  N. A. Besley,  
 K. B. Bravaya,  B. R. Brooks,  D. Casanova,  Jeng-Da Chai,  S. Coriani,  
 C. J. Cramer,  A. E. DePrince, III,  R. A. DiStasio Jr.,  A. Dreuw,  
 B. D. Dunietz,  T. R. Furlani,  W. A. Goddard III,  S. Grimme,  
 S. Hammes-Schiffer,  T. Head-Gordon,  W. J. Hehre,  Chao-Ping Hsu,  
 T.-C. Jagau,  Yousung Jung,  A. Klamt,  Jing Kong,  D. S. Lambrecht,  
 WanZhen Liang,  N. J. Mayhall,  C. W. McCurdy,  J. B. Neaton,  
 C. Ochsenfeld,  J. A. Parkhill,  R. Peverati,  V. A. Rassolov,  Yihan Shao,  
 L. V. Slipchenko,  T. Stauch,  R. P. Steele,  J. E. Subotnik,  
 A. J. W. Thom,  A. Tkatchenko,  D. G. Truhlar,  T. Van Voorhis,  
 T. A. Wesolowski,  K. B. Whaley,  H. L. Woodcock III,  P. M. Zimmerman,  
 S. Faraji,  P. M. W. Gill,  M. Head-Gordon,  J. M. Herbert,  A. I. Krylov

 Additional authors for Version 5.4.1: 
 S. Kotaru,  Shaozhi Li,  Xiangyuan Li,  F. Matz,  A. Molle,  Haisheng Ren,  
 Yingli Su,  Hung-Yi Tsai,  C. Utku,  Fang Wang

 Contributors to earlier versions of Q-Chem not listed above: 
 R. D. Adamson,  B. Austin,  R. Baer,  J. Baker,  G. J. O. Beran,  
 K. Brandhorst,  S. T. Brown,  E. F. C. Byrd,  A. K. Chakraborty,  
 G. K. L. Chan,  Chun-Min Chang,  Yunqing Chen,  C.-L. Cheng,  
 Siu Hung Chien,  D. M. Chipman,  D. L. Crittenden,  H. Dachsel,  
 R. J. Doerksen,  A. D. Dutoi,  R. G. Edgar,  J. Fosso-Tande,  
 L. Fusti-Molnar,  D. Ghosh,  A. Ghysels,  A. Golubeva-Zadorozhnaya,  
 J. Gonthier,  M. S. Gordon,  S. R. Gwaltney,  G. Hawkins,  J. E. Herr,  
 A. Heyden,  S. Hirata,  E. G. Hohenstein,  G. Kedziora,  F. J. Keil,  
 C. Kelley,  Jihan Kim,  R. A. King,  R. Z. Khaliullin,  P. P. Korambath,  
 W. Kurlancheek,  A. Laurent,  A. M. Lee,  M. S. Lee,  S. V. Levchenko,  
 Ching Yeh Lin,  D. Liotard,  E. Livshits,  R. C. Lochan,  I. Lotan,  
 L. A. Martinez-Martinez,  P. E. Maslen,  N. Nair,  D. P. O'Neill,  
 D. Neuhauser,  E. Neuscamman,  C. M. Oana,  R. Olivares-Amaya,  R. Olson,  
 T. M. Perrine,  B. Peters,  P. A. Pieniazek,  A. Prociuk,  Y. M. Rhee,  
 J. Ritchie,  M. A. Rohrdanz,  E. Rosta,  N. J. Russ,  H. F. Schaefer III,  
 M. W. Schmidt,  N. E. Schultz,  S. Sharma,  N. Shenvi,  C. D. Sherrill,  
 A. C. Simmonett,  A. Sodt,  T. Stein,  D. Stuck,  K. S. Thanthiriwatte,  
 V. Vanovschi,  L. Vogt,  Tao Wang,  A. Warshel,  M. A. Watson,  
 C. F. Williams,  Q. Wu,  X. Xu,  Jun Yang,  W. Zhang,  Yan Zhao

 Please cite Q-Chem as follows:
 Y. Shao et al., Mol. Phys. 113, 184-215 (2015)
 DOI: 10.1080/00268976.2014.952696

 Q-Chem 5.4.1 for Intel X86 EM64T Linux

 Parts of Q-Chem use Armadillo 9.800.1 (Horizon Scraper).
 http://arma.sourceforge.net/

 Q-Chem begins on Thu Jun 27 01:40:36 2024  

 Host: 
0

     Scratch files written to /scratch/ari.fischer/qChem2192917.hpc-mn1/qchem99830//
 Aug1521 |scratch|qcdevops|jenkins|workspace|build_RNUM 8249   
 Processing $rem in /usr/local/qchem-5.4.1/config/preferences:
 Processing $rem in /home/ari.fischer/.qchemrc:
 Symmetry turned off for PCM/SM12/SMD calculation


!!********************************************.
!!******************Warning*******************.
!!Desired Analytical derivatives not available.
!!Finite difference job might take a long time.
!!********************************************.
!!********************************************.


 2-order derivative to be evaluated numerically with 1-order analytical derivatives

 Checking the input file for inconsistencies... 	...done.

--------------------------------------------------------------
User input:
--------------------------------------------------------------
$molecule
0 1
H         0.0174884129    1.2400110609    1.0108770123
O        -0.5473847016    0.8562167925    0.3312910626
H        -1.4226274008    1.2156887062    0.5133076320
H         1.1083635998    1.3866437026   -2.4131704394
O         0.2750010745    1.8180293627   -2.2010101898
H         0.0297357151    1.4715295750   -1.3244832777
$end

$rem
BASIS = 6-311++G(2df,2p)
GUI = 2
JOB_TYPE = Frequency
METHOD = wB97M-V
SOLVENT_METHOD = SMD
SCF_ALGORITHM = DIIS_GDM
MAX_SCF_CYCLES = 400
SCF_CONVERGENCE = 7
THRESH = 12
$end
--------------------------------------------------------------
 ----------------------------------------------------------------
             Standard Nuclear Orientation (Angstroms)
    I     Atom           X                Y                Z
 ----------------------------------------------------------------
    1      H       0.0174884129     1.2400110609     1.0108770123
    2      O      -0.5473847016     0.8562167925     0.3312910626
    3      H      -1.4226274008     1.2156887062     0.5133076320
    4      H       1.1083635998     1.3866437026    -2.4131704394
    5      O       0.2750010745     1.8180293627    -2.2010101898
    6      H       0.0297357151     1.4715295750    -1.3244832777
 ----------------------------------------------------------------
 Nuclear Repulsion Energy =          37.09800103 hartrees
 There are       10 alpha and       10 beta electrons
 Requested basis set is 6-311++G(2df,2p)
 There are 40 shells and 108 basis functions

 Total QAlloc Memory Limit 288000 MB
 Mega-Array Size       188 MB
 MEM_STATIC part       192 MB
 
 Citation of the SMD model:
 Marenich, A.V.; Cramer, C.J.; Truhlar, D.G.
 J. Phys. Chem. B 2009, 113, 6378-6396.
 iSolventCode=           1
 Solvent: water                                                           
 
 vradii
            1           2           3           4           5           6
    1   1.2000000   1.5200000   1.2000000   1.2000000   1.5200000   1.2000000
 Changing PCM_VDW_RADII to SMD_RADIUS
 Discretize the solute cavity surface with Lebedev spheres
	Using 110 Lebedev grid points for each H atom
	Using 194 Lebedev grid points for other atoms
	Atomic van der Waals radii will be scaled by 1.20
 Remove points where switching function is < 1.0e-08
 Keep 541 surface tesserae and discard 287 interior tesserae
 Molecular Surface Area = 65.640 Angst**2

                       Distance Matrix (Angstroms)
             H (  1)   O (  2)   H (  3)   H (  4)   O (  5)
   O (  2)  0.963440
   H (  3)  1.523844  0.963535
   H (  4)  3.596611  3.248834  3.872908
   O (  5)  3.273628  2.830892  3.257649  0.962080
   H (  6)  2.346840  1.858297  2.356329  1.534889  0.973918
 
 A cutoff of  1.0D-12 yielded    784 shell pairs
 There are      5775 function pairs (      6939 Cartesian)
 Smallest overlap matrix eigenvalue = 9.04E-04
 Guess from superposition of atomic densities
 Warning:  Energy on first SCF cycle will be non-variational
 SAD guess density has 20.000000 electrons

 -----------------------------------------------------------------------
  General SCF calculation program by
  Eric Jon Sundstrom, Paul Horn, Yuezhi Mao, Dmitri Zuev, Alec White,
  David Stuck, Shaama M.S., Shane Yost, Joonho Lee, David Small,
  Daniel Levine, Susi Lehtola, Hugh Burton, Evgeny Epifanovsky,
  Bang C. Huynh
 -----------------------------------------------------------------------
 Exchange:     0.1500 Hartree-Fock + 1.0000 wB97M-V + LR-HF
 Correlation:  1.0000 wB97M-V
 Using SG-2 standard quadrature grid
 Nonlocal Correlation:  VV10 with C = 0.0100 and b = 6.00 and scale = 1.00000
 Grid used for NLC:  SG-1 standard quadrature
 using 16 threads for integral computing
 -------------------------------------------------------
 OpenMP Integral computing Module                
 Release: version 1.0, May 2013, Q-Chem Inc. Pittsburgh 
 -------------------------------------------------------
 
 Citation of the SMD model:
 Marenich, A.V.; Cramer, C.J.; Truhlar, D.G.
 J. Phys. Chem. B 2009, 113, 6378-6396.
 iSolventCode=           1
 Solvent: water                                                           
 
 vradii
            1           2           3           4           5           6
    1   1.2000000   1.5200000   1.2000000   1.2000000   1.5200000   1.2000000
 -------------------------------------------------------
 OpenMP BLAS3 based DFT computing Module                
 Release: version 1.0, May 2013, Q-Chem Inc. Pittsburgh 
 -------------------------------------------------------
 A restricted SCF calculation will be
 performed using DIIS, GDM
 SCF converges when RMS gradient is below 1.0e-07
 ---------------------------------------
  Cycle       Energy         DIIS error
 ---------------------------------------
    1    -152.6883652511      4.21e-02  
    2    -152.8040868508      8.66e-03  Done DIIS. Switching to GDM
 ---------------------------------------
  Cycle       Energy        RMS Gradient
 ---------------------------------------
    1    -152.8040868508      1.02e-01   Descent step
    2    -152.8499969662      5.29e-02   Normal BFGS step
    3    -152.8878960356      4.43e-03   Normal BFGS step
    4    -152.8882967885      1.53e-03   Normal BFGS step
    5    -152.8883247194      1.43e-03   Normal BFGS step
    6    -152.8883423773      1.71e-04   Normal BFGS step
    7    -152.8883427271      6.38e-05   Normal BFGS step
    8    -152.8883427539      1.33e-05   Normal BFGS step
    9    -152.8883427553      1.63e-06   Normal BFGS step
   10    -152.8883427553      5.07e-07   Normal BFGS step
   11    -152.8883427553      8.72e-08  Convergence criterion met
 ---------------------------------------
 SCF time:   CPU 84.02s  wall 6.00s 
(3)  G-ENP(liq) elect-nuc-pol free energy of system     -152.888342755 a.u.
(4)  G-CDS(liq) cavity-dispersion-solvent structure 
     free energy                                                2.4262 kcal/mol
(6)  G-S(liq) free energy of system                     -152.884476431 a.u.
 SCF   energy in the final basis set =     -152.8844764314
 Total energy in the final basis set =     -152.8844764314
 
 --------------------------------------------------------------
 
                    Orbital Energies (a.u.)
 --------------------------------------------------------------
 
 Alpha MOs
 -- Occupied --
-19.3411 -19.3213  -1.1487  -1.1260  -0.6409  -0.6294  -0.5236  -0.4934
 -0.4365  -0.4228
 -- Virtual --
  0.0260   0.0520   0.0647   0.0931   0.1795   0.1970   0.2175   0.2265
  0.2326   0.2424   0.2611   0.2741   0.2777   0.3116   0.3596   0.4076
  0.5834   0.6080   0.6421   0.6599   0.6792   0.7291   0.8112   0.8182
  0.8643   0.9306   0.9563   0.9821   1.0008   1.0458   1.1029   1.1282
  1.1918   1.2177   1.3219   1.4094   1.4707   1.4919   1.5305   1.7664
  1.8510   1.8843   1.9843   2.0015   2.0629   2.1719   2.2599   2.3129
  2.3570   2.4529   2.5767   2.6805   2.9134   3.0020   3.6421   3.7136
  3.7300   3.7594   3.8343   3.8603   3.9760   4.0053   4.1795   4.2249
  4.3246   4.4689   5.1124   5.1166   5.1440   5.2164   5.2409   5.2592
  5.3084   5.3996   5.5021   5.5414   5.5863   5.6651   5.7136   5.7225
  5.8203   5.8618   6.9893   7.0216   7.0378   7.0892   7.0943   7.1431
  7.1855   7.2787   7.4140   7.4508   7.4526   7.5102   7.6540   7.6951
 50.4839  50.5107
 --------------------------------------------------------------
 
          Ground-State Mulliken Net Atomic Charges

     Atom                 Charge (a.u.)
  ----------------------------------------
      1 H                     0.340223
      2 O                    -0.662573
      3 H                     0.340527
      4 H                     0.329814
      5 O                    -0.729448
      6 H                     0.381457
  ----------------------------------------
  Sum of atomic charges =     0.000000

 -----------------------------------------------------------------
                    Cartesian Multipole Moments
 -----------------------------------------------------------------
    Charge (ESU x 10^10)
                -0.0000
    Dipole Moment (Debye)
         X       0.4400      Y      -0.2252      Z       3.6569
       Tot       3.6901
    Quadrupole Moments (Debye-Ang)
        XX      -8.6564     XY      -0.9317     YY     -17.8723
        XZ      -3.9540     YZ       9.3979     ZZ     -17.7869
    Octopole Moments (Debye-Ang^2)
       XXX       2.0113    XXY     -11.8369    XYY      -1.3088
       YYY     -70.8213    XXZ       9.1809    XYZ      -4.3666
       YYZ      34.2587    XZZ      11.2165    YZZ     -32.2607
       ZZZ      54.7062
    Hexadecapole Moments (Debye-Ang^3)
      XXXX     -20.2988   XXXY      -5.2132   XXYY     -27.9111
      XYYY      -8.6620   YYYY    -224.3326   XXXZ       8.6518
      XXYZ      21.0821   XYYZ       3.4108   YYYZ     123.7132
      XXZZ     -28.2456   XYZZ       9.5235   YYZZ    -105.1960
      XZZZ      -6.9793   YZZZ     116.8855   ZZZZ    -253.8312
 -----------------------------------------------------------------
 Calculating analytic gradient of the SCF energy
 Gradient of CDS energy
            1           2           3           4           5           6
    1   0.0003851  -0.0000085  -0.0004616   0.0003895  -0.0001505  -0.0001540
    2   0.0000988  -0.0002739   0.0000845  -0.0001228   0.0001928   0.0000206
    3   0.0002525   0.0000315  -0.0000401  -0.0002346  -0.0001593   0.0001500
 Gradient of SCF Energy
            1           2           3           4           5           6
    1   0.0090937   0.0028029  -0.0125084   0.0079294  -0.0104359   0.0031182
    2   0.0087226  -0.0175373   0.0078589  -0.0053357   0.0081664  -0.0018748
    3   0.0114732  -0.0168311   0.0042210   0.0016807  -0.0052853   0.0047414
 Max gradient component =       1.754E-02
 RMS gradient           =       9.002E-03
 Computing fast CPCM-SWIG gradient
 Updating gradient with PCM contributions...
 -- total gradient after adding PCM contribution --
---------------------------------------------------
  Atom         X              Y              Z     
---------------------------------------------------
   1       0.000091       0.000050       0.000026
   2      -0.000043       0.000039      -0.000157
   3      -0.000077      -0.000013       0.000091
   4       0.000136       0.000060      -0.000008
   5      -0.000216       0.000007      -0.000097
   6       0.000109      -0.000143       0.000144
---------------------------------------------------
 Number of fixed atoms: 0
 Gradient time:  CPU 16.15 s  wall 1.08 s
 ######################################################
 ######################################################
 # Starting finite difference calculation for IDERIV  #
 Finite diff step size:  1.88973e-03 a.u.
 ----------------------------------------------------------------
             Standard Nuclear Orientation (Angstroms)
    I     Atom           X                Y                Z
 ----------------------------------------------------------------
    1      H       0.0184884129     1.2400110609     1.0108770123
    2      O      -0.5473847016     0.8562167925     0.3312910626
    3      H      -1.4226274008     1.2156887062     0.5133076320
    4      H       1.1083635998     1.3866437026    -2.4131704394
    5      O       0.2750010745     1.8180293627    -2.2010101898
    6      H       0.0297357151     1.4715295750    -1.3244832777
 ----------------------------------------------------------------
 Nuclear Repulsion Energy =          37.09515572 hartrees
 There are       10 alpha and       10 beta electrons
 Discretize the solute cavity surface with Lebedev spheres
	Using 110 Lebedev grid points for each H atom
	Using 194 Lebedev grid points for other atoms
	Atomic van der Waals radii will be scaled by 1.20
 Remove points where switching function is < 1.0e-08
 Keep 541 surface tesserae and discard 287 interior tesserae
 Molecular Surface Area = 65.645 Angst**2

                       Distance Matrix (Angstroms)
             H (  1)   O (  2)   H (  3)   H (  4)   O (  5)
   O (  2)  0.964027
   H (  3)  1.524789  0.963535
   H (  4)  3.596308  3.248834  3.872908
   O (  5)  3.273549  2.830892  3.257649  0.962080
   H (  6)  2.346835  1.858297  2.356329  1.534889  0.973918
 
 Requested basis set is 6-311++G(2df,2p)
 There are 40 shells and 108 basis functions
 A cutoff of  1.0D-12 yielded    784 shell pairs
 There are      5775 function pairs (      6939 Cartesian)
 Smallest overlap matrix eigenvalue = 9.04E-04
 Guess MOs from SCF MO coefficient file

 -----------------------------------------------------------------------
  General SCF calculation program by
  Eric Jon Sundstrom, Paul Horn, Yuezhi Mao, Dmitri Zuev, Alec White,
  David Stuck, Shaama M.S., Shane Yost, Joonho Lee, David Small,
  Daniel Levine, Susi Lehtola, Hugh Burton, Evgeny Epifanovsky,
  Bang C. Huynh
 -----------------------------------------------------------------------
 Exchange:     0.1500 Hartree-Fock + 1.0000 wB97M-V + LR-HF
 Correlation:  1.0000 wB97M-V
 Using SG-2 standard quadrature grid
 Nonlocal Correlation:  VV10 with C = 0.0100 and b = 6.00 and scale = 1.00000
 Grid used for NLC:  SG-1 standard quadrature
 
 Citation of the SMD model:
 Marenich, A.V.; Cramer, C.J.; Truhlar, D.G.
 J. Phys. Chem. B 2009, 113, 6378-6396.
 iSolventCode=           1
 Solvent: water                                                           
 
 vradii
            1           2           3           4           5           6
    1   1.2000000   1.5200000   1.2000000   1.2000000   1.5200000   1.2000000
 -------------------------------------------------------
 OpenMP BLAS3 based DFT computing Module                
 Release: version 1.0, May 2013, Q-Chem Inc. Pittsburgh 
 -------------------------------------------------------
 A restricted SCF calculation will be
 performed using Roothaan-Hall, DIIS, GDM
 SCF converges when RMS gradient is below 1.0e-07
 ---------------------------------------
  Cycle       Energy         DIIS error
 ---------------------------------------
    1    -152.8587056761      1.26e-03  Roothaan Step
 ---------------------------------------
  Cycle       Energy         DIIS error
 ---------------------------------------
    1    -152.8845269136      1.35e-03  
    2    -152.8872592814      1.04e-03  Done DIIS. Switching to GDM
 ---------------------------------------
  Cycle       Energy        RMS Gradient
 ---------------------------------------
    1    -152.8872592814      1.36e-02   Normal BFGS step
    2    -152.8873639057      1.10e-02   Normal BFGS step
    3    -152.8883325964      1.04e-03   Normal BFGS step
    4    -152.8883416010      4.29e-04   Normal BFGS step
    5    -152.8883426609      1.29e-04   Normal BFGS step
    6    -152.8883428731      6.53e-05   Normal BFGS step
    7    -152.8883429092      1.01e-05   Normal BFGS step
    8    -152.8883429097      1.11e-06   Normal BFGS step
    9    -152.8883429098      2.58e-07   Normal BFGS step
   10    -152.8883429098      4.65e-08  Convergence criterion met
 ---------------------------------------
 SCF time:   CPU 90.02s  wall 6.00s 
(3)  G-ENP(liq) elect-nuc-pol free energy of system     -152.888342910 a.u.
(4)  G-CDS(liq) cavity-dispersion-solvent structure 
     free energy                                                2.4266 kcal/mol
(6)  G-S(liq) free energy of system                     -152.884475858 a.u.
 SCF   energy in the final basis set =     -152.8844758583
 Total energy in the final basis set =     -152.8844758583
 
 --------------------------------------------------------------
 
                    Orbital Energies (a.u.)
 --------------------------------------------------------------
 
 Alpha MOs
 -- Occupied --
-19.3412 -19.3213  -1.1486  -1.1260  -0.6408  -0.6294  -0.5235  -0.4934
 -0.4365  -0.4228
 -- Virtual --
  0.0260   0.0520   0.0647   0.0931   0.1795   0.1970   0.2174   0.2265
  0.2326   0.2424   0.2611   0.2741   0.2777   0.3116   0.3596   0.4076
  0.5833   0.6080   0.6418   0.6599   0.6793   0.7290   0.8111   0.8182
  0.8644   0.9306   0.9563   0.9820   1.0008   1.0459   1.1027   1.1282
  1.1918   1.2177   1.3219   1.4094   1.4707   1.4914   1.5304   1.7661
  1.8510   1.8843   1.9842   2.0014   2.0629   2.1719   2.2600   2.3131
  2.3571   2.4530   2.5767   2.6804   2.9129   3.0020   3.6421   3.7136
  3.7300   3.7593   3.8342   3.8603   3.9760   4.0053   4.1791   4.2249
  4.3236   4.4688   5.1124   5.1166   5.1440   5.2163   5.2409   5.2591
  5.3082   5.3995   5.5014   5.5409   5.5863   5.6646   5.7128   5.7224
  5.8203   5.8618   6.9893   7.0215   7.0377   7.0889   7.0942   7.1429
  7.1855   7.2787   7.4139   7.4482   7.4527   7.5102   7.6540   7.6951
 50.4838  50.5103
 --------------------------------------------------------------
 
          Ground-State Mulliken Net Atomic Charges

     Atom                 Charge (a.u.)
  ----------------------------------------
      1 H                     0.340499
      2 O                    -0.662898
      3 H                     0.340604
      4 H                     0.329812
      5 O                    -0.729420
      6 H                     0.381402
  ----------------------------------------
  Sum of atomic charges =     0.000000

 -----------------------------------------------------------------
                    Cartesian Multipole Moments
 -----------------------------------------------------------------
    Charge (ESU x 10^10)
                -0.0000
    Dipole Moment (Debye)
         X       0.4418      Y      -0.2252      Z       3.6569
       Tot       3.6904
    Quadrupole Moments (Debye-Ang)
        XX      -8.6561     XY      -0.9293     YY     -17.8732
        XZ      -3.9517     YZ       9.3978     ZZ     -17.7882
    Octopole Moments (Debye-Ang^2)
       XXX       2.0095    XXY     -11.8366    XYY      -1.3058
       YYY     -70.8242    XXZ       9.1810    XYZ      -4.3635
       YYZ      34.2580    XZZ      11.2190    YZZ     -32.2623
       ZZZ      54.7048
    Hexadecapole Moments (Debye-Ang^3)
      XXXX     -20.2977   XXXY      -5.2152   XXYY     -27.9113
      XYYY      -8.6588   YYYY    -224.3409   XXXZ       8.6508
      XXYZ      21.0821   XYYZ       3.4147   YYYZ     123.7114
      XXZZ     -28.2465   XYZZ       9.5264   YYZZ    -105.1994
      XZZZ      -6.9769   YZZZ     116.8842   ZZZZ    -253.8383
 -----------------------------------------------------------------
 Calculating analytic gradient of the SCF energy
 Gradient of CDS energy
            1           2           3           4           5           6
    1   0.0003849  -0.0000084  -0.0004615   0.0003895  -0.0001505  -0.0001540
    2   0.0000988  -0.0002741   0.0000846  -0.0001228   0.0001928   0.0000206
    3   0.0002523   0.0000313  -0.0000397  -0.0002346  -0.0001593   0.0001500
 Gradient of SCF Energy
            1           2           3           4           5           6
    1   0.0095389   0.0024010  -0.0125545   0.0079309  -0.0104401   0.0031238
    2   0.0089223  -0.0176997   0.0078202  -0.0053361   0.0081653  -0.0018720
    3   0.0118677  -0.0171614   0.0041562   0.0016812  -0.0052835   0.0047398
 Max gradient component =       1.770E-02
 RMS gradient           =       9.112E-03
 Computing fast CPCM-SWIG gradient
 Updating gradient with PCM contributions...
 -- total gradient after adding PCM contribution --
---------------------------------------------------
  Atom         X              Y              Z     
---------------------------------------------------
   1       0.000516       0.000254       0.000423
   2      -0.000421      -0.000130      -0.000492
   3      -0.000125      -0.000048       0.000030
   4       0.000136       0.000060      -0.000008
   5      -0.000217       0.000005      -0.000094
   6       0.000111      -0.000140       0.000141
---------------------------------------------------
 Number of fixed atoms: 0
 Gradient time:  CPU 16.53 s  wall 1.12 s
 ----------------------------------------------------------------
             Standard Nuclear Orientation (Angstroms)
    I     Atom           X                Y                Z
 ----------------------------------------------------------------
    1      H       0.0164884129     1.2400110609     1.0108770123
    2      O      -0.5473847016     0.8562167925     0.3312910626
    3      H      -1.4226274008     1.2156887062     0.5133076320
    4      H       1.1083635998     1.3866437026    -2.4131704394
    5      O       0.2750010745     1.8180293627    -2.2010101898
    6      H       0.0297357151     1.4715295750    -1.3244832777
 ----------------------------------------------------------------
 Nuclear Repulsion Energy =          37.10084656 hartrees
 There are       10 alpha and       10 beta electrons
 Discretize the solute cavity surface with Lebedev spheres
	Using 110 Lebedev grid points for each H atom
	Using 194 Lebedev grid points for other atoms
	Atomic van der Waals radii will be scaled by 1.20
 Remove points where switching function is < 1.0e-08
 Keep 541 surface tesserae and discard 287 interior tesserae
 Molecular Surface Area = 65.635 Angst**2

                       Distance Matrix (Angstroms)
             H (  1)   O (  2)   H (  3)   H (  4)   O (  5)
   O (  2)  0.962854
   H (  3)  1.522899  0.963535
   H (  4)  3.596914  3.248834  3.872908
   O (  5)  3.273706  2.830892  3.257649  0.962080
   H (  6)  2.346846  1.858297  2.356329  1.534889  0.973918
 
 Requested basis set is 6-311++G(2df,2p)
 There are 40 shells and 108 basis functions
 A cutoff of  1.0D-12 yielded    784 shell pairs
 There are      5775 function pairs (      6939 Cartesian)
 Smallest overlap matrix eigenvalue = 9.03E-04
 Guess MOs from SCF MO coefficient file

 -----------------------------------------------------------------------
  General SCF calculation program by
  Eric Jon Sundstrom, Paul Horn, Yuezhi Mao, Dmitri Zuev, Alec White,
  David Stuck, Shaama M.S., Shane Yost, Joonho Lee, David Small,
  Daniel Levine, Susi Lehtola, Hugh Burton, Evgeny Epifanovsky,
  Bang C. Huynh
 -----------------------------------------------------------------------
 Exchange:     0.1500 Hartree-Fock + 1.0000 wB97M-V + LR-HF
 Correlation:  1.0000 wB97M-V
 Using SG-2 standard quadrature grid
 Nonlocal Correlation:  VV10 with C = 0.0100 and b = 6.00 and scale = 1.00000
 Grid used for NLC:  SG-1 standard quadrature
 
 Citation of the SMD model:
 Marenich, A.V.; Cramer, C.J.; Truhlar, D.G.
 J. Phys. Chem. B 2009, 113, 6378-6396.
 iSolventCode=           1
 Solvent: water                                                           
 
 vradii
            1           2           3           4           5           6
    1   1.2000000   1.5200000   1.2000000   1.2000000   1.5200000   1.2000000
 -------------------------------------------------------
 OpenMP BLAS3 based DFT computing Module                
 Release: version 1.0, May 2013, Q-Chem Inc. Pittsburgh 
 -------------------------------------------------------
 A restricted SCF calculation will be
 performed using Roothaan-Hall, DIIS, GDM
 SCF converges when RMS gradient is below 1.0e-07
 ---------------------------------------
  Cycle       Energy         DIIS error
 ---------------------------------------
    1    -152.8587086294      1.27e-03  Roothaan Step
 ---------------------------------------
  Cycle       Energy         DIIS error
 ---------------------------------------
    1    -152.8845320590      1.35e-03  
    2    -152.8872682191      1.04e-03  Done DIIS. Switching to GDM
 ---------------------------------------
  Cycle       Energy        RMS Gradient
 ---------------------------------------
    1    -152.8872682191      1.36e-02   Normal BFGS step
    2    -152.8873738360      1.10e-02   Normal BFGS step
    3    -152.8883314941      1.04e-03   Normal BFGS step
    4    -152.8883404869      4.28e-04   Normal BFGS step
    5    -152.8883415337      1.34e-04   Normal BFGS step
    6    -152.8883417627      6.36e-05   Normal BFGS step
    7    -152.8883417965      1.03e-05   Normal BFGS step
    8    -152.8883417970      1.13e-06   Normal BFGS step
    9    -152.8883417971      2.64e-07   Normal BFGS step
   10    -152.8883417971      4.65e-08  Convergence criterion met
 ---------------------------------------
 SCF time:   CPU 87.31s  wall 6.00s 
(3)  G-ENP(liq) elect-nuc-pol free energy of system     -152.888341797 a.u.
(4)  G-CDS(liq) cavity-dispersion-solvent structure 
     free energy                                                2.4257 kcal/mol
(6)  G-S(liq) free energy of system                     -152.884476201 a.u.
 SCF   energy in the final basis set =     -152.8844762012
 Total energy in the final basis set =     -152.8844762012
 
 --------------------------------------------------------------
 
                    Orbital Energies (a.u.)
 --------------------------------------------------------------
 
 Alpha MOs
 -- Occupied --
-19.3411 -19.3213  -1.1488  -1.1260  -0.6409  -0.6294  -0.5237  -0.4934
 -0.4366  -0.4228
 -- Virtual --
  0.0260   0.0520   0.0647   0.0931   0.1795   0.1970   0.2176   0.2265
  0.2327   0.2424   0.2612   0.2741   0.2777   0.3116   0.3596   0.4076
  0.5835   0.6080   0.6425   0.6599   0.6792   0.7292   0.8112   0.8182
  0.8642   0.9306   0.9563   0.9821   1.0008   1.0457   1.1030   1.1282
  1.1918   1.2177   1.3219   1.4095   1.4707   1.4924   1.5305   1.7666
  1.8510   1.8843   1.9844   2.0016   2.0629   2.1718   2.2598   2.3128
  2.3569   2.4529   2.5767   2.6806   2.9140   3.0020   3.6420   3.7136
  3.7301   3.7594   3.8344   3.8603   3.9761   4.0054   4.1799   4.2249
  4.3257   4.4690   5.1124   5.1166   5.1440   5.2165   5.2410   5.2593
  5.3085   5.3996   5.5028   5.5418   5.5863   5.6656   5.7144   5.7226
  5.8204   5.8618   6.9894   7.0216   7.0379   7.0895   7.0945   7.1434
  7.1855   7.2787   7.4140   7.4525   7.4535   7.5102   7.6541   7.6951
 50.4840  50.5110
 --------------------------------------------------------------
 
          Ground-State Mulliken Net Atomic Charges

     Atom                 Charge (a.u.)
  ----------------------------------------
      1 H                     0.339946
      2 O                    -0.662248
      3 H                     0.340450
      4 H                     0.329815
      5 O                    -0.729476
      6 H                     0.381512
  ----------------------------------------
  Sum of atomic charges =     0.000000

 -----------------------------------------------------------------
                    Cartesian Multipole Moments
 -----------------------------------------------------------------
    Charge (ESU x 10^10)
                 0.0000
    Dipole Moment (Debye)
         X       0.4381      Y      -0.2253      Z       3.6568
       Tot       3.6899
    Quadrupole Moments (Debye-Ang)
        XX      -8.6568     XY      -0.9341     YY     -17.8715
        XZ      -3.9563     YZ       9.3979     ZZ     -17.7855
    Octopole Moments (Debye-Ang^2)
       XXX       2.0131    XXY     -11.8372    XYY      -1.3119
       YYY     -70.8183    XXZ       9.1809    XYZ      -4.3697
       YYZ      34.2593    XZZ      11.2141    YZZ     -32.2591
       ZZZ      54.7076
    Hexadecapole Moments (Debye-Ang^3)
      XXXX     -20.2998   XXXY      -5.2112   XXYY     -27.9109
      XYYY      -8.6653   YYYY    -224.3244   XXXZ       8.6528
      XXYZ      21.0821   XYYZ       3.4070   YYYZ     123.7150
      XXZZ     -28.2448   XYZZ       9.5206   YYZZ    -105.1927
      XZZZ      -6.9817   YZZZ     116.8869   ZZZZ    -253.8242
 -----------------------------------------------------------------
 Calculating analytic gradient of the SCF energy
 Gradient of CDS energy
            1           2           3           4           5           6
    1   0.0003854  -0.0000087  -0.0004617   0.0003895  -0.0001505  -0.0001540
    2   0.0000988  -0.0002737   0.0000843  -0.0001228   0.0001928   0.0000206
    3   0.0002527   0.0000316  -0.0000404  -0.0002346  -0.0001593   0.0001500
 Gradient of SCF Energy
            1           2           3           4           5           6
    1   0.0086480   0.0032052  -0.0124621   0.0079279  -0.0104317   0.0031127
    2   0.0085219  -0.0173740   0.0078975  -0.0053353   0.0081674  -0.0018776
    3   0.0110770  -0.0164991   0.0042860   0.0016802  -0.0052871   0.0047430
 Max gradient component =       1.737E-02
 RMS gradient           =       8.894E-03
 Computing fast CPCM-SWIG gradient
 Updating gradient with PCM contributions...
 -- total gradient after adding PCM contribution --
---------------------------------------------------
  Atom         X              Y              Z     
---------------------------------------------------
   1      -0.000335      -0.000154      -0.000373
   2       0.000335       0.000209       0.000179
   3      -0.000028       0.000022       0.000153
   4       0.000136       0.000060      -0.000008
   5      -0.000214       0.000008      -0.000099
   6       0.000106      -0.000145       0.000147
---------------------------------------------------
 Number of fixed atoms: 0
 Gradient time:  CPU 16.89 s  wall 1.19 s
 ----------------------------------------------------------------
             Standard Nuclear Orientation (Angstroms)
    I     Atom           X                Y                Z
 ----------------------------------------------------------------
    1      H       0.0174884129     1.2410110609     1.0108770123
    2      O      -0.5473847016     0.8562167925     0.3312910626
    3      H      -1.4226274008     1.2156887062     0.5133076320
    4      H       1.1083635998     1.3866437026    -2.4131704394
    5      O       0.2750010745     1.8180293627    -2.2010101898
    6      H       0.0297357151     1.4715295750    -1.3244832777
 ----------------------------------------------------------------
 Nuclear Repulsion Energy =          37.09626006 hartrees
 There are       10 alpha and       10 beta electrons
 Discretize the solute cavity surface with Lebedev spheres
	Using 110 Lebedev grid points for each H atom
	Using 194 Lebedev grid points for other atoms
	Atomic van der Waals radii will be scaled by 1.20
 Remove points where switching function is < 1.0e-08
 Keep 541 surface tesserae and discard 287 interior tesserae
 Molecular Surface Area = 65.643 Angst**2

                       Distance Matrix (Angstroms)
             H (  1)   O (  2)   H (  3)   H (  4)   O (  5)
   O (  2)  0.963839
   H (  3)  1.523860  0.963535
   H (  4)  3.596570  3.248834  3.872908
   O (  5)  3.273451  2.830892  3.257649  0.962080
   H (  6)  2.346742  1.858297  2.356329  1.534889  0.973918
 
 Requested basis set is 6-311++G(2df,2p)
 There are 40 shells and 108 basis functions
 A cutoff of  1.0D-12 yielded    784 shell pairs
 There are      5775 function pairs (      6939 Cartesian)
 Smallest overlap matrix eigenvalue = 9.03E-04
 Guess MOs from SCF MO coefficient file

 -----------------------------------------------------------------------
  General SCF calculation program by
  Eric Jon Sundstrom, Paul Horn, Yuezhi Mao, Dmitri Zuev, Alec White,
  David Stuck, Shaama M.S., Shane Yost, Joonho Lee, David Small,
  Daniel Levine, Susi Lehtola, Hugh Burton, Evgeny Epifanovsky,
  Bang C. Huynh
 -----------------------------------------------------------------------
 Exchange:     0.1500 Hartree-Fock + 1.0000 wB97M-V + LR-HF
 Correlation:  1.0000 wB97M-V
 Using SG-2 standard quadrature grid
 Nonlocal Correlation:  VV10 with C = 0.0100 and b = 6.00 and scale = 1.00000
 Grid used for NLC:  SG-1 standard quadrature
 
 Citation of the SMD model:
 Marenich, A.V.; Cramer, C.J.; Truhlar, D.G.
 J. Phys. Chem. B 2009, 113, 6378-6396.
 iSolventCode=           1
 Solvent: water                                                           
 
 vradii
            1           2           3           4           5           6
    1   1.2000000   1.5200000   1.2000000   1.2000000   1.5200000   1.2000000
 -------------------------------------------------------
 OpenMP BLAS3 based DFT computing Module                
 Release: version 1.0, May 2013, Q-Chem Inc. Pittsburgh 
 -------------------------------------------------------
 A restricted SCF calculation will be
 performed using Roothaan-Hall, DIIS, GDM
 SCF converges when RMS gradient is below 1.0e-07
 ---------------------------------------
  Cycle       Energy         DIIS error
 ---------------------------------------
    1    -152.8587016732      1.26e-03  Roothaan Step
 ---------------------------------------
  Cycle       Energy         DIIS error
 ---------------------------------------
    1    -152.8845239112      1.35e-03  
    2    -152.8872566050      1.04e-03  Done DIIS. Switching to GDM
 ---------------------------------------
  Cycle       Energy        RMS Gradient
 ---------------------------------------
    1    -152.8872566050      1.36e-02   Normal BFGS step
    2    -152.8873610995      1.10e-02   Normal BFGS step
    3    -152.8883323785      1.04e-03   Normal BFGS step
    4    -152.8883413794      4.29e-04   Normal BFGS step
    5    -152.8883424401      1.29e-04   Normal BFGS step
    6    -152.8883426505      6.55e-05   Normal BFGS step
    7    -152.8883426868      1.01e-05   Normal BFGS step
    8    -152.8883426873      1.11e-06   Normal BFGS step
    9    -152.8883426873      2.58e-07   Normal BFGS step
   10    -152.8883426873      4.66e-08  Convergence criterion met
 ---------------------------------------
 SCF time:   CPU 84.47s  wall 6.00s 
(3)  G-ENP(liq) elect-nuc-pol free energy of system     -152.888342687 a.u.
(4)  G-CDS(liq) cavity-dispersion-solvent structure 
     free energy                                                2.4263 kcal/mol
(6)  G-S(liq) free energy of system                     -152.884476177 a.u.
 SCF   energy in the final basis set =     -152.8844761765
 Total energy in the final basis set =     -152.8844761765
 
 --------------------------------------------------------------
 
                    Orbital Energies (a.u.)
 --------------------------------------------------------------
 
 Alpha MOs
 -- Occupied --
-19.3412 -19.3213  -1.1486  -1.1260  -0.6407  -0.6294  -0.5236  -0.4934
 -0.4365  -0.4228
 -- Virtual --
  0.0260   0.0520   0.0647   0.0931   0.1795   0.1970   0.2174   0.2265
  0.2326   0.2424   0.2612   0.2741   0.2777   0.3116   0.3597   0.4076
  0.5833   0.6080   0.6421   0.6599   0.6791   0.7291   0.8112   0.8182
  0.8643   0.9306   0.9562   0.9821   1.0008   1.0458   1.1028   1.1282
  1.1918   1.2177   1.3220   1.4094   1.4707   1.4917   1.5305   1.7665
  1.8509   1.8843   1.9843   2.0013   2.0630   2.1718   2.2599   2.3130
  2.3570   2.4531   2.5767   2.6805   2.9132   3.0020   3.6420   3.7136
  3.7300   3.7593   3.8342   3.8603   3.9758   4.0051   4.1791   4.2249
  4.3243   4.4689   5.1124   5.1166   5.1440   5.2164   5.2409   5.2592
  5.3082   5.3995   5.5021   5.5411   5.5863   5.6649   5.7132   5.7224
  5.8193   5.8618   6.9892   7.0215   7.0377   7.0889   7.0942   7.1431
  7.1855   7.2785   7.4138   7.4495   7.4526   7.5102   7.6543   7.6951
 50.4838  50.5105
 --------------------------------------------------------------
 
          Ground-State Mulliken Net Atomic Charges

     Atom                 Charge (a.u.)
  ----------------------------------------
      1 H                     0.340317
      2 O                    -0.662637
      3 H                     0.340486
      4 H                     0.329817
      5 O                    -0.729477
      6 H                     0.381494
  ----------------------------------------
  Sum of atomic charges =     0.000000

 -----------------------------------------------------------------
                    Cartesian Multipole Moments
 -----------------------------------------------------------------
    Charge (ESU x 10^10)
                 0.0000
    Dipole Moment (Debye)
         X       0.4399      Y      -0.2234      Z       3.6565
       Tot       3.6897
    Quadrupole Moments (Debye-Ang)
        XX      -8.6570     XY      -0.9311     YY     -17.8675
        XZ      -3.9540     YZ       9.4001     ZZ     -17.7879
    Octopole Moments (Debye-Ang^2)
       XXX       2.0120    XXY     -11.8385    XYY      -1.3078
       YYY     -70.8135    XXZ       9.1806    XYZ      -4.3665
       YYZ      34.2642    XZZ      11.2167    YZZ     -32.2596
       ZZZ      54.7045
    Hexadecapole Moments (Debye-Ang^3)
      XXXX     -20.3008   XXXY      -5.2115   XXYY     -27.9138
      XYYY      -8.6601   YYYY    -224.3237   XXXZ       8.6518
      XXYZ      21.0815   XYYZ       3.4112   YYYZ     123.7227
      XXZZ     -28.2465   XYZZ       9.5240   YYZZ    -105.1923
      XZZZ      -6.9790   YZZZ     116.8858   ZZZZ    -253.8353
 -----------------------------------------------------------------
 Calculating analytic gradient of the SCF energy
 Gradient of CDS energy
            1           2           3           4           5           6
    1   0.0003851  -0.0000084  -0.0004617   0.0003895  -0.0001505  -0.0001540
    2   0.0000990  -0.0002738   0.0000842  -0.0001228   0.0001928   0.0000206
    3   0.0002522   0.0000319  -0.0000402  -0.0002346  -0.0001593   0.0001500
 Gradient of SCF Energy
            1           2           3           4           5           6
    1   0.0092915   0.0025758  -0.0124801   0.0079297  -0.0104367   0.0031197
    2   0.0089116  -0.0177416   0.0078723  -0.0053354   0.0081659  -0.0018728
    3   0.0117544  -0.0171356   0.0042429   0.0016808  -0.0052877   0.0047453
 Max gradient component =       1.774E-02
 RMS gradient           =       9.093E-03
 Computing fast CPCM-SWIG gradient
 Updating gradient with PCM contributions...
 -- total gradient after adding PCM contribution --
---------------------------------------------------
  Atom         X              Y              Z     
---------------------------------------------------
   1       0.000294       0.000220       0.000308
   2      -0.000273      -0.000140      -0.000461
   3      -0.000052      -0.000004       0.000112
   4       0.000136       0.000060      -0.000008
   5      -0.000216       0.000006      -0.000096
   6       0.000111      -0.000142       0.000144
---------------------------------------------------
 Number of fixed atoms: 0
 Gradient time:  CPU 16.31 s  wall 1.08 s
 ----------------------------------------------------------------
             Standard Nuclear Orientation (Angstroms)
    I     Atom           X                Y                Z
 ----------------------------------------------------------------
    1      H       0.0174884129     1.2390110609     1.0108770123
    2      O      -0.5473847016     0.8562167925     0.3312910626
    3      H      -1.4226274008     1.2156887062     0.5133076320
    4      H       1.1083635998     1.3866437026    -2.4131704394
    5      O       0.2750010745     1.8180293627    -2.2010101898
    6      H       0.0297357151     1.4715295750    -1.3244832777
 ----------------------------------------------------------------
 Nuclear Repulsion Energy =          37.09973920 hartrees
 There are       10 alpha and       10 beta electrons
 Discretize the solute cavity surface with Lebedev spheres
	Using 110 Lebedev grid points for each H atom
	Using 194 Lebedev grid points for other atoms
	Atomic van der Waals radii will be scaled by 1.20
 Remove points where switching function is < 1.0e-08
 Keep 541 surface tesserae and discard 287 interior tesserae
 Molecular Surface Area = 65.636 Angst**2

                       Distance Matrix (Angstroms)
             H (  1)   O (  2)   H (  3)   H (  4)   O (  5)
   O (  2)  0.963042
   H (  3)  1.523828  0.963535
   H (  4)  3.596652  3.248834  3.872908
   O (  5)  3.273804  2.830892  3.257649  0.962080
   H (  6)  2.346939  1.858297  2.356329  1.534889  0.973918
 
 Requested basis set is 6-311++G(2df,2p)
 There are 40 shells and 108 basis functions
 A cutoff of  1.0D-12 yielded    784 shell pairs
 There are      5775 function pairs (      6939 Cartesian)
 Smallest overlap matrix eigenvalue = 9.04E-04
 Guess MOs from SCF MO coefficient file

 -----------------------------------------------------------------------
  General SCF calculation program by
  Eric Jon Sundstrom, Paul Horn, Yuezhi Mao, Dmitri Zuev, Alec White,
  David Stuck, Shaama M.S., Shane Yost, Joonho Lee, David Small,
  Daniel Levine, Susi Lehtola, Hugh Burton, Evgeny Epifanovsky,
  Bang C. Huynh
 -----------------------------------------------------------------------
 Exchange:     0.1500 Hartree-Fock + 1.0000 wB97M-V + LR-HF
 Correlation:  1.0000 wB97M-V
 Using SG-2 standard quadrature grid
 Nonlocal Correlation:  VV10 with C = 0.0100 and b = 6.00 and scale = 1.00000
 Grid used for NLC:  SG-1 standard quadrature
 
 Citation of the SMD model:
 Marenich, A.V.; Cramer, C.J.; Truhlar, D.G.
 J. Phys. Chem. B 2009, 113, 6378-6396.
 iSolventCode=           1
 Solvent: water                                                           
 
 vradii
            1           2           3           4           5           6
    1   1.2000000   1.5200000   1.2000000   1.2000000   1.5200000   1.2000000
 -------------------------------------------------------
 OpenMP BLAS3 based DFT computing Module                
 Release: version 1.0, May 2013, Q-Chem Inc. Pittsburgh 
 -------------------------------------------------------
 A restricted SCF calculation will be
 performed using Roothaan-Hall, DIIS, GDM
 SCF converges when RMS gradient is below 1.0e-07
 ---------------------------------------
  Cycle       Energy         DIIS error
 ---------------------------------------
    1    -152.8587153533      1.26e-03  Roothaan Step
 ---------------------------------------
  Cycle       Energy         DIIS error
 ---------------------------------------
    1    -152.8845326714      1.35e-03  
    2    -152.8872671319      1.04e-03  Done DIIS. Switching to GDM
 ---------------------------------------
  Cycle       Energy        RMS Gradient
 ---------------------------------------
    1    -152.8872671319      1.36e-02   Normal BFGS step
    2    -152.8873726084      1.10e-02   Normal BFGS step
    3    -152.8883321914      1.04e-03   Normal BFGS step
    4    -152.8883411931      4.29e-04   Normal BFGS step
    5    -152.8883422432      1.33e-04   Normal BFGS step
    6    -152.8883424693      6.40e-05   Normal BFGS step
    7    -152.8883425035      1.03e-05   Normal BFGS step
    8    -152.8883425041      1.13e-06   Normal BFGS step
    9    -152.8883425041      2.63e-07   Normal BFGS step
   10    -152.8883425041      4.65e-08  Convergence criterion met
 ---------------------------------------
 SCF time:   CPU 81.85s  wall 5.00s 
(3)  G-ENP(liq) elect-nuc-pol free energy of system     -152.888342504 a.u.
(4)  G-CDS(liq) cavity-dispersion-solvent structure 
     free energy                                                2.4260 kcal/mol
(6)  G-S(liq) free energy of system                     -152.884476367 a.u.
 SCF   energy in the final basis set =     -152.8844763667
 Total energy in the final basis set =     -152.8844763667
 
 --------------------------------------------------------------
 
                    Orbital Energies (a.u.)
 --------------------------------------------------------------
 
 Alpha MOs
 -- Occupied --
-19.3411 -19.3213  -1.1488  -1.1260  -0.6410  -0.6294  -0.5236  -0.4934
 -0.4365  -0.4228
 -- Virtual --
  0.0260   0.0520   0.0647   0.0931   0.1796   0.1970   0.2175   0.2265
  0.2327   0.2424   0.2611   0.2741   0.2777   0.3116   0.3596   0.4076
  0.5835   0.6080   0.6422   0.6599   0.6793   0.7291   0.8112   0.8182
  0.8643   0.9306   0.9564   0.9820   1.0007   1.0457   1.1029   1.1283
  1.1918   1.2177   1.3219   1.4095   1.4707   1.4922   1.5304   1.7662
  1.8511   1.8843   1.9842   2.0016   2.0629   2.1720   2.2598   2.3129
  2.3570   2.4528   2.5767   2.6805   2.9136   3.0020   3.6421   3.7136
  3.7301   3.7594   3.8344   3.8603   3.9762   4.0056   4.1799   4.2249
  4.3250   4.4688   5.1124   5.1167   5.1440   5.2163   5.2409   5.2592
  5.3085   5.3996   5.5021   5.5416   5.5863   5.6652   5.7140   5.7225
  5.8213   5.8618   6.9895   7.0216   7.0379   7.0895   7.0945   7.1432
  7.1855   7.2790   7.4141   7.4520   7.4527   7.5102   7.6538   7.6951
 50.4839  50.5109
 --------------------------------------------------------------
 
          Ground-State Mulliken Net Atomic Charges

     Atom                 Charge (a.u.)
  ----------------------------------------
      1 H                     0.340128
      2 O                    -0.662509
      3 H                     0.340568
      4 H                     0.329811
      5 O                    -0.729418
      6 H                     0.381420
  ----------------------------------------
  Sum of atomic charges =     0.000000

 -----------------------------------------------------------------
                    Cartesian Multipole Moments
 -----------------------------------------------------------------
    Charge (ESU x 10^10)
                 0.0000
    Dipole Moment (Debye)
         X       0.4400      Y      -0.2271      Z       3.6572
       Tot       3.6906
    Quadrupole Moments (Debye-Ang)
        XX      -8.6558     XY      -0.9323     YY     -17.8772
        XZ      -3.9539     YZ       9.3957     ZZ     -17.7858
    Octopole Moments (Debye-Ang^2)
       XXX       2.0106    XXY     -11.8352    XYY      -1.3099
       YYY     -70.8290    XXZ       9.1812    XYZ      -4.3667
       YYZ      34.2531    XZZ      11.2163    YZZ     -32.2618
       ZZZ      54.7079
    Hexadecapole Moments (Debye-Ang^3)
      XXXX     -20.2968   XXXY      -5.2149   XXYY     -27.9084
      XYYY      -8.6640   YYYY    -224.3415   XXXZ       8.6517
      XXYZ      21.0827   XYYZ       3.4104   YYYZ     123.7038
      XXZZ     -28.2448   XYZZ       9.5231   YYZZ    -105.1997
      XZZZ      -6.9796   YZZZ     116.8853   ZZZZ    -253.8272
 -----------------------------------------------------------------
 Calculating analytic gradient of the SCF energy
 Gradient of CDS energy
            1           2           3           4           5           6
    1   0.0003851  -0.0000086  -0.0004615   0.0003895  -0.0001505  -0.0001540
    2   0.0000986  -0.0002739   0.0000847  -0.0001228   0.0001928   0.0000206
    3   0.0002528   0.0000310  -0.0000399  -0.0002346  -0.0001593   0.0001500
 Gradient of SCF Energy
            1           2           3           4           5           6
    1   0.0088956   0.0030303  -0.0125368   0.0079292  -0.0104351   0.0031167
    2   0.0085341  -0.0173336   0.0078454  -0.0053360   0.0081669  -0.0018768
    3   0.0111916  -0.0165260   0.0041991   0.0016807  -0.0052829   0.0047376
 Max gradient component =       1.733E-02
 RMS gradient           =       8.912E-03
 Computing fast CPCM-SWIG gradient
 Updating gradient with PCM contributions...
 -- total gradient after adding PCM contribution --
---------------------------------------------------
  Atom         X              Y              Z     
---------------------------------------------------
   1      -0.000113      -0.000119      -0.000257
   2       0.000187       0.000217       0.000148
   3      -0.000102      -0.000023       0.000070
   4       0.000136       0.000060      -0.000008
   5      -0.000215       0.000007      -0.000098
   6       0.000107      -0.000143       0.000145
---------------------------------------------------
 Number of fixed atoms: 0
 Gradient time:  CPU 16.08 s  wall 1.06 s
 ----------------------------------------------------------------
             Standard Nuclear Orientation (Angstroms)
    I     Atom           X                Y                Z
 ----------------------------------------------------------------
    1      H       0.0174884129     1.2400110609     1.0118770123
    2      O      -0.5473847016     0.8562167925     0.3312910626
    3      H      -1.4226274008     1.2156887062     0.5133076320
    4      H       1.1083635998     1.3866437026    -2.4131704394
    5      O       0.2750010745     1.8180293627    -2.2010101898
    6      H       0.0297357151     1.4715295750    -1.3244832777
 ----------------------------------------------------------------
 Nuclear Repulsion Energy =          37.09418868 hartrees
 There are       10 alpha and       10 beta electrons
 Discretize the solute cavity surface with Lebedev spheres
	Using 110 Lebedev grid points for each H atom
	Using 194 Lebedev grid points for other atoms
	Atomic van der Waals radii will be scaled by 1.20
 Remove points where switching function is < 1.0e-08
 Keep 541 surface tesserae and discard 287 interior tesserae
 Molecular Surface Area = 65.645 Angst**2

                       Distance Matrix (Angstroms)
             H (  1)   O (  2)   H (  3)   H (  4)   O (  5)
   O (  2)  0.964146
   H (  3)  1.524171  0.963535
   H (  4)  3.597563  3.248834  3.872908
   O (  5)  3.274609  2.830892  3.257649  0.962080
   H (  6)  2.347835  1.858297  2.356329  1.534889  0.973918
 
 Requested basis set is 6-311++G(2df,2p)
 There are 40 shells and 108 basis functions
 A cutoff of  1.0D-12 yielded    784 shell pairs
 There are      5775 function pairs (      6939 Cartesian)
 Smallest overlap matrix eigenvalue = 9.04E-04
 Guess MOs from SCF MO coefficient file

 -----------------------------------------------------------------------
  General SCF calculation program by
  Eric Jon Sundstrom, Paul Horn, Yuezhi Mao, Dmitri Zuev, Alec White,
  David Stuck, Shaama M.S., Shane Yost, Joonho Lee, David Small,
  Daniel Levine, Susi Lehtola, Hugh Burton, Evgeny Epifanovsky,
  Bang C. Huynh
 -----------------------------------------------------------------------
 Exchange:     0.1500 Hartree-Fock + 1.0000 wB97M-V + LR-HF
 Correlation:  1.0000 wB97M-V
 Using SG-2 standard quadrature grid
 Nonlocal Correlation:  VV10 with C = 0.0100 and b = 6.00 and scale = 1.00000
 Grid used for NLC:  SG-1 standard quadrature
 
 Citation of the SMD model:
 Marenich, A.V.; Cramer, C.J.; Truhlar, D.G.
 J. Phys. Chem. B 2009, 113, 6378-6396.
 iSolventCode=           1
 Solvent: water                                                           
 
 vradii
            1           2           3           4           5           6
    1   1.2000000   1.5200000   1.2000000   1.2000000   1.5200000   1.2000000
 -------------------------------------------------------
 OpenMP BLAS3 based DFT computing Module                
 Release: version 1.0, May 2013, Q-Chem Inc. Pittsburgh 
 -------------------------------------------------------
 A restricted SCF calculation will be
 performed using Roothaan-Hall, DIIS, GDM
 SCF converges when RMS gradient is below 1.0e-07
 ---------------------------------------
  Cycle       Energy         DIIS error
 ---------------------------------------
    1    -152.8587002926      1.26e-03  Roothaan Step
 ---------------------------------------
  Cycle       Energy         DIIS error
 ---------------------------------------
    1    -152.8845253734      1.35e-03  
    2    -152.8872568762      1.04e-03  Done DIIS. Switching to GDM
 ---------------------------------------
  Cycle       Energy        RMS Gradient
 ---------------------------------------
    1    -152.8872568762      1.36e-02   Normal BFGS step
    2    -152.8873611962      1.10e-02   Normal BFGS step
    3    -152.8883324066      1.04e-03   Normal BFGS step
    4    -152.8883414029      4.29e-04   Normal BFGS step
    5    -152.8883424640      1.28e-04   Normal BFGS step
    6    -152.8883426727      6.55e-05   Normal BFGS step
    7    -152.8883427092      1.00e-05   Normal BFGS step
    8    -152.8883427097      1.11e-06   Normal BFGS step
    9    -152.8883427098      2.56e-07   Normal BFGS step
   10    -152.8883427098      4.65e-08  Convergence criterion met
 ---------------------------------------
 SCF time:   CPU 82.86s  wall 5.00s 
(3)  G-ENP(liq) elect-nuc-pol free energy of system     -152.888342710 a.u.
(4)  G-CDS(liq) cavity-dispersion-solvent structure 
     free energy                                                2.4265 kcal/mol
(6)  G-S(liq) free energy of system                     -152.884475909 a.u.
 SCF   energy in the final basis set =     -152.8844759087
 Total energy in the final basis set =     -152.8844759087
 
 --------------------------------------------------------------
 
                    Orbital Energies (a.u.)
 --------------------------------------------------------------
 
 Alpha MOs
 -- Occupied --
-19.3412 -19.3213  -1.1486  -1.1260  -0.6407  -0.6294  -0.5236  -0.4934
 -0.4365  -0.4228
 -- Virtual --
  0.0260   0.0520   0.0647   0.0931   0.1795   0.1970   0.2174   0.2265
  0.2326   0.2424   0.2611   0.2741   0.2776   0.3116   0.3596   0.4076
  0.5832   0.6080   0.6419   0.6599   0.6792   0.7291   0.8112   0.8182
  0.8642   0.9305   0.9562   0.9822   1.0008   1.0458   1.1028   1.1283
  1.1918   1.2177   1.3220   1.4094   1.4706   1.4914   1.5305   1.7661
  1.8509   1.8843   1.9841   2.0014   2.0629   2.1719   2.2600   2.3131
  2.3571   2.4529   2.5766   2.6803   2.9130   3.0020   3.6421   3.7135
  3.7299   3.7594   3.8341   3.8603   3.9758   4.0051   4.1788   4.2249
  4.3238   4.4688   5.1124   5.1167   5.1440   5.2163   5.2409   5.2592
  5.3081   5.3996   5.5018   5.5410   5.5863   5.6644   5.7128   5.7224
  5.8190   5.8617   6.9893   7.0215   7.0376   7.0886   7.0942   7.1430
  7.1854   7.2785   7.4138   7.4483   7.4526   7.5100   7.6543   7.6951
 50.4838  50.5102
 --------------------------------------------------------------
 
          Ground-State Mulliken Net Atomic Charges

     Atom                 Charge (a.u.)
  ----------------------------------------
      1 H                     0.340447
      2 O                    -0.662775
      3 H                     0.340507
      4 H                     0.329812
      5 O                    -0.729447
      6 H                     0.381456
  ----------------------------------------
  Sum of atomic charges =     0.000000

 -----------------------------------------------------------------
                    Cartesian Multipole Moments
 -----------------------------------------------------------------
    Charge (ESU x 10^10)
                -0.0000
    Dipole Moment (Debye)
         X       0.4399      Y      -0.2255      Z       3.6585
       Tot       3.6918
    Quadrupole Moments (Debye-Ang)
        XX      -8.6575     XY      -0.9318     YY     -17.8739
        XZ      -3.9536     YZ       9.3999     ZZ     -17.7831
    Octopole Moments (Debye-Ang^2)
       XXX       2.0127    XXY     -11.8379    XYY      -1.3087
       YYY     -70.8254    XXZ       9.1796    XYZ      -4.3662
       YYZ      34.2601    XZZ      11.2170    YZZ     -32.2559
       ZZZ      54.7102
    Hexadecapole Moments (Debye-Ang^3)
      XXXX     -20.3026   XXXY      -5.2122   XXYY     -27.9129
      XYYY      -8.6615   YYYY    -224.3425   XXXZ       8.6526
      XXYZ      21.0805   XYYZ       3.4114   YYYZ     123.7124
      XXZZ     -28.2473   XYZZ       9.5241   YYZZ    -105.1914
      XZZZ      -6.9784   YZZZ     116.8907   ZZZZ    -253.8288
 -----------------------------------------------------------------
 Calculating analytic gradient of the SCF energy
 Gradient of CDS energy
            1           2           3           4           5           6
    1   0.0003849  -0.0000083  -0.0004616   0.0003895  -0.0001505  -0.0001540
    2   0.0000985  -0.0002735   0.0000844  -0.0001228   0.0001928   0.0000206
    3   0.0002525   0.0000317  -0.0000403  -0.0002346  -0.0001593   0.0001500
 Gradient of SCF Energy
            1           2           3           4           5           6
    1   0.0094824   0.0023966  -0.0124881   0.0079273  -0.0104337   0.0031155
    2   0.0090028  -0.0178153   0.0078595  -0.0053348   0.0081649  -0.0018771
    3   0.0119953  -0.0173596   0.0042330   0.0016806  -0.0052787   0.0047293
 Max gradient component =       1.782E-02
 RMS gradient           =       9.153E-03
 Computing fast CPCM-SWIG gradient
 Updating gradient with PCM contributions...
 -- total gradient after adding PCM contribution --
---------------------------------------------------
  Atom         X              Y              Z     
---------------------------------------------------
   1       0.000487       0.000332       0.000527
   2      -0.000455      -0.000244      -0.000662
   3      -0.000060      -0.000012       0.000099
   4       0.000136       0.000060      -0.000008
   5      -0.000215       0.000007      -0.000097
   6       0.000106      -0.000144       0.000141
---------------------------------------------------
 Number of fixed atoms: 0
 Gradient time:  CPU 16.41 s  wall 1.06 s
 ----------------------------------------------------------------
             Standard Nuclear Orientation (Angstroms)
    I     Atom           X                Y                Z
 ----------------------------------------------------------------
    1      H       0.0174884129     1.2400110609     1.0098770123
    2      O      -0.5473847016     0.8562167925     0.3312910626
    3      H      -1.4226274008     1.2156887062     0.5133076320
    4      H       1.1083635998     1.3866437026    -2.4131704394
    5      O       0.2750010745     1.8180293627    -2.2010101898
    6      H       0.0297357151     1.4715295750    -1.3244832777
 ----------------------------------------------------------------
 Nuclear Repulsion Energy =          37.10181593 hartrees
 There are       10 alpha and       10 beta electrons
 Discretize the solute cavity surface with Lebedev spheres
	Using 110 Lebedev grid points for each H atom
	Using 194 Lebedev grid points for other atoms
	Atomic van der Waals radii will be scaled by 1.20
 Remove points where switching function is < 1.0e-08
 Keep 541 surface tesserae and discard 287 interior tesserae
 Molecular Surface Area = 65.634 Angst**2

                       Distance Matrix (Angstroms)
             H (  1)   O (  2)   H (  3)   H (  4)   O (  5)
   O (  2)  0.962735
   H (  3)  1.523518  0.963535
   H (  4)  3.595659  3.248834  3.872908
   O (  5)  3.272646  2.830892  3.257649  0.962080
   H (  6)  2.345845  1.858297  2.356329  1.534889  0.973918
 
 Requested basis set is 6-311++G(2df,2p)
 There are 40 shells and 108 basis functions
 A cutoff of  1.0D-12 yielded    784 shell pairs
 There are      5775 function pairs (      6939 Cartesian)
 Smallest overlap matrix eigenvalue = 9.03E-04
 Guess MOs from SCF MO coefficient file

 -----------------------------------------------------------------------
  General SCF calculation program by
  Eric Jon Sundstrom, Paul Horn, Yuezhi Mao, Dmitri Zuev, Alec White,
  David Stuck, Shaama M.S., Shane Yost, Joonho Lee, David Small,
  Daniel Levine, Susi Lehtola, Hugh Burton, Evgeny Epifanovsky,
  Bang C. Huynh
 -----------------------------------------------------------------------
 Exchange:     0.1500 Hartree-Fock + 1.0000 wB97M-V + LR-HF
 Correlation:  1.0000 wB97M-V
 Using SG-2 standard quadrature grid
 Nonlocal Correlation:  VV10 with C = 0.0100 and b = 6.00 and scale = 1.00000
 Grid used for NLC:  SG-1 standard quadrature
 
 Citation of the SMD model:
 Marenich, A.V.; Cramer, C.J.; Truhlar, D.G.
 J. Phys. Chem. B 2009, 113, 6378-6396.
 iSolventCode=           1
 Solvent: water                                                           
 
 vradii
            1           2           3           4           5           6
    1   1.2000000   1.5200000   1.2000000   1.2000000   1.5200000   1.2000000
 -------------------------------------------------------
 OpenMP BLAS3 based DFT computing Module                
 Release: version 1.0, May 2013, Q-Chem Inc. Pittsburgh 
 -------------------------------------------------------
 A restricted SCF calculation will be
 performed using Roothaan-Hall, DIIS, GDM
 SCF converges when RMS gradient is below 1.0e-07
 ---------------------------------------
  Cycle       Energy         DIIS error
 ---------------------------------------
    1    -152.8587139492      1.27e-03  Roothaan Step
 ---------------------------------------
  Cycle       Energy         DIIS error
 ---------------------------------------
    1    -152.8845316009      1.35e-03  
    2    -152.8872681162      1.04e-03  Done DIIS. Switching to GDM
 ---------------------------------------
  Cycle       Energy        RMS Gradient
 ---------------------------------------
    1    -152.8872681162      1.36e-02   Normal BFGS step
    2    -152.8873738798      1.10e-02   Normal BFGS step
    3    -152.8883315379      1.04e-03   Normal BFGS step
    4    -152.8883405407      4.28e-04   Normal BFGS step
    5    -152.8883415881      1.34e-04   Normal BFGS step
    6    -152.8883418182      6.36e-05   Normal BFGS step
    7    -152.8883418519      1.03e-05   Normal BFGS step
    8    -152.8883418525      1.13e-06   Normal BFGS step
    9    -152.8883418525      2.65e-07   Normal BFGS step
   10    -152.8883418525      4.66e-08  Convergence criterion met
 ---------------------------------------
 SCF time:   CPU 83.22s  wall 6.00s 
(3)  G-ENP(liq) elect-nuc-pol free energy of system     -152.888341852 a.u.
(4)  G-CDS(liq) cavity-dispersion-solvent structure 
     free energy                                                2.4259 kcal/mol
(6)  G-S(liq) free energy of system                     -152.884476006 a.u.
 SCF   energy in the final basis set =     -152.8844760057
 Total energy in the final basis set =     -152.8844760057
 
 --------------------------------------------------------------
 
                    Orbital Energies (a.u.)
 --------------------------------------------------------------
 
 Alpha MOs
 -- Occupied --
-19.3411 -19.3213  -1.1488  -1.1260  -0.6411  -0.6294  -0.5236  -0.4934
 -0.4365  -0.4228
 -- Virtual --
  0.0260   0.0520   0.0647   0.0931   0.1795   0.1970   0.2176   0.2265
  0.2326   0.2424   0.2611   0.2741   0.2777   0.3116   0.3596   0.4076
  0.5836   0.6080   0.6423   0.6599   0.6793   0.7291   0.8112   0.8182
  0.8643   0.9307   0.9564   0.9820   1.0008   1.0457   1.1029   1.1282
  1.1918   1.2177   1.3219   1.4095   1.4708   1.4924   1.5305   1.7666
  1.8511   1.8843   1.9844   2.0016   2.0629   2.1719   2.2597   2.3128
  2.3569   2.4530   2.5768   2.6807   2.9139   3.0021   3.6421   3.7136
  3.7301   3.7593   3.8345   3.8603   3.9763   4.0056   4.1803   4.2249
  4.3255   4.4690   5.1124   5.1165   5.1440   5.2165   5.2409   5.2592
  5.3086   5.3996   5.5023   5.5417   5.5863   5.6658   5.7144   5.7225
  5.8216   5.8618   6.9894   7.0216   7.0379   7.0898   7.0945   7.1432
  7.1856   7.2789   7.4140   7.4526   7.4534   7.5104   7.6537   7.6951
 50.4840  50.5111
 --------------------------------------------------------------
 
          Ground-State Mulliken Net Atomic Charges

     Atom                 Charge (a.u.)
  ----------------------------------------
      1 H                     0.339998
      2 O                    -0.662371
      3 H                     0.340548
      4 H                     0.329816
      5 O                    -0.729448
      6 H                     0.381458
  ----------------------------------------
  Sum of atomic charges =     0.000000

 -----------------------------------------------------------------
                    Cartesian Multipole Moments
 -----------------------------------------------------------------
    Charge (ESU x 10^10)
                 0.0000
    Dipole Moment (Debye)
         X       0.4400      Y      -0.2249      Z       3.6553
       Tot       3.6885
    Quadrupole Moments (Debye-Ang)
        XX      -8.6553     XY      -0.9316     YY     -17.8708
        XZ      -3.9544     YZ       9.3958     ZZ     -17.7907
    Octopole Moments (Debye-Ang^2)
       XXX       2.0099    XXY     -11.8358    XYY      -1.3090
       YYY     -70.8172    XXZ       9.1823    XYZ      -4.3670
       YYZ      34.2572    XZZ      11.2160    YZZ     -32.2655
       ZZZ      54.7022
    Hexadecapole Moments (Debye-Ang^3)
      XXXX     -20.2950   XXXY      -5.2142   XXYY     -27.9093
      XYYY      -8.6626   YYYY    -224.3226   XXXZ       8.6509
      XXYZ      21.0837   XYYZ       3.4102   YYYZ     123.7141
      XXZZ     -28.2440   XYZZ       9.5229   YYZZ    -105.2006
      XZZZ      -6.9802   YZZZ     116.8804   ZZZZ    -253.8336
 -----------------------------------------------------------------
 Calculating analytic gradient of the SCF energy
 Gradient of CDS energy
            1           2           3           4           5           6
    1   0.0003853  -0.0000088  -0.0004615   0.0003895  -0.0001505  -0.0001540
    2   0.0000991  -0.0002742   0.0000845  -0.0001228   0.0001928   0.0000206
    3   0.0002525   0.0000312  -0.0000398  -0.0002346  -0.0001593   0.0001500
 Gradient of SCF Energy
            1           2           3           4           5           6
    1   0.0087027   0.0032115  -0.0125288   0.0079316  -0.0104380   0.0031209
    2   0.0084408  -0.0172578   0.0078582  -0.0053366   0.0081679  -0.0018725
    3   0.0109498  -0.0163012   0.0042089   0.0016808  -0.0052919   0.0047535
 Max gradient component =       1.726E-02
 RMS gradient           =       8.853E-03
 Computing fast CPCM-SWIG gradient
 Updating gradient with PCM contributions...
 -- total gradient after adding PCM contribution --
---------------------------------------------------
  Atom         X              Y              Z     
---------------------------------------------------
   1      -0.000308      -0.000233      -0.000477
   2       0.000371       0.000323       0.000350
   3      -0.000093      -0.000015       0.000084
   4       0.000136       0.000060      -0.000008
   5      -0.000217       0.000006      -0.000097
   6       0.000111      -0.000141       0.000147
---------------------------------------------------
 Number of fixed atoms: 0
 Gradient time:  CPU 16.30 s  wall 1.08 s
 ----------------------------------------------------------------
             Standard Nuclear Orientation (Angstroms)
    I     Atom           X                Y                Z
 ----------------------------------------------------------------
    1      H       0.0174884129     1.2400110609     1.0108770123
    2      O      -0.5463847016     0.8562167925     0.3312910626
    3      H      -1.4226274008     1.2156887062     0.5133076320
    4      H       1.1083635998     1.3866437026    -2.4131704394
    5      O       0.2750010745     1.8180293627    -2.2010101898
    6      H       0.0297357151     1.4715295750    -1.3244832777
 ----------------------------------------------------------------
 Nuclear Repulsion Energy =          37.09834858 hartrees
 There are       10 alpha and       10 beta electrons
 Discretize the solute cavity surface with Lebedev spheres
	Using 110 Lebedev grid points for each H atom
	Using 194 Lebedev grid points for other atoms
	Atomic van der Waals radii will be scaled by 1.20
 Remove points where switching function is < 1.0e-08
 Keep 541 surface tesserae and discard 287 interior tesserae
 Molecular Surface Area = 65.639 Angst**2

                       Distance Matrix (Angstroms)
             H (  1)   O (  2)   H (  3)   H (  4)   O (  5)
   O (  2)  0.962854
   H (  3)  1.523844  0.964444
   H (  4)  3.596611  3.248325  3.872908
   O (  5)  3.273628  2.830602  3.257649  0.962080
   H (  6)  2.346840  1.857986  2.356329  1.534889  0.973918
 
 Requested basis set is 6-311++G(2df,2p)
 There are 40 shells and 108 basis functions
 A cutoff of  1.0D-12 yielded    784 shell pairs
 There are      5775 function pairs (      6939 Cartesian)
 Smallest overlap matrix eigenvalue = 9.04E-04
 Guess MOs from SCF MO coefficient file

 -----------------------------------------------------------------------
  General SCF calculation program by
  Eric Jon Sundstrom, Paul Horn, Yuezhi Mao, Dmitri Zuev, Alec White,
  David Stuck, Shaama M.S., Shane Yost, Joonho Lee, David Small,
  Daniel Levine, Susi Lehtola, Hugh Burton, Evgeny Epifanovsky,
  Bang C. Huynh
 -----------------------------------------------------------------------
 Exchange:     0.1500 Hartree-Fock + 1.0000 wB97M-V + LR-HF
 Correlation:  1.0000 wB97M-V
 Using SG-2 standard quadrature grid
 Nonlocal Correlation:  VV10 with C = 0.0100 and b = 6.00 and scale = 1.00000
 Grid used for NLC:  SG-1 standard quadrature
 
 Citation of the SMD model:
 Marenich, A.V.; Cramer, C.J.; Truhlar, D.G.
 J. Phys. Chem. B 2009, 113, 6378-6396.
 iSolventCode=           1
 Solvent: water                                                           
 
 vradii
            1           2           3           4           5           6
    1   1.2000000   1.5200000   1.2000000   1.2000000   1.5200000   1.2000000
 -------------------------------------------------------
 OpenMP BLAS3 based DFT computing Module                
 Release: version 1.0, May 2013, Q-Chem Inc. Pittsburgh 
 -------------------------------------------------------
 A restricted SCF calculation will be
 performed using Roothaan-Hall, DIIS, GDM
 SCF converges when RMS gradient is below 1.0e-07
 ---------------------------------------
  Cycle       Energy         DIIS error
 ---------------------------------------
    1    -152.8587033373      1.26e-03  Roothaan Step
 ---------------------------------------
  Cycle       Energy         DIIS error
 ---------------------------------------
    1    -152.8845261241      1.35e-03  
    2    -152.8872575100      1.04e-03  Done DIIS. Switching to GDM
 ---------------------------------------
  Cycle       Energy        RMS Gradient
 ---------------------------------------
    1    -152.8872575100      1.36e-02   Normal BFGS step
    2    -152.8873620166      1.10e-02   Normal BFGS step
    3    -152.8883313949      1.04e-03   Normal BFGS step
    4    -152.8883403863      4.29e-04   Normal BFGS step
    5    -152.8883414444      1.29e-04   Normal BFGS step
    6    -152.8883416570      6.54e-05   Normal BFGS step
    7    -152.8883416929      1.01e-05   Normal BFGS step
    8    -152.8883416935      1.11e-06   Normal BFGS step
    9    -152.8883416935      2.60e-07   Normal BFGS step
   10    -152.8883416935      4.65e-08  Convergence criterion met
 ---------------------------------------
 SCF time:   CPU 85.18s  wall 5.00s 
(3)  G-ENP(liq) elect-nuc-pol free energy of system     -152.888341694 a.u.
(4)  G-CDS(liq) cavity-dispersion-solvent structure 
     free energy                                                2.4261 kcal/mol
(6)  G-S(liq) free energy of system                     -152.884475386 a.u.
 SCF   energy in the final basis set =     -152.8844753860
 Total energy in the final basis set =     -152.8844753860
 
 --------------------------------------------------------------
 
                    Orbital Energies (a.u.)
 --------------------------------------------------------------
 
 Alpha MOs
 -- Occupied --
-19.3412 -19.3213  -1.1486  -1.1260  -0.6408  -0.6294  -0.5236  -0.4934
 -0.4365  -0.4228
 -- Virtual --
  0.0260   0.0520   0.0647   0.0931   0.1795   0.1970   0.2175   0.2264
  0.2327   0.2424   0.2612   0.2742   0.2777   0.3116   0.3596   0.4076
  0.5833   0.6080   0.6421   0.6599   0.6792   0.7290   0.8112   0.8182
  0.8642   0.9307   0.9563   0.9821   1.0007   1.0458   1.1029   1.1283
  1.1919   1.2177   1.3221   1.4095   1.4701   1.4924   1.5303   1.7663
  1.8508   1.8843   1.9843   2.0016   2.0629   2.1721   2.2601   2.3129
  2.3570   2.4529   2.5767   2.6805   2.9133   3.0021   3.6420   3.7136
  3.7300   3.7594   3.8345   3.8601   3.9759   4.0052   4.1792   4.2248
  4.3244   4.4689   5.1124   5.1167   5.1440   5.2164   5.2410   5.2592
  5.3083   5.3996   5.5021   5.5413   5.5863   5.6646   5.7134   5.7225
  5.8195   5.8618   6.9894   7.0216   7.0375   7.0890   7.0944   7.1431
  7.1855   7.2785   7.4139   7.4497   7.4527   7.5102   7.6543   7.6951
 50.4838  50.5105
 --------------------------------------------------------------
 
          Ground-State Mulliken Net Atomic Charges

     Atom                 Charge (a.u.)
  ----------------------------------------
      1 H                     0.340005
      2 O                    -0.662650
      3 H                     0.340818
      4 H                     0.329807
      5 O                    -0.729516
      6 H                     0.381536
  ----------------------------------------
  Sum of atomic charges =     0.000000

 -----------------------------------------------------------------
                    Cartesian Multipole Moments
 -----------------------------------------------------------------
    Charge (ESU x 10^10)
                -0.0000
    Dipole Moment (Debye)
         X       0.4364      Y      -0.2256      Z       3.6571
       Tot       3.6900
    Quadrupole Moments (Debye-Ang)
        XX      -8.6533     XY      -0.9345     YY     -17.8734
        XZ      -3.9551     YZ       9.3985     ZZ     -17.7878
    Octopole Moments (Debye-Ang^2)
       XXX       1.9925    XXY     -11.8347    XYY      -1.3171
       YYY     -70.8241    XXZ       9.1826    XYZ      -4.3673
       YYZ      34.2601    XZZ      11.2098    YZZ     -32.2626
       ZZZ      54.7095
    Hexadecapole Moments (Debye-Ang^3)
      XXXX     -20.2637   XXXY      -5.2282   XXYY     -27.9037
      XYYY      -8.6780   YYYY    -224.3396   XXXZ       8.6454
      XXYZ      21.0835   XYYZ       3.4087   YYYZ     123.7169
      XXZZ     -28.2396   XYZZ       9.5179   YYZZ    -105.2001
      XZZZ      -6.9841   YZZZ     116.8918   ZZZZ    -253.8387
 -----------------------------------------------------------------
 Calculating analytic gradient of the SCF energy
 Gradient of CDS energy
            1           2           3           4           5           6
[...]
   15  -0.1995384  -0.1231387   0.4429892   0.0770176   0.1633226  -0.3738528
   16  -0.0585399  -0.0097444   0.0770176   0.0747006   0.0221138  -0.1094968
   17  -0.0314356  -0.0802353   0.1633226   0.0221138   0.0780295  -0.1401368
   18   0.1140687   0.1382113  -0.3738528  -0.1094968  -0.1401368   0.3771880
 ----------------------------------------------------------------
             Standard Nuclear Orientation (Angstroms)
    I     Atom           X                Y                Z
 ----------------------------------------------------------------
    1      H       0.0174884129     1.2400110609     1.0108770123
    2      O      -0.5473847016     0.8562167925     0.3312910626
    3      H      -1.4226274008     1.2156887062     0.5133076320
    4      H       1.1083635998     1.3866437026    -2.4131704394
    5      O       0.2750010745     1.8180293627    -2.2010101898
    6      H       0.0297357151     1.4715295750    -1.3244832777
 ----------------------------------------------------------------
 Nuclear Repulsion Energy =          37.09800103 hartrees
 There are       10 alpha and       10 beta electrons
 old dipole drv.
            1           2           3           4           5           6
    1   0.3896817  -0.0078978  -0.0130997  -0.7412142  -0.0652752   0.0534408
    2   0.0045135   0.3819742  -0.0643558  -0.0655642  -0.7433763   0.1892261
    3   0.0079212  -0.0731862   0.3383362   0.0562039   0.1945913  -0.8740115
            7           8           9          10          11          12
    1   0.3657571   0.0499800   0.0378698   0.3194897   0.0923609  -0.0228274
    2   0.0360945   0.3818544  -0.0529034   0.0744753   0.3620172   0.0472904
    3   0.0168604  -0.0524140   0.3593607   0.0078437   0.0266592   0.3834522
           13          14          15          16          17          18
    1  -0.7655945  -0.1548108   0.1091859   0.4318802   0.0856431  -0.1645696
    2  -0.1432961  -0.7887016  -0.0270982   0.0937770   0.4062317  -0.0921594
    3   0.0899957  -0.0142298  -0.9912718  -0.1788250  -0.0814205   0.7841346
 New transposed dipole drv.
            1           2           3
    1   0.3896817   0.0045135   0.0079212
    2  -0.0078978   0.3819742  -0.0731862
    3  -0.0130997  -0.0643558   0.3383362
    4  -0.7412142  -0.0655642   0.0562039
    5  -0.0652752  -0.7433763   0.1945913
    6   0.0534408   0.1892261  -0.8740115
    7   0.3657571   0.0360945   0.0168604
    8   0.0499800   0.3818544  -0.0524140
    9   0.0378698  -0.0529034   0.3593607
   10   0.3194897   0.0744753   0.0078437
   11   0.0923609   0.3620172   0.0266592
   12  -0.0228274   0.0472904   0.3834522
   13  -0.7655945  -0.1432961   0.0899957
   14  -0.1548108  -0.7887016  -0.0142298
   15   0.1091859  -0.0270982  -0.9912718
   16   0.4318802   0.0937770  -0.1788250
   17   0.0856431   0.4062317  -0.0814205
   18  -0.1645696  -0.0921594   0.7841346
FINAL TENSOR RESULT:
Order 2, Length 18
    Atom      X          Y          Z
     1 Order 1, Length 18
    Atom      X          Y          Z
     1    2.249442333650232e-01   1.078670500398822e-01   2.104190033213668e-01
     2   -1.999685987377238e-01  -8.968735877185036e-02  -1.775662142928513e-01
     3   -2.563512588464392e-02  -1.869979310141634e-02  -3.257603689716771e-02
     4    1.603775144608503e-06  -4.933532492370804e-05   8.071415181728662e-05
     5   -7.000945149496611e-04  -6.166261928805046e-04   1.251126107377518e-03
     6    1.357998006261103e-03   1.186035940832669e-03  -1.608631960473059e-03

Order 1, Length 18
    Atom      X          Y          Z
     1    1.078670500398822e-01   8.947678094755059e-02   1.496095540261571e-01
     2   -1.215764812254155e-01  -9.460655730317176e-02  -1.611032972314246e-01
     3    1.324823556771858e-02   4.999605604641554e-03   1.108893404135282e-02
     4   -5.016576764627926e-05  -5.139646681205570e-05   5.936350404178909e-05
     5   -4.878338302703110e-04  -1.931824767719110e-04   4.895972378512082e-04
     6    9.992040519335049e-04   3.747807714413082e-04  -1.441530032294644e-04

Order 1, Length 18
    Atom      X          Y          Z
     1    2.104190033213668e-01   1.496095540261571e-01   2.655604304174949e-01
     2   -2.185219478213959e-01  -1.498566811196241e-01  -2.678517953444761e-01
     3    8.851893012553730e-03   7.394075839620471e-04   3.981002656339140e-03
     4    4.239441065448813e-05   5.219390148743318e-05  -6.413853548492608e-05
     5    5.109221699198723e-04   4.048139253203189e-04   1.114265789453791e-05
     6   -1.302251353810339e-03  -9.492794234645266e-04  -1.636612545171170e-03


     2 Order 1, Length 18
    Atom      X          Y          Z
     1   -1.999685987377238e-01  -1.215764812254155e-01  -2.185219478213959e-01
     2    6.319053460864137e-01  -6.291031513618078e-02   1.160448327057486e-01
     3   -4.284543058660382e-01   1.859931398489124e-01   1.005637808636498e-01
     4    3.941189443167627e-04   2.635811354014354e-05  -2.072963768512502e-04
     5    5.270062434162795e-04  -1.948340562874277e-03   6.270479912789128e-03
     6   -4.403584449672072e-03   4.156526821182631e-04  -4.149838162144865e-03

Order 1, Length 18
    Atom      X          Y          Z
     1   -8.968735877185036e-02  -9.460655730317176e-02  -1.498566811196241e-01
     2   -6.291031513618078e-02   1.832649747006827e-01   2.068461587941898e-01
     3    1.536607993590824e-01  -8.538043242797902e-02  -5.972656087716161e-02
     4    1.544408273213596e-04  -3.425240429304189e-04   9.089932987496312e-04
     5   -2.265112000846701e-03   1.196195039542185e-03   4.172358660132686e-03
     6    1.047522156912155e-03  -4.131716642012466e-03  -2.344283578256689e-03

Order 1, Length 18
    Atom      X          Y          Z
     1   -1.775662142928513e-01  -1.611032972314246e-01  -2.678517953444761e-01
     2    1.160448327057486e-01   2.068461587941898e-01   3.257294296161279e-01
     3    5.939471334805327e-02  -5.001073401751312e-02  -4.835191588674420e-02
     4   -3.333017255572175e-04   1.006921345500336e-03  -1.326452224897589e-03
     5    7.011247090168413e-03   4.145742384706329e-03  -1.384552102064793e-02
     6   -4.551297962822421e-03  -8.848199670279391e-04   5.646210209307032e-03


     3 Order 1, Length 18
    Atom      X          Y          Z
     1   -2.563512588464392e-02   1.324823556771858e-02   8.851893012553730e-03
     2   -4.284543058660382e-01   1.536607993590824e-01   5.939471334805327e-02
     3    4.548183880349739e-01  -1.667465958596702e-01  -6.929470048109601e-02
     4   -2.415780840773929e-05   3.404960636686425e-05  -6.317018962212457e-05
     5    4.288368654936812e-04   2.072299720155726e-04  -8.551690981983510e-04
     6   -1.133636197126388e-03  -4.037075010786559e-04   1.966449891215338e-03

Order 1, Length 18
    Atom      X          Y          Z
     1   -1.869979310141634e-02   4.999605604641554e-03   7.394075839620471e-04
     2    1.859931398489124e-01  -8.538043242797902e-02  -5.001073401751312e-02
     3   -1.667465958596702e-01   8.034030381501865e-02   4.928289924128820e-02
     4    5.355355091131228e-06   1.103562230618385e-05  -8.853628655503521e-05
     5    1.335500708884500e-04  -2.976129922349758e-04   8.280906258401554e-04
     6   -6.856412756821532e-04   3.271265761184047e-04  -7.511210941711342e-04

Order 1, Length 18
    Atom      X          Y          Z
     1   -3.257603689716771e-02   1.108893404135282e-02   3.981002656339140e-03
     2    1.005637808636498e-01  -5.972656087716161e-02  -4.835191588674420e-02
     3   -6.929470048109601e-02   4.928289924128820e-02   4.444296494378555e-02
     4   -7.338332340602686e-05  -6.575294927247160e-05   1.576765334525867e-04
     5   -1.986700724360707e-04   8.787462757548309e-04  -1.356747996077835e-03
     6    1.579018743474703e-03  -1.458241978796202e-03   1.127043988122434e-03


     4 Order 1, Length 18
    Atom      X          Y          Z
     1    1.603775144608503e-06  -5.016576764627926e-05   4.239441065448813e-05
     2    3.941189443167627e-04   1.544408273213596e-04  -3.333017255572175e-04
     3   -2.415780840773929e-05   5.355355091131228e-06  -7.338332340602686e-05
     4    4.031137162161150e-01  -2.018851602034751e-01  -1.147101749324085e-01
     5   -3.915037902771402e-01   1.936517101050512e-01   1.158543605139850e-01
     6   -1.198148997521160e-02   8.123822368480364e-03  -7.799067133485231e-04

Order 1, Length 18
    Atom      X          Y          Z
     1   -4.933532492370804e-05  -5.139646681205570e-05   5.219390148743318e-05
     2    2.635811354014354e-05  -3.425240429304189e-04   1.006921345500336e-03
     3    3.404960636686425e-05   1.103562230618385e-05  -6.575294927247160e-05
     4   -2.018851602034751e-01   1.117069522695271e-01   3.951545562878767e-02
     5    2.156046396388475e-01  -1.169597081715915e-01  -4.567391225222568e-02
     6   -1.373053588748225e-02   5.635683857762975e-03   5.165097903791376e-03

Order 1, Length 18
    Atom      X          Y          Z
     1    8.071415181728662e-05   5.936350404178909e-05  -6.413853548492608e-05
     2   -2.072963768512502e-04   9.089932987496312e-04  -1.326452224897589e-03
     3   -6.317018962212457e-05  -8.853628655503521e-05   1.576765334525867e-04
     4   -1.147101749324085e-01   3.951545562878767e-02   6.365004855710614e-02
     5    7.814623242800281e-02  -2.050189636396055e-02  -5.394525780712546e-02
     6    3.675370619330685e-02  -1.989341180884709e-02  -8.471864817617001e-03


     5 Order 1, Length 18
    Atom      X          Y          Z
     1   -7.000945149496611e-04  -4.878338302703110e-04   5.109221699198723e-04
     2    5.270062434162795e-04  -2.265112000846701e-03   7.011247090168413e-03
     3    4.288368654936812e-04   1.335500708884500e-04  -1.986700724360707e-04
     4   -3.915037902771402e-01   2.156046396388475e-01   7.814623242800281e-02
     5    4.497879396955915e-01  -1.815496427089528e-01  -1.995383977966571e-01
     6   -5.853990602590094e-02  -3.143557972907805e-02   1.140686632804631e-01

Order 1, Length 18
    Atom      X          Y          Z
     1   -6.166261928805046e-04  -1.931824767719110e-04   4.048139253203189e-04
     2   -1.948340562874277e-03   1.196195039542185e-03   4.145742384706329e-03
     3    2.072299720155726e-04  -2.976129922349758e-04   8.787462757548309e-04
     4    1.936517101050512e-01  -1.169597081715915e-01  -2.050189636396055e-02
     5   -1.815496427089528e-01   1.964895840625402e-01  -1.231386922942595e-01
     6   -9.744350174428422e-03  -8.023534508823579e-02   1.382112656380612e-01

Order 1, Length 18
    Atom      X          Y          Z
     1    1.251126107377518e-03   4.895972378512082e-04   1.114265789453791e-05
     2    6.270479912789128e-03   4.172358660132686e-03  -1.384552102064793e-02
     3   -8.551690981983510e-04   8.280906258401554e-04  -1.356747996077835e-03
     4    1.158543605139850e-01  -4.567391225222568e-02  -5.394525780712546e-02
     5   -1.995383977966571e-01  -1.231386922942595e-01   4.429891612950480e-01
     6    7.701760496396073e-02   1.633225933985274e-01  -3.738527774830175e-01


     6 Order 1, Length 18
    Atom      X          Y          Z
     1    1.357998006261103e-03   9.992040519335049e-04  -1.302251353810339e-03
     2   -4.403584449672072e-03   1.047522156912155e-03  -4.551297962822421e-03
     3   -1.133636197126388e-03  -6.856412756821532e-04   1.579018743474703e-03
     4   -1.198148997521160e-02  -1.373053588748225e-02   3.675370619330685e-02
     5   -5.853990602590094e-02  -9.744350174428422e-03   7.701760496396073e-02
     6    7.470062840504621e-02   2.211377953220079e-02  -1.094967539406881e-01

Order 1, Length 18
    Atom      X          Y          Z
     1    1.186035940832669e-03   3.747807714413082e-04  -9.492794234645266e-04
     2    4.156526821182631e-04  -4.131716642012466e-03  -8.848199670279391e-04
     3   -4.037075010786559e-04   3.271265761184047e-04  -1.458241978796202e-03
     4    8.123822368480364e-03   5.635683857762975e-03  -1.989341180884709e-02
     5   -3.143557972907805e-02  -8.023534508823579e-02   1.633225933985274e-01
     6    2.211377953220079e-02   7.802950049756509e-02  -1.401368131533747e-01

Order 1, Length 18
    Atom      X          Y          Z
     1   -1.608631960473059e-03  -1.441530032294644e-04  -1.636612545171170e-03
     2   -4.149838162144865e-03  -2.344283578256689e-03   5.646210209307032e-03
     3    1.966449891215338e-03  -7.511210941711342e-04   1.127043988122434e-03
     4   -7.799067133485231e-04   5.165097903791376e-03  -8.471864817617001e-03
     5    1.140686632804631e-01   1.382112656380612e-01  -3.738527774830175e-01
     6   -1.094967539406881e-01  -1.401368131533747e-01   3.771879804115467e-01




 # Finishing finite difference calculation for IDERIV #
 ######################################################
 ######################################################
 Requested basis set is 6-311++G(2df,2p)
 There are 40 shells and 108 basis functions
 **********************************************************************
 **                                                                  **
 **                       VIBRATIONAL ANALYSIS                       **
 **                       --------------------                       **
 **                                                                  **
 **        VIBRATIONAL FREQUENCIES (CM**-1) AND NORMAL MODES         **
 **     FORCE CONSTANTS (mDYN/ANGSTROM) AND REDUCED MASSES (AMU)     **
 **                  INFRARED INTENSITIES (KM/MOL)                   **
 **                                                                  **
 **********************************************************************
 

 Mode:                 1                      2                      3
 Frequency:        44.42                 184.45                 195.78
 Force Cnst:      0.0012                 0.0215                 0.1407
 Red. Mass:       1.0636                 1.0727                 6.2298
 IR Active:          YES                    YES                    YES
 IR Intens:      280.689                260.610                 26.505
 Raman Active:       YES                    YES                    YES
               X      Y      Z        X      Y      Z        X      Y      Z
 H          0.205 -0.352  0.008    0.151 -0.168 -0.041   -0.175 -0.018  0.351
 O         -0.022  0.002 -0.003   -0.018  0.040 -0.016   -0.125 -0.148  0.385
 H          0.155  0.374  0.114   -0.105 -0.536  0.697   -0.093  0.051  0.145
 H          0.405  0.613  0.336    0.046 -0.107  0.260    0.098  0.146 -0.488
 O         -0.027 -0.042 -0.027    0.026  0.002 -0.038    0.122  0.132 -0.362
 H          0.024  0.006  0.007   -0.229  0.151 -0.051    0.231  0.073 -0.371
 TransDip   0.379  0.308  0.222   -0.069 -0.309  0.409    0.038  0.072 -0.143

 Mode:                 4                      5                      6
 Frequency:       232.28                 366.93                 569.80
 Force Cnst:      0.0347                 0.0850                 0.1989
 Red. Mass:       1.0921                 1.0710                 1.0396
 IR Active:          YES                    YES                    YES
 IR Intens:      155.429                112.552                220.206
 Raman Active:       YES                    YES                    YES
               X      Y      Z        X      Y      Z        X      Y      Z
 H         -0.335 -0.574  0.638   -0.106 -0.051  0.144    0.077  0.120 -0.168
 O          0.032  0.059 -0.022    0.033 -0.030  0.016   -0.021 -0.023 -0.007
 H         -0.090 -0.193 -0.117    0.054  0.191 -0.314    0.001 -0.010  0.080
 H         -0.038  0.013 -0.151   -0.027 -0.342  0.569   -0.019 -0.007 -0.064
 O         -0.017 -0.017 -0.007   -0.001  0.015 -0.042   -0.015 -0.027 -0.010
 H          0.211  0.093  0.099   -0.425  0.448  0.015    0.517  0.700  0.426
 TransDip  -0.115 -0.309  0.225   -0.245  0.113  0.206    0.268  0.370  0.131

 Mode:                 7                      8                      9
 Frequency:      1591.37                1603.57                3589.26
 Force Cnst:      1.6140                 1.6291                 8.0557
 Red. Mass:       1.0817                 1.0753                 1.0613
 IR Active:          YES                    YES                    YES
 IR Intens:      146.436                101.755                744.884
 Raman Active:       YES                    YES                    YES
               X      Y      Z        X      Y      Z        X      Y      Z
 H          0.535 -0.320 -0.264   -0.154  0.098  0.070    0.021  0.014  0.027
 O         -0.019  0.041  0.050    0.003 -0.010 -0.016    0.000 -0.002 -0.001
 H         -0.251 -0.338 -0.527    0.071  0.090  0.173   -0.033  0.013  0.009
 H         -0.007 -0.093  0.163   -0.020 -0.303  0.544    0.121 -0.049 -0.055
 O         -0.010  0.013 -0.011   -0.035  0.043 -0.033    0.010  0.025 -0.053
 H          0.182 -0.113  0.008    0.603 -0.403  0.004   -0.269 -0.338  0.887
 TransDip   0.151 -0.286 -0.213    0.162 -0.151  0.236   -0.269 -0.259  0.791

 Mode:                10                     11                     12
 Frequency:      3807.80                3868.47                3886.85
 Force Cnst:      8.9356                 9.4217                 9.6291
 Red. Mass:       1.0460                 1.0686                 1.0818
 IR Active:          YES                    YES                    YES
 IR Intens:       50.796                132.230                174.726
 Raman Active:       YES                    YES                    YES
               X      Y      Z        X      Y      Z        X      Y      Z
 H         -0.439 -0.259 -0.478    0.012  0.007  0.013    0.417  0.283  0.502
 O         -0.014  0.032  0.037    0.000 -0.001 -0.001   -0.066 -0.001 -0.023
 H          0.659 -0.245 -0.105   -0.017  0.006  0.002    0.635 -0.261 -0.133
 H          0.028 -0.013 -0.009    0.858 -0.432 -0.239   -0.001  0.000  0.000
 O         -0.001  0.002 -0.002   -0.055  0.024  0.022    0.000 -0.000 -0.000
 H         -0.014 -0.015  0.043    0.010  0.058 -0.111   -0.000  0.000 -0.000
 TransDip   0.064 -0.162 -0.148    0.296 -0.074 -0.206    0.400  0.009  0.140

 STANDARD THERMODYNAMIC QUANTITIES AT   298.15 K  AND     1.00 ATM

   This Molecule has  0 Imaginary Frequencies
   Zero point vibrational energy:       28.507 kcal/mol

   Atom    1 Element H  Has Mass    1.00783
   Atom    2 Element O  Has Mass   15.99491
   Atom    3 Element H  Has Mass    1.00783
   Atom    4 Element H  Has Mass    1.00783
   Atom    5 Element O  Has Mass   15.99491
   Atom    6 Element H  Has Mass    1.00783
   Molecular Mass:    36.021140 amu
   Principal axes and moments of inertia in amu*Bohr^2:
                             1           2           3
    Eigenvalues --        8.53580   263.71165   267.93691
          X              -0.31199     0.92523     0.21590
          Y              -0.30425    -0.31257     0.89985
          Z               0.90005     0.21506     0.37902
   Rotational Symmetry Number is   1
   The Molecule is an Asymmetric Top
   Translational Enthalpy:        0.889 kcal/mol
   Rotational Enthalpy:           0.889 kcal/mol
   Vibrational Enthalpy:         30.414 kcal/mol
   gas constant (RT):             0.592 kcal/mol
   Translational Entropy:        36.674  cal/mol.K
   Rotational Entropy:           21.027  cal/mol.K
   Vibrational Entropy:          12.981  cal/mol.K

   Total Enthalpy:               32.783 kcal/mol
   Total Entropy:                70.683  cal/mol.K
 Total job time:  253.88s(wall), 3916.76s(cpu) 
 Thu Jun 27 01:44:50 2024

        *************************************************************
        *                                                           *
        *  Thank you very much for using Q-Chem.  Have a nice day.  *
        *                                                           *
        *************************************************************


