
Running Job 1 of 1 Q_in.in
qchem Q_in.in_3226027.0 /scratch/ari.fischer/qChem2164568.hpc-mn1/qchem3226027/ 0
/usr/local/qchem-5.4.1/exe/qcprog.exe_s Q_in.in_3226027.0 /scratch/ari.fischer/qChem2164568.hpc-mn1/qchem3226027/
                  Welcome to Q-Chem
     A Quantum Leap Into The Future Of Chemistry


 Q-Chem 5.4, Q-Chem, Inc., Pleasanton, CA (2021)

 License issued to: Nanyang Technological University (site)

 E. Epifanovsky,  A. T. B. Gilbert,  Xintian Feng,  Joonho Lee,  Yuezhi Mao,  
 N. Mardirossian,  P. Pokhilko,  A. White,  M. Wormit,  M. P. Coons,  
 A. L. Dempwolff,  Zhengting Gan,  D. Hait,  P. R. Horn,  L. D. Jacobson,  
 I. Kaliman,  J. Kussmann,  A. W. Lange,  Ka Un Lao,  D. S. Levine,  Jie Liu,  
 S. C. McKenzie,  A. F. Morrison,  K. Nanda,  F. Plasser,  D. R. Rehn,  
 M. L. Vidal,  Zhi-Qiang You,  Ying Zhu,  B. Alam,  B. Albrecht,  
 A. Aldossary,  E. Alguire,  J. H. Andersen,  D. Barton,  K. Begam,  A. Behn,  
 Y. A. Bernard,  E. J. Berquist,  H. Burton,  A. Carreras,  K. Carter-Fenk,  
 Romit Chakraborty,  A. D. Chien,  K. D. Closser,  V. Cofer-Shabica,  
 S. Dasgupta,  Jia Deng,  M. de Wergifosse,  M. Diedenhofen,  Hainam Do,  
 S. Ehlert,  Po-Tung Fang,  S. Fatehi,  Qingguo Feng,  T. Friedhoff,  
 J. Gayvert,  Qinghui Ge,  G. Gidofalvi,  M. Goldey,  J. Gomes,  
 C. Gonzalez-Espinoza,  S. Gulania,  A. Gunina,  M. W. D. Hanson-Heine,  
 P. H. P. Harbach,  A. W. Hauser,  M. F. Herbst,  M. Hernandez Vera,  
 M. Hodecker,  Z. C. Holden,  S. Houck,  Xunkun Huang,  Kerwin Hui,  
 B. C. Huynh,  M. Ivanov,  Hyunjun Ji,  Hanjie Jiang,  B. Kaduk,  S. Kaehler,  
 K. Khistyaev,  Jaehoon Kim,  P. Klunzinger,  Z. Koczor-Benda,  
 Joong Hoon Koh,  D. Kosenkov,  L. Koulias,  T. Kowalczyk,  C. M. Krauter,  
 K. Kue,  A. Kunitsa,  T. Kus,  A. Landau,  K. V. Lawler,  D. Lefrancois,  
 S. Lehtola,  Rain Li,  Yi-Pei Li,  Jiashu Liang,  M. Liebenthal,  
 Hung-Hsuan Lin,  You-Sheng Lin,  Fenglai Liu,  Kuan-Yu Liu,  
 M. Loipersberger,  A. Luenser,  A. Manjanath,  P. Manohar,  E. Mansoor,  
 S. F. Manzer,  Shan-Ping Mao,  A. V. Marenich,  T. Markovich,  S. Mason,  
 S. A. Maurer,  P. F. McLaughlin,  M. F. S. J. Menger,  J.-M. Mewes,  
 S. A. Mewes,  P. Morgante,  J. W. Mullinax,  K. J. Oosterbaan,  G. Paran,  
 Alexander C. Paul,  Suranjan K. Paul,  F. Pavosevic,  Zheng Pei,  S. Prager,  
 E. I. Proynov,  E. Ramos,  B. Rana,  A. E. Rask,  A. Rettig,  R. M. Richard,  
 F. Rob,  E. Rossomme,  T. Scheele,  M. Scheurer,  M. Schneider,  
 N. Sergueev,  S. M. Sharada,  W. Skomorowski,  D. W. Small,  C. J. Stein,  
 Yu-Chuan Su,  E. J. Sundstrom,  Zhen Tao,  J. Thirman,  T. Tsuchimochi,  
 N. M. Tubman,  S. P. Veccham,  O. Vydrov,  J. Wenzel,  J. Witte,  A. Yamada,  
 Kun Yao,  S. Yeganeh,  S. R. Yost,  A. Zech,  Igor Ying Zhang,  Xing Zhang,  
 Yu Zhang,  D. Zuev,  A. Aspuru-Guzik,  A. T. Bell,  N. A. Besley,  
 K. B. Bravaya,  B. R. Brooks,  D. Casanova,  Jeng-Da Chai,  S. Coriani,  
 C. J. Cramer,  A. E. DePrince, III,  R. A. DiStasio Jr.,  A. Dreuw,  
 B. D. Dunietz,  T. R. Furlani,  W. A. Goddard III,  S. Grimme,  
 S. Hammes-Schiffer,  T. Head-Gordon,  W. J. Hehre,  Chao-Ping Hsu,  
 T.-C. Jagau,  Yousung Jung,  A. Klamt,  Jing Kong,  D. S. Lambrecht,  
 WanZhen Liang,  N. J. Mayhall,  C. W. McCurdy,  J. B. Neaton,  T. Neudecker,  
 C. Ochsenfeld,  J. A. Parkhill,  R. Peverati,  V. A. Rassolov,  Yihan Shao,  
 L. V. Slipchenko,  R. P. Steele,  J. E. Subotnik,  A. J. W. Thom,  
 A. Tkatchenko,  D. G. Truhlar,  T. Van Voorhis,  T. A. Wesolowski,  
 K. B. Whaley,  H. L. Woodcock III,  P. M. Zimmerman,  S. Faraji,  
 P. M. W. Gill,  M. Head-Gordon,  J. M. Herbert,  A. I. Krylov

 Additional authors since Version 5.4.0: 
 Chandrima Chakravarty,  L. Cunha,  R. Kang,  Yongbin Kim,  S. Kotaru,  
 Shaozhi Li,  Xiangyuan Li,  F. Matz,  A. Molle,  V. Parravicini,  
 Haisheng Ren,  Hengyuan Shen,  Yingli Su,  Hung-Yi Tsai,  C. Utku,  
 Fang Wang,  Jeff Yang,  F. Zeller

 Contributors to earlier versions of Q-Chem not listed above: 
 R. D. Adamson,  B. Austin,  R. Baer,  J. Baker,  G. J. O. Beran,  
 K. Brandhorst,  S. T. Brown,  E. F. C. Byrd,  Arup K. Chakraborty,  
 G. K. L. Chan,  Chun-Min Chang,  Yunqing Chen,  C.-L. Cheng,  
 Siu Hung Chien,  D. M. Chipman,  D. L. Crittenden,  H. Dachsel,  
 R. J. Doerksen,  A. D. Dutoi,  R. G. Edgar,  J. Fosso-Tande,  
 L. Fusti-Molnar,  D. Ghosh,  A. Ghysels,  A. Golubeva-Zadorozhnaya,  
 J. Gonthier,  M. S. Gordon,  S. R. Gwaltney,  G. Hawkins,  J. E. Herr,  
 A. Heyden,  S. Hirata,  E. G. Hohenstein,  G. Kedziora,  F. J. Keil,  
 C. Kelley,  Jihan Kim,  R. A. King,  R. Z. Khaliullin,  P. P. Korambath,  
 W. Kurlancheek,  A. Laurent,  A. M. Lee,  M. S. Lee,  S. V. Levchenko,  
 Ching Yeh Lin,  D. Liotard,  E. Livshits,  R. C. Lochan,  I. Lotan,  
 L. A. Martinez-Martinez,  P. E. Maslen,  N. Nair,  D. P. O'Neill,  
 D. Neuhauser,  E. Neuscamman,  C. M. Oana,  R. Olivares-Amaya,  R. Olson,  
 T. M. Perrine,  B. Peters,  P. A. Pieniazek,  A. Prociuk,  Y. M. Rhee,  
 J. Ritchie,  M. A. Rohrdanz,  E. Rosta,  N. J. Russ,  H. F. Schaefer III,  
 M. W. Schmidt,  N. E. Schultz,  S. Sharma,  N. Shenvi,  C. D. Sherrill,  
 A. C. Simmonett,  A. Sodt,  T. Stein,  D. Stuck,  K. S. Thanthiriwatte,  
 V. Vanovschi,  L. Vogt,  Tao Wang,  A. Warshel,  M. A. Watson,  
 C. F. Williams,  Q. Wu,  X. Xu,  Jun Yang,  W. Zhang,  Yan Zhao

   Please cite Q-Chem as follows:
  "Software for the frontiers of quantum chemistry:
   An overview of developments in the Q-Chem 5 package"
   J. Chem. Phys. 155, 084801 (2021)
   https://doi.org/10.1063/5.0055522 (open access)

 Q-Chem 5.4.2 for Intel X86 EM64T Linux

 Parts of Q-Chem use Armadillo 9.900.5 (Nocturnal Misbehaviour).
 http://arma.sourceforge.net/

 Q-Chem begins on Mon Jun 10 15:43:09 2024  

 Host: 
0

     Scratch files written to /scratch/ari.fischer/qChem2164568.hpc-mn1/qchem3226027//
 Dec1321 |scratch|qcdevops|jenkins|workspace|build_RNUM 8249   
 Processing $rem in /usr/local/qchem-5.4.1/config/preferences:
 Processing $rem in /home/ari.fischer/.qchemrc:
 Symmetry turned off for PCM/SM12/SMD calculation

 Checking the input file for inconsistencies... 	...done.

--------------------------------------------------------------
User input:
--------------------------------------------------------------
$molecule
0 1
H    0.2690221    1.2843861    0.4337289
O   -0.5543549    0.7519356    0.2962552
H   -1.2903653    1.4107535    0.3670688
H    1.1420022    1.4890243   -1.8638129
O    0.2018792    1.7634836   -2.0101486
H   -0.3076066    1.2885361   -1.3062796
$end

$rem
BASIS = 6-311++G(2df,2p)
GUI = 2
JOB_TYPE = Optimization
METHOD = wB97M-V
SCF_ALGORITHM = DIIS_GDM
MAX_SCF_CYCLES = 400
GEOM_OPT_MAX_CYCLES = 150
SCF_CONVERGENCE = 7
THRESH = 12
Solvent_method = SMD
$end
--------------------------------------------------------------
 ----------------------------------------------------------------
             Standard Nuclear Orientation (Angstroms)
    I     Atom           X                Y                Z
 ----------------------------------------------------------------
    1      H       0.2690221000     1.2843861000     0.4337289000
    2      O      -0.5543549000     0.7519356000     0.2962552000
    3      H      -1.2903653000     1.4107535000     0.3670688000
    4      H       1.1420022000     1.4890243000    -1.8638129000
    5      O       0.2018792000     1.7634836000    -2.0101486000
    6      H      -0.3076066000     1.2885361000    -1.3062796000
 ----------------------------------------------------------------
 Nuclear Repulsion Energy =          38.75479869 hartrees
 There are       10 alpha and       10 beta electrons
 Requested basis set is 6-311++G(2df,2p)
 There are 40 shells and 108 basis functions

 Total QAlloc Memory Limit 288000 MB
 Mega-Array Size       188 MB
 MEM_STATIC part       192 MB
 
 Citation of the SMD model:
 Marenich, A.V.; Cramer, C.J.; Truhlar, D.G.
 J. Phys. Chem. B 2009, 113, 6378-6396.
 iSolventCode=           1
 Solvent: water                                                           
 
 vradii
            1           2           3           4           5           6
    1   1.2000000   1.5200000   1.2000000   1.2000000   1.5200000   1.2000000
 Changing PCM_VDW_RADII to SMD_RADIUS
 Discretize the solute cavity surface with Lebedev spheres
	Using 110 Lebedev grid points for each H atom
	Using 194 Lebedev grid points for other atoms
	Atomic van der Waals radii will be scaled by 1.20
 Remove points where switching function is < 1.0e-08
 Keep 540 surface tesserae and discard 288 interior tesserae
 Molecular Surface Area = 64.389 Angst**2
 A cutoff of  1.0D-12 yielded    810 shell pairs
 There are      5959 function pairs (      7152 Cartesian)
 Smallest overlap matrix eigenvalue = 9.91E-04

 Scale SEOQF with 1.000000e-01/1.000000e-01/1.000000e-01

 Standard Electronic Orientation quadrupole field applied
 Nucleus-field energy     =    -0.0000000013 hartrees
 Guess from superposition of atomic densities
 Warning:  Energy on first SCF cycle will be non-variational
 SAD guess density has 20.000000 electrons

 -----------------------------------------------------------------------
  General SCF calculation program by
  Eric Jon Sundstrom, Paul Horn, Yuezhi Mao, Dmitri Zuev, Alec White,
  David Stuck, Shaama M.S., Shane Yost, Joonho Lee, David Small,
  Daniel Levine, Susi Lehtola, Hugh Burton, Evgeny Epifanovsky,
  Bang C. Huynh
 -----------------------------------------------------------------------
 Exchange:     0.1500 Hartree-Fock + 1.0000 wB97M-V + LR-HF
 Correlation:  1.0000 wB97M-V
 Using SG-2 standard quadrature grid
 Nonlocal Correlation:  VV10 with C = 0.0100 and b = 6.00 and scale = 1.00000
 Grid used for NLC:  SG-1 standard quadrature
 
 Citation of the SMD model:
 Marenich, A.V.; Cramer, C.J.; Truhlar, D.G.
 J. Phys. Chem. B 2009, 113, 6378-6396.
 iSolventCode=           1
 Solvent: water                                                           
 
 vradii
            1           2           3           4           5           6
    1   1.2000000   1.5200000   1.2000000   1.2000000   1.5200000   1.2000000
 using 8 threads for integral computing
 -------------------------------------------------------
 OpenMP Integral computing Module                
 Release: version 1.0, May 2013, Q-Chem Inc. Pittsburgh 
 -------------------------------------------------------
 -------------------------------------------------------
 OpenMP BLAS3 based DFT computing Module                
 Release: version 1.0, May 2013, Q-Chem Inc. Pittsburgh 
 -------------------------------------------------------
 A restricted SCF calculation will be
 performed using DIIS, GDM
 SCF converges when RMS gradient is below 1.0e-07
 ---------------------------------------
  Cycle       Energy         DIIS error
 ---------------------------------------
    1    -152.6723602172      4.09e-02  
    2    -152.7965934319      8.56e-03  Done DIIS. Switching to GDM
 ---------------------------------------
  Cycle       Energy        RMS Gradient
 ---------------------------------------
    1    -152.7965934319      7.75e-02   Descent step
    2    -152.8405477026      6.70e-02   Normal BFGS step
    3    -152.8794069968      6.29e-03   Normal BFGS step
    4    -152.8798247459      2.17e-03   Normal BFGS step
    5    -152.8798709098      1.27e-03   Normal BFGS step
    6    -152.8798940233      1.49e-04   Normal BFGS step
    7    -152.8798943901      6.78e-05   Normal BFGS step
    8    -152.8798944217      8.80e-06   Normal BFGS step
    9    -152.8798944228      1.72e-06   Normal BFGS step
   10    -152.8798944229      5.02e-07   Normal BFGS step
   11    -152.8798944229      1.20e-07   Normal BFGS step
   12    -152.8798944229      3.49e-08  Convergence criterion met
 ---------------------------------------
 SCF time:   CPU 64.48s  wall 9.00s 
(3)  G-ENP(liq) elect-nuc-pol free energy of system     -152.879894423 a.u.
(4)  G-CDS(liq) cavity-dispersion-solvent structure 
     free energy                                                2.1870 kcal/mol
(6)  G-S(liq) free energy of system                     -152.876409253 a.u.
 SCF   energy in the final basis set =     -152.8764092534
 Total energy in the final basis set =     -152.8764092534
 
 --------------------------------------------------------------
 
                    Orbital Energies (a.u.)
 --------------------------------------------------------------
 
 Alpha MOs
 -- Occupied --
-19.3481 -19.3195  -1.1483  -1.1120  -0.6356  -0.6193  -0.5171  -0.5070
 -0.4305  -0.4163
 -- Virtual --
  0.0257   0.0554   0.0653   0.0918   0.1798   0.1930   0.2128   0.2217
  0.2322   0.2350   0.2655   0.2735   0.2878   0.3125   0.3458   0.4113
  0.5593   0.5667   0.5997   0.6563   0.6615   0.7095   0.7555   0.8126
  0.8941   0.9650   0.9772   1.0133   1.0248   1.0784   1.1291   1.1586
  1.1794   1.2108   1.3594   1.4019   1.4443   1.4944   1.5426   1.8194
  1.8327   1.8762   1.9113   2.0145   2.0430   2.2421   2.2888   2.3481
  2.4059   2.4330   2.5794   2.6360   2.9321   2.9696   3.6826   3.7188
  3.7631   3.7978   3.8420   3.9203   3.9980   4.0492   4.1621   4.1750
  4.2508   4.3946   5.1071   5.1223   5.1400   5.2154   5.2253   5.2525
  5.2915   5.3475   5.4273   5.4661   5.5426   5.6060   5.6689   5.6790
  5.7560   5.8059   6.9768   7.0073   7.0167   7.0414   7.0637   7.1451
  7.1740   7.2474   7.2568   7.3174   7.4234   7.5423   7.6557   7.7191
 50.4622  50.5474
 --------------------------------------------------------------
 
          Ground-State Mulliken Net Atomic Charges

     Atom                 Charge (a.u.)
  ----------------------------------------
      1 H                     0.357222
      2 O                    -0.670532
      3 H                     0.360684
      4 H                     0.335016
      5 O                    -0.745440
      6 H                     0.363050
  ----------------------------------------
  Sum of atomic charges =     0.000000

 -----------------------------------------------------------------
                    Cartesian Multipole Moments
 -----------------------------------------------------------------
    Charge (ESU x 10^10)
                -0.0000
    Dipole Moment (Debye)
         X       0.8717      Y       0.6890      Z       2.7831
       Tot       2.9967
    Quadrupole Moments (Debye-Ang)
        XX      -8.4247     XY      -0.4462     YY     -15.4078
        XZ      -1.9548     YZ       7.6457     ZZ     -22.3758
    Octopole Moments (Debye-Ang^2)
       XXX       5.4683    XXY      -9.0735    XYY       0.1185
       YYY     -62.9023    XXZ       7.7326    XYZ      -3.2094
       YYZ      29.6582    XZZ       6.7019    YZZ     -34.3394
       ZZZ      57.2183
    Hexadecapole Moments (Debye-Ang^3)
      XXXX     -20.7366   XXXY      -0.9495   XXYY     -20.5758
      XYYY      -4.0535   YYYY    -201.1693   XXXZ       5.5014
      XXYZ      16.7386   XYYZ       0.1342   YYYZ     107.6367
      XXZZ     -26.5283   XYZZ       6.0593   YYZZ     -94.6438
      XZZZ       5.3897   YZZZ     108.9569   ZZZZ    -244.4486
 -----------------------------------------------------------------
 Calculating analytic gradient of the SCF energy
 Gradient of CDS energy
            1           2           3           4           5           6
    1   0.0002911   0.0000375  -0.0004425   0.0004287  -0.0000598  -0.0002551
    2   0.0000170   0.0000068   0.0000660  -0.0000311   0.0001648  -0.0002234
    3   0.0003857  -0.0001763   0.0002570  -0.0002485  -0.0000470  -0.0001709
 Gradient of SCF Energy
            1           2           3           4           5           6
    1   0.0349020  -0.0023267  -0.0280011   0.0364906  -0.0278229  -0.0132420
    2   0.0228344  -0.0513013   0.0278018  -0.0107169   0.0178589  -0.0064768
    3  -0.0017430  -0.0104166  -0.0024950   0.0099536  -0.0181528   0.0228537
 Max gradient component =       5.130E-02
 RMS gradient           =       2.328E-02
 Computing fast CPCM-SWIG gradient
 Updating gradient with PCM contributions...
 -- total gradient after adding PCM contribution --
---------------------------------------------------
  Atom         X              Y              Z     
---------------------------------------------------
   1       0.020615       0.011999      -0.001822
   2       0.001628      -0.024056      -0.009462
   3      -0.017904       0.014893      -0.002256
   4       0.025073      -0.006245       0.002884
   5      -0.016989       0.009051      -0.002159
   6      -0.012423      -0.005643       0.012816
---------------------------------------------------
 Number of fixed atoms: 0
 Gradient time:  CPU 9.85 s  wall 1.45 s
 Geometry Optimization Parameters
   NAtoms,    NIC,     NZ,  NCons,   NDum,   NFix, NCnnct, MaxDiis
        6      25       0       0       0       0       0       0


** GEOMETRY OPTIMIZATION IN DELOCALIZED INTERNAL COORDINATES **
   Searching for a Minimum

   Optimization Cycle:   1

                       Coordinates (Angstroms)
     ATOM                X               Y               Z
      1  H         0.2690221000    1.2843861000    0.4337289000
      2  O        -0.5543549000    0.7519356000    0.2962552000
      3  H        -1.2903653000    1.4107535000    0.3670688000
      4  H         1.1420022000    1.4890243000   -1.8638129000
      5  O         0.2018792000    1.7634836000   -2.0101486000
      6  H        -0.3076066000    1.2885361000   -1.3062796000
   Point Group: c1    Number of degrees of freedom:    12


   Energy is   -152.876409253


 Attempting to generate delocalized internal coordinates
 Initial Hessian constructed with Jon Baker's OPTIMIZE code

 12 Hessian modes will be used to form the next step
  Hessian Eigenvalues:
     0.002000    0.009586    0.072932    0.104956    0.160000    0.160000
     0.160000    0.160000    0.494284    0.494456    0.494465    0.494671

 Minimum search - taking simple RFO step
 Searching for Lamda that Minimizes Along All modes
 Value Taken    Lamda =  -0.00769858
 Step Taken.  Stepsize is  0.221430

                             Maximum     Tolerance    Cnvgd?
         Gradient           0.025384      0.000300      NO
         Displacement       0.115498      0.001200      NO
         Energy change     *********      0.000001      NO


 New Cartesian Coordinates Obtained by Inverse Iteration

 Displacement from previous Coordinates is:  0.363965
 ----------------------------------------------------------------
             Standard Nuclear Orientation (Angstroms)
    I     Atom           X                Y                Z
 ----------------------------------------------------------------
    1      H       0.2124874312     1.2705019517     0.5440065425
    2      O      -0.5731574460     0.7512856028     0.3308827345
    3      H      -1.2905502537     1.3924629572     0.4173818364
    4      H       1.1418441802     1.4965542695    -1.9449355113
    5      O       0.2271624499     1.7659550592    -2.0788969597
    6      H      -0.2572096616     1.3113593597    -1.3516268424
 ----------------------------------------------------------------
 Nuclear Repulsion Energy =          38.23651380 hartrees
 There are       10 alpha and       10 beta electrons
 Discretize the solute cavity surface with Lebedev spheres
	Using 110 Lebedev grid points for each H atom
	Using 194 Lebedev grid points for other atoms
	Atomic van der Waals radii will be scaled by 1.20
 Remove points where switching function is < 1.0e-08
 Keep 546 surface tesserae and discard 282 interior tesserae
 Molecular Surface Area = 64.858 Angst**2
 Applying Cartesian multipole field
    Component          Value
    ---------          -----
     (2,0,0)        1.00000E-11
     (0,2,0)        2.00000E-11
     (0,0,2)       -3.00000E-11
 Nucleus-field energy     =    -0.0000000016 hartrees
 Requested basis set is 6-311++G(2df,2p)
 There are 40 shells and 108 basis functions
 A cutoff of  1.0D-12 yielded    804 shell pairs
 There are      5899 function pairs (      7081 Cartesian)
 Smallest overlap matrix eigenvalue = 8.93E-04
 Guess MOs from SCF MO coefficient file

 -----------------------------------------------------------------------
  General SCF calculation program by
  Eric Jon Sundstrom, Paul Horn, Yuezhi Mao, Dmitri Zuev, Alec White,
  David Stuck, Shaama M.S., Shane Yost, Joonho Lee, David Small,
  Daniel Levine, Susi Lehtola, Hugh Burton, Evgeny Epifanovsky,
  Bang C. Huynh
 -----------------------------------------------------------------------
 Exchange:     0.1500 Hartree-Fock + 1.0000 wB97M-V + LR-HF
 Correlation:  1.0000 wB97M-V
 Using SG-2 standard quadrature grid
 Nonlocal Correlation:  VV10 with C = 0.0100 and b = 6.00 and scale = 1.00000
 Grid used for NLC:  SG-1 standard quadrature
 
 Citation of the SMD model:
 Marenich, A.V.; Cramer, C.J.; Truhlar, D.G.
 J. Phys. Chem. B 2009, 113, 6378-6396.
 iSolventCode=           1
 Solvent: water                                                           
 
 vradii
            1           2           3           4           5           6
    1   1.2000000   1.5200000   1.2000000   1.2000000   1.5200000   1.2000000
 -------------------------------------------------------
 OpenMP BLAS3 based DFT computing Module                
 Release: version 1.0, May 2013, Q-Chem Inc. Pittsburgh 
 -------------------------------------------------------
 A restricted SCF calculation will be
 performed using Roothaan-Hall, DIIS, GDM
 SCF converges when RMS gradient is below 1.0e-07
 ---------------------------------------
  Cycle       Energy         DIIS error
 ---------------------------------------
    1    -152.8511255365      1.87e-03  Roothaan Step
 ---------------------------------------
  Cycle       Energy         DIIS error
 ---------------------------------------
    1    -152.8803798204      1.43e-03  
    2    -152.8841594396      8.20e-04  Done DIIS. Switching to GDM
 ---------------------------------------
  Cycle       Energy        RMS Gradient
 ---------------------------------------
    1    -152.8841594396      7.08e-03   Normal BFGS step
    2    -152.8843667066      7.13e-03   Normal BFGS step
    3    -152.8849154555      9.36e-04   Normal BFGS step
    4    -152.8849251377      3.59e-04   Normal BFGS step
    5    -152.8849259775      1.71e-04   Normal BFGS step
    6    -152.8849262883      3.83e-05   Normal BFGS step
    7    -152.8849263068      8.92e-06   Normal BFGS step
    8    -152.8849263075      1.46e-06   Normal BFGS step
    9    -152.8849263076      4.75e-07   Normal BFGS step
   10    -152.8849263076      1.09e-07   Normal BFGS step
   11    -152.8849263076      2.83e-08  Convergence criterion met
 ---------------------------------------
 SCF time:   CPU 60.95s  wall 8.00s 
(3)  G-ENP(liq) elect-nuc-pol free energy of system     -152.884926308 a.u.
(4)  G-CDS(liq) cavity-dispersion-solvent structure 
     free energy                                                2.2358 kcal/mol
(6)  G-S(liq) free energy of system                     -152.881363342 a.u.
 SCF   energy in the final basis set =     -152.8813633424
 Total energy in the final basis set =     -152.8813633424
 
 --------------------------------------------------------------
 
                    Orbital Energies (a.u.)
 --------------------------------------------------------------
 
 Alpha MOs
 -- Occupied --
-19.3435 -19.3208  -1.1534  -1.1226  -0.6400  -0.6237  -0.5204  -0.5080
 -0.4341  -0.4201
 -- Virtual --
  0.0264   0.0552   0.0650   0.0919   0.1786   0.1972   0.2161   0.2236
  0.2329   0.2377   0.2638   0.2753   0.2856   0.3118   0.3477   0.4235
  0.5688   0.5760   0.6231   0.6732   0.6786   0.7119   0.7501   0.8136
  0.8682   0.9526   0.9710   1.0034   1.0135   1.0887   1.1025   1.1392
  1.1757   1.2176   1.3390   1.4133   1.4660   1.5047   1.5457   1.8422
  1.8577   1.8873   1.9066   2.0192   2.0361   2.2247   2.2632   2.3157
  2.3536   2.4470   2.5807   2.6345   2.9528   2.9787   3.6819   3.7223
  3.7346   3.7520   3.8440   3.9331   3.9923   4.0283   4.1998   4.2296
  4.3192   4.4411   5.1069   5.1150   5.1348   5.2209   5.2380   5.2514
  5.3025   5.3546   5.4995   5.5052   5.5696   5.6602   5.7173   5.7251
  5.7948   5.8333   6.9918   7.0161   7.0244   7.0731   7.0966   7.1577
  7.1834   7.2700   7.4048   7.4192   7.4456   7.5215   7.6515   7.7072
 50.4820  50.5495
 --------------------------------------------------------------
 
          Ground-State Mulliken Net Atomic Charges

     Atom                 Charge (a.u.)
  ----------------------------------------
      1 H                     0.346570
      2 O                    -0.662488
      3 H                     0.347261
      4 H                     0.326674
      5 O                    -0.730451
      6 H                     0.372434
  ----------------------------------------
  Sum of atomic charges =     0.000000

 -----------------------------------------------------------------
                    Cartesian Multipole Moments
 -----------------------------------------------------------------
    Charge (ESU x 10^10)
                -0.0000
    Dipole Moment (Debye)
         X       0.8803      Y       0.7348      Z       2.9133
       Tot       3.1308
    Quadrupole Moments (Debye-Ang)
        XX      -8.6463     XY      -0.5060     YY     -15.2532
        XZ      -2.0459     YZ       7.8982     ZZ     -22.1215
    Octopole Moments (Debye-Ang^2)
       XXX       5.5054    XXY      -9.3536    XYY      -0.0456
       YYY     -62.4458    XXZ       7.8311    XYZ      -3.3547
       YYZ      30.2118    XZZ       7.0536    YZZ     -34.1026
       ZZZ      58.4773
    Hexadecapole Moments (Debye-Ang^3)
      XXXX     -21.6606   XXXY      -1.3187   XXYY     -21.1479
      XYYY      -4.9332   YYYY    -200.0138   XXXZ       6.8553
      XXYZ      17.2681   XYYZ       0.6943   YYYZ     110.0507
      XXZZ     -27.8143   XYZZ       6.1706   YYZZ     -96.7621
      XZZZ       6.1847   YZZZ     112.4879   ZZZZ    -259.1232
 -----------------------------------------------------------------
 Calculating analytic gradient of the SCF energy
 Gradient of CDS energy
            1           2           3           4           5           6
    1   0.0003096   0.0000383  -0.0004545   0.0004489  -0.0000778  -0.0002646
    2   0.0000075  -0.0000048   0.0000650  -0.0000287   0.0001632  -0.0002022
    3   0.0003851  -0.0001652   0.0002311  -0.0002293  -0.0000739  -0.0001478
 Gradient of SCF Energy
            1           2           3           4           5           6
    1   0.0138567  -0.0023935  -0.0090512   0.0110475  -0.0051538  -0.0083058
    2   0.0137153  -0.0311361   0.0154719  -0.0046446   0.0127294  -0.0061357
    3  -0.0013479  -0.0045401  -0.0018615   0.0067650  -0.0181041   0.0190887
 Max gradient component =       3.114E-02
 RMS gradient           =       1.265E-02
 Computing fast CPCM-SWIG gradient
 Updating gradient with PCM contributions...
 -- total gradient after adding PCM contribution --
---------------------------------------------------
  Atom         X              Y              Z     
---------------------------------------------------
   1       0.000044       0.002220      -0.002482
   2       0.002058      -0.003288      -0.002392
   3       0.000533       0.002294      -0.001718
   4       0.000263      -0.000299       0.000426
   5       0.005090       0.004171      -0.003093
   6      -0.007988      -0.005098       0.009259
---------------------------------------------------
 Number of fixed atoms: 0
 Gradient time:  CPU 9.49 s  wall 1.31 s
 Geometry Optimization Parameters
   NAtoms,    NIC,     NZ,  NCons,   NDum,   NFix, NCnnct, MaxDiis
        6      25       0       0       0       0       0       0

 Cartesian Hessian Update
 Hessian updated using BFGS update


** GEOMETRY OPTIMIZATION IN DELOCALIZED INTERNAL COORDINATES **
   Searching for a Minimum

   Optimization Cycle:   2

                       Coordinates (Angstroms)
     ATOM                X               Y               Z
      1  H         0.2124874312    1.2705019517    0.5440065425
      2  O        -0.5731574460    0.7512856028    0.3308827345
      3  H        -1.2905502537    1.3924629572    0.4173818364
      4  H         1.1418441802    1.4965542695   -1.9449355113
      5  O         0.2271624499    1.7659550592   -2.0788969597
      6  H        -0.2572096616    1.3113593597   -1.3516268424
   Point Group: c1    Number of degrees of freedom:    12


   Energy is   -152.881363342

 Hessian updated using BFGS update

 10 Hessian modes will be used to form the next step
  Hessian Eigenvalues:
     0.002000    0.009592    0.053733    0.107492    0.137652    0.161108
     0.477805    0.494352    0.494593    0.584686

 Minimum search - taking simple RFO step
 Searching for Lamda that Minimizes Along All modes
 Value Taken    Lamda =  -0.00211537
 Step Taken.  Stepsize is  0.181529

                             Maximum     Tolerance    Cnvgd?
         Gradient           0.007219      0.000300      NO
         Displacement       0.106933      0.001200      NO
         Energy change     -0.004954      0.000001      NO


 New Cartesian Coordinates Obtained by Inverse Iteration

 Displacement from previous Coordinates is:  0.314629
 ----------------------------------------------------------------
             Standard Nuclear Orientation (Angstroms)
    I     Atom           X                Y                Z
 ----------------------------------------------------------------
    1      H       0.1845113065     1.2479907197     0.6390529687
    2      O      -0.5927083545     0.7555754617     0.3617079453
    3      H      -1.3140808033     1.3826216623     0.4620605880
    4      H       1.1579786624     1.5134229149    -2.0211272371
    5      O       0.2389288534     1.7591290457    -2.1366941671
    6      H      -0.2140529645     1.3293793958    -1.3881882978
 ----------------------------------------------------------------
 Nuclear Repulsion Energy =          37.65089418 hartrees
 There are       10 alpha and       10 beta electrons
 Discretize the solute cavity surface with Lebedev spheres
	Using 110 Lebedev grid points for each H atom
	Using 194 Lebedev grid points for other atoms
	Atomic van der Waals radii will be scaled by 1.20
 Remove points where switching function is < 1.0e-08
 Keep 549 surface tesserae and discard 279 interior tesserae
 Molecular Surface Area = 65.504 Angst**2
 Applying Cartesian multipole field
    Component          Value
    ---------          -----
     (2,0,0)        1.00000E-11
     (0,2,0)        2.00000E-11
     (0,0,2)       -3.00000E-11
 Nucleus-field energy     =    -0.0000000019 hartrees
 Requested basis set is 6-311++G(2df,2p)
 There are 40 shells and 108 basis functions
 A cutoff of  1.0D-12 yielded    797 shell pairs
 There are      5846 function pairs (      7016 Cartesian)
 Smallest overlap matrix eigenvalue = 9.00E-04
 Guess MOs from SCF MO coefficient file

 -----------------------------------------------------------------------
  General SCF calculation program by
  Eric Jon Sundstrom, Paul Horn, Yuezhi Mao, Dmitri Zuev, Alec White,
  David Stuck, Shaama M.S., Shane Yost, Joonho Lee, David Small,
  Daniel Levine, Susi Lehtola, Hugh Burton, Evgeny Epifanovsky,
  Bang C. Huynh
 -----------------------------------------------------------------------
 Exchange:     0.1500 Hartree-Fock + 1.0000 wB97M-V + LR-HF
 Correlation:  1.0000 wB97M-V
 Using SG-2 standard quadrature grid
 Nonlocal Correlation:  VV10 with C = 0.0100 and b = 6.00 and scale = 1.00000
 Grid used for NLC:  SG-1 standard quadrature
 
 Citation of the SMD model:
 Marenich, A.V.; Cramer, C.J.; Truhlar, D.G.
 J. Phys. Chem. B 2009, 113, 6378-6396.
 iSolventCode=           1
 Solvent: water                                                           
 
 vradii
            1           2           3           4           5           6
    1   1.2000000   1.5200000   1.2000000   1.2000000   1.5200000   1.2000000
 -------------------------------------------------------
 OpenMP BLAS3 based DFT computing Module                
 Release: version 1.0, May 2013, Q-Chem Inc. Pittsburgh 
 -------------------------------------------------------
 A restricted SCF calculation will be
 performed using Roothaan-Hall, DIIS, GDM
 SCF converges when RMS gradient is below 1.0e-07
 ---------------------------------------
  Cycle       Energy         DIIS error
 ---------------------------------------
    1    -152.8538849006      1.66e-03  Roothaan Step
 ---------------------------------------
  Cycle       Energy         DIIS error
 ---------------------------------------
    1    -152.8819711110      1.46e-03  
    2    -152.8854891621      9.98e-04  Done DIIS. Switching to GDM
 ---------------------------------------
  Cycle       Energy        RMS Gradient
 ---------------------------------------
    1    -152.8854891621      8.40e-03   Normal BFGS step
    2    -152.8856577453      8.89e-03   Normal BFGS step
    3    -152.8865124076      1.06e-03   Normal BFGS step
    4    -152.8865226545      4.26e-04   Normal BFGS step
    5    -152.8865237905      1.19e-04   Normal BFGS step
    6    -152.8865239421      6.27e-05   Normal BFGS step
    7    -152.8865239875      8.56e-06   Normal BFGS step
    8    -152.8865239880      1.18e-06   Normal BFGS step
    9    -152.8865239880      3.34e-07   Normal BFGS step
   10    -152.8865239880      7.38e-08  Convergence criterion met
 ---------------------------------------
 SCF time:   CPU 55.79s  wall 7.00s 
(3)  G-ENP(liq) elect-nuc-pol free energy of system     -152.886523988 a.u.
(4)  G-CDS(liq) cavity-dispersion-solvent structure 
     free energy                                                2.3049 kcal/mol
(6)  G-S(liq) free energy of system                     -152.882850970 a.u.
 SCF   energy in the final basis set =     -152.8828509703
 Total energy in the final basis set =     -152.8828509703
 
 --------------------------------------------------------------
 
                    Orbital Energies (a.u.)
 --------------------------------------------------------------
 
 Alpha MOs
 -- Occupied --
-19.3410 -19.3222  -1.1515  -1.1275  -0.6415  -0.6273  -0.5183  -0.5063
 -0.4349  -0.4224
 -- Virtual --
  0.0263   0.0546   0.0646   0.0916   0.1788   0.1970   0.2182   0.2245
  0.2324   0.2374   0.2607   0.2751   0.2831   0.3098   0.3514   0.4282
  0.5723   0.5861   0.6326   0.6767   0.6878   0.7128   0.7675   0.8139
  0.8468   0.9506   0.9661   0.9891   1.0108   1.0821   1.0898   1.1308
  1.1714   1.2202   1.3126   1.4148   1.4716   1.5013   1.5460   1.8567
  1.8705   1.8868   1.8957   2.0216   2.0341   2.2131   2.2414   2.2820
  2.3410   2.4650   2.5829   2.6413   2.9453   2.9816   3.6749   3.7060
  3.7236   3.7302   3.8413   3.9347   3.9816   4.0002   4.2070   4.2350
  4.3251   4.4671   5.1102   5.1123   5.1339   5.2195   5.2381   5.2527
  5.3064   5.3555   5.4983   5.5171   5.5854   5.6789   5.7297   5.7334
  5.8197   5.8500   6.9912   7.0187   7.0233   7.0697   7.1149   7.1547
  7.1851   7.2641   7.3995   7.4555   7.4781   7.5286   7.6457   7.6975
 50.4906  50.5370
 --------------------------------------------------------------
 
          Ground-State Mulliken Net Atomic Charges

     Atom                 Charge (a.u.)
  ----------------------------------------
      1 H                     0.344873
      2 O                    -0.668084
      3 H                     0.343969
      4 H                     0.326001
      5 O                    -0.723451
      6 H                     0.376691
  ----------------------------------------
  Sum of atomic charges =     0.000000

 -----------------------------------------------------------------
                    Cartesian Multipole Moments
 -----------------------------------------------------------------
    Charge (ESU x 10^10)
                -0.0000
    Dipole Moment (Debye)
         X       0.9610      Y       0.7945      Z       3.0191
       Tot       3.2665
    Quadrupole Moments (Debye-Ang)
        XX      -8.6195     XY      -0.4195     YY     -15.0892
        XZ      -2.2857     YZ       7.9693     ZZ     -21.8745
    Octopole Moments (Debye-Ang^2)
       XXX       5.6638    XXY      -9.1731    XYY       0.1858
       YYY     -61.9221    XXZ       7.7669    XYZ      -3.8579
       YYZ      30.2725    XZZ       7.8161    YZZ     -33.6092
       ZZZ      59.5079
    Hexadecapole Moments (Debye-Ang^3)
      XXXX     -22.1963   XXXY      -1.3535   XXYY     -20.9436
      XYYY      -4.6433   YYYY    -198.1499   XXXZ       7.4344
      XXYZ      17.3255   XYYZ       0.3441   YYYZ     110.8764
      XXZZ     -28.6182   XYZZ       7.1997   YYZZ     -97.8713
      XZZZ       5.7904   YZZZ     114.6167   ZZZZ    -272.0151
 -----------------------------------------------------------------
 Calculating analytic gradient of the SCF energy
 Gradient of CDS energy
            1           2           3           4           5           6
    1   0.0003211   0.0000314  -0.0004524   0.0004588  -0.0000922  -0.0002666
    2   0.0000041  -0.0000368   0.0000766  -0.0000198   0.0001597  -0.0001838
    3   0.0003779  -0.0001477   0.0002053  -0.0002054  -0.0001133  -0.0001168
 Gradient of SCF Energy
            1           2           3           4           5           6
    1   0.0112838  -0.0035626  -0.0066048   0.0065445  -0.0048298  -0.0028310
    2   0.0105737  -0.0246019   0.0116781  -0.0031166   0.0080932  -0.0026264
    3  -0.0001320  -0.0027099  -0.0012043   0.0056341  -0.0132279   0.0116400
 Max gradient component =       2.460E-02
 RMS gradient           =       9.263E-03
 Computing fast CPCM-SWIG gradient
 Updating gradient with PCM contributions...
 -- total gradient after adding PCM contribution --
---------------------------------------------------
  Atom         X              Y              Z     
---------------------------------------------------
   1      -0.002578      -0.000815      -0.002399
   2       0.001185       0.002592       0.001107
   3       0.002868      -0.001303      -0.001426
   4      -0.004169       0.000882      -0.000106
   5       0.005880       0.000301       0.000676
   6      -0.003186      -0.001658       0.002148
---------------------------------------------------
 Number of fixed atoms: 0
 Gradient time:  CPU 8.77 s  wall 1.17 s
 Geometry Optimization Parameters
   NAtoms,    NIC,     NZ,  NCons,   NDum,   NFix, NCnnct, MaxDiis
        6      25       0       0       0       0       0       0

 Cartesian Hessian Update
 Hessian updated using BFGS update


** GEOMETRY OPTIMIZATION IN DELOCALIZED INTERNAL COORDINATES **
   Searching for a Minimum

   Optimization Cycle:   3

                       Coordinates (Angstroms)
     ATOM                X               Y               Z
      1  H         0.1845113065    1.2479907197    0.6390529687
      2  O        -0.5927083545    0.7555754617    0.3617079453
      3  H        -1.3140808033    1.3826216623    0.4620605880
      4  H         1.1579786624    1.5134229149   -2.0211272371
      5  O         0.2389288534    1.7591290457   -2.1366941671
      6  H        -0.2140529645    1.3293793958   -1.3881882978
   Point Group: c1    Number of degrees of freedom:    12


   Energy is   -152.882850970

 Hessian updated using BFGS update

 11 Hessian modes will be used to form the next step
  Hessian Eigenvalues:
     0.002004    0.009584    0.032270    0.108042    0.122271    0.160243
     0.160923    0.493673    0.494461    0.499136    0.611044

 Minimum search - taking simple RFO step
 Searching for Lamda that Minimizes Along All modes
 Value Taken    Lamda =  -0.00100034
 Step Taken.  Stepsize is  0.161555

                             Maximum     Tolerance    Cnvgd?
         Gradient           0.005141      0.000300      NO
         Displacement       0.111147      0.001200      NO
         Energy change     -0.001488      0.000001      NO


 New Cartesian Coordinates Obtained by Inverse Iteration

 Displacement from previous Coordinates is:  0.312001
 ----------------------------------------------------------------
             Standard Nuclear Orientation (Angstroms)
    I     Atom           X                Y                Z
 ----------------------------------------------------------------
    1      H       0.1549980756     1.2317008375     0.7319497316
    2      O      -0.6087335003     0.7576716856     0.3877272867
    3      H      -1.3427018709     1.3688667772     0.5063790315
    4      H       1.1783201088     1.5220096010    -2.1060754300
    5      O       0.2495408946     1.7563691345    -2.1888360824
    6      H      -0.1708470078     1.3515011641    -1.4143327374
 ----------------------------------------------------------------
 Nuclear Repulsion Energy =          37.04399596 hartrees
 There are       10 alpha and       10 beta electrons
 Discretize the solute cavity surface with Lebedev spheres
	Using 110 Lebedev grid points for each H atom
	Using 194 Lebedev grid points for other atoms
	Atomic van der Waals radii will be scaled by 1.20
 Remove points where switching function is < 1.0e-08
 Keep 554 surface tesserae and discard 274 interior tesserae
 Molecular Surface Area = 66.126 Angst**2
 Applying Cartesian multipole field
    Component          Value
    ---------          -----
     (2,0,0)        1.00000E-11
     (0,2,0)        2.00000E-11
     (0,0,2)       -3.00000E-11
 Nucleus-field energy     =    -0.0000000021 hartrees
 Requested basis set is 6-311++G(2df,2p)
 There are 40 shells and 108 basis functions
 A cutoff of  1.0D-12 yielded    792 shell pairs
 There are      5824 function pairs (      6994 Cartesian)
 Smallest overlap matrix eigenvalue = 9.19E-04
 Guess MOs from SCF MO coefficient file

 -----------------------------------------------------------------------
  General SCF calculation program by
  Eric Jon Sundstrom, Paul Horn, Yuezhi Mao, Dmitri Zuev, Alec White,
  David Stuck, Shaama M.S., Shane Yost, Joonho Lee, David Small,
  Daniel Levine, Susi Lehtola, Hugh Burton, Evgeny Epifanovsky,
  Bang C. Huynh
 -----------------------------------------------------------------------
 Exchange:     0.1500 Hartree-Fock + 1.0000 wB97M-V + LR-HF
 Correlation:  1.0000 wB97M-V
 Using SG-2 standard quadrature grid
 Nonlocal Correlation:  VV10 with C = 0.0100 and b = 6.00 and scale = 1.00000
 Grid used for NLC:  SG-1 standard quadrature
 
 Citation of the SMD model:
 Marenich, A.V.; Cramer, C.J.; Truhlar, D.G.
 J. Phys. Chem. B 2009, 113, 6378-6396.
 iSolventCode=           1
 Solvent: water                                                           
 
 vradii
            1           2           3           4           5           6
    1   1.2000000   1.5200000   1.2000000   1.2000000   1.5200000   1.2000000
 -------------------------------------------------------
 OpenMP BLAS3 based DFT computing Module                
 Release: version 1.0, May 2013, Q-Chem Inc. Pittsburgh 
 -------------------------------------------------------
 A restricted SCF calculation will be
 performed using Roothaan-Hall, DIIS, GDM
 SCF converges when RMS gradient is below 1.0e-07
 ---------------------------------------
  Cycle       Energy         DIIS error
 ---------------------------------------
    1    -152.8549745054      1.65e-03  Roothaan Step
 ---------------------------------------
  Cycle       Energy         DIIS error
 ---------------------------------------
    1    -152.8827552924      1.48e-03  
    2    -152.8861088101      1.09e-03  Done DIIS. Switching to GDM
 ---------------------------------------
  Cycle       Energy        RMS Gradient
 ---------------------------------------
    1    -152.8861088101      9.69e-03   Normal BFGS step
    2    -152.8862446054      1.02e-02   Normal BFGS step
    3    -152.8872984998      1.10e-03   Normal BFGS step
    4    -152.8873089057      4.51e-04   Normal BFGS step
    5    -152.8873101909      9.81e-05   Normal BFGS step
    6    -152.8873102863      6.60e-05   Normal BFGS step
    7    -152.8873103390      7.32e-06   Normal BFGS step
    8    -152.8873103394      1.23e-06   Normal BFGS step
    9    -152.8873103395      3.36e-07   Normal BFGS step
   10    -152.8873103395      9.33e-08  Convergence criterion met
 ---------------------------------------
 SCF time:   CPU 57.28s  wall 8.00s 
(3)  G-ENP(liq) elect-nuc-pol free energy of system     -152.887310339 a.u.
(4)  G-CDS(liq) cavity-dispersion-solvent structure 
     free energy                                                2.3723 kcal/mol
(6)  G-S(liq) free energy of system                     -152.883529772 a.u.
 SCF   energy in the final basis set =     -152.8835297716
 Total energy in the final basis set =     -152.8835297716
 
 --------------------------------------------------------------
 
                    Orbital Energies (a.u.)
 --------------------------------------------------------------
 
 Alpha MOs
 -- Occupied --
-19.3399 -19.3238  -1.1484  -1.1291  -0.6400  -0.6289  -0.5169  -0.5041
 -0.4349  -0.4239
 -- Virtual --
  0.0260   0.0538   0.0643   0.0915   0.1787   0.1962   0.2194   0.2240
  0.2323   0.2358   0.2578   0.2746   0.2813   0.3073   0.3551   0.4309
  0.5744   0.5942   0.6377   0.6734   0.6938   0.7070   0.7904   0.8124
  0.8324   0.9468   0.9658   0.9741   1.0115   1.0719   1.0876   1.1255
  1.1632   1.2131   1.2939   1.4138   1.4731   1.4934   1.5463   1.8647
  1.8779   1.8810   1.8868   2.0185   2.0298   2.1652   2.2381   2.2758
  2.3414   2.4789   2.5835   2.6486   2.9324   2.9809   3.6642   3.6904
  3.7223   3.7271   3.8329   3.9027   3.9743   3.9903   4.2008   4.2238
  4.3162   4.4680   5.1073   5.1107   5.1352   5.2197   5.2302   5.2553
  5.3074   5.3555   5.4937   5.5145   5.5884   5.6823   5.7237   5.7303
  5.8223   5.8531   6.9858   7.0169   7.0221   7.0611   7.1124   7.1494
  7.1819   7.2458   7.3963   7.4474   7.4652   7.5302   7.6462   7.6918
 50.4904  50.5196
 --------------------------------------------------------------
 
          Ground-State Mulliken Net Atomic Charges

     Atom                 Charge (a.u.)
  ----------------------------------------
      1 H                     0.342089
      2 O                    -0.667922
      3 H                     0.340694
      4 H                     0.328259
      5 O                    -0.721489
      6 H                     0.378369
  ----------------------------------------
  Sum of atomic charges =     0.000000

 -----------------------------------------------------------------
                    Cartesian Multipole Moments
 -----------------------------------------------------------------
    Charge (ESU x 10^10)
                -0.0000
    Dipole Moment (Debye)
         X       1.0145      Y       0.8203      Z       3.1375
       Tot       3.3979
    Quadrupole Moments (Debye-Ang)
        XX      -8.5531     XY      -0.3682     YY     -15.0546
        XZ      -2.6305     YZ       8.0879     ZZ     -21.5007
    Octopole Moments (Debye-Ang^2)
       XXX       5.7270    XXY      -9.0160    XYY       0.3244
       YYY     -61.8195    XXZ       7.6824    XYZ      -4.4263
       YYZ      30.4990    XZZ       8.7659    YZZ     -33.0705
       ZZZ      60.2861
    Hexadecapole Moments (Debye-Ang^3)
      XXXX     -22.6004   XXXY      -1.5200   XXYY     -20.9304
      XYYY      -4.6054   YYYY    -197.7464   XXXZ       7.8019
      XXYZ      17.4244   XYYZ       0.0301   YYYZ     112.2715
      XXZZ     -29.0832   XYZZ       8.4078   YYZZ     -99.1395
      XZZZ       4.5514   YZZZ     116.6392   ZZZZ    -283.0706
 -----------------------------------------------------------------
 Calculating analytic gradient of the SCF energy
 Gradient of CDS energy
            1           2           3           4           5           6
    1   0.0003670   0.0000321  -0.0004511   0.0004609  -0.0001178  -0.0002911
    2   0.0000055  -0.0000648   0.0000833  -0.0000286   0.0001574  -0.0001528
    3   0.0003263  -0.0001291   0.0001751  -0.0000983  -0.0001755  -0.0000985
 Gradient of SCF Energy
            1           2           3           4           5           6
    1   0.0128652  -0.0041022  -0.0085211   0.0098296  -0.0098103  -0.0002613
    2   0.0108405  -0.0254831   0.0121216  -0.0034820   0.0066825  -0.0006794
    3   0.0024192  -0.0040880   0.0000393   0.0050305  -0.0105007   0.0070997
 Max gradient component =       2.548E-02
 RMS gradient           =       9.509E-03
 Computing fast CPCM-SWIG gradient
 Updating gradient with PCM contributions...
 -- total gradient after adding PCM contribution --
---------------------------------------------------
  Atom         X              Y              Z     
---------------------------------------------------
   1      -0.000672      -0.000316      -0.001300
   2       0.000344       0.000801       0.001874
   3       0.001046      -0.000544      -0.000868
   4      -0.000786       0.000283      -0.000034
   5       0.001415      -0.000432       0.002043
   6      -0.001346       0.000208      -0.001716
---------------------------------------------------
 Number of fixed atoms: 0
 Gradient time:  CPU 10.50 s  wall 1.52 s
 Geometry Optimization Parameters
   NAtoms,    NIC,     NZ,  NCons,   NDum,   NFix, NCnnct, MaxDiis
        6      25       0       0       0       0       0       0

 Cartesian Hessian Update
 Hessian updated using BFGS update


** GEOMETRY OPTIMIZATION IN DELOCALIZED INTERNAL COORDINATES **
   Searching for a Minimum

   Optimization Cycle:   4

                       Coordinates (Angstroms)
     ATOM                X               Y               Z
      1  H         0.1549980756    1.2317008375    0.7319497316
      2  O        -0.6087335003    0.7576716856    0.3877272867
      3  H        -1.3427018709    1.3688667772    0.5063790315
      4  H         1.1783201088    1.5220096010   -2.1060754300
      5  O         0.2495408946    1.7563691345   -2.1888360824
      6  H        -0.1708470078    1.3515011641   -1.4143327374
   Point Group: c1    Number of degrees of freedom:    12


   Energy is   -152.883529772

 Hessian updated using BFGS update

 12 Hessian modes will be used to form the next step
  Hessian Eigenvalues:
     0.002006    0.009482    0.021372    0.108169    0.112305    0.160009
     0.160191    0.161643    0.494440    0.495168    0.502562    0.606593

 Minimum search - taking simple RFO step
 Searching for Lamda that Minimizes Along All modes
 Value Taken    Lamda =  -0.00036880
 Step Taken.  Stepsize is  0.126160

                             Maximum     Tolerance    Cnvgd?
         Gradient           0.003223      0.000300      NO
         Displacement       0.097397      0.001200      NO
         Energy change     -0.000679      0.000001      NO


 New Cartesian Coordinates Obtained by Inverse Iteration

 Displacement from previous Coordinates is:  0.263620
 ----------------------------------------------------------------
             Standard Nuclear Orientation (Angstroms)
    I     Atom           X                Y                Z
 ----------------------------------------------------------------
    1      H       0.1246819527     1.2272002975     0.8084887676
    2      O      -0.6146904623     0.7606433089     0.4033313560
    3      H      -1.3678368599     1.3464933738     0.5374497726
    4      H       1.1882006413     1.5119542031    -2.1846744579
    5      O       0.2599887199     1.7629519496    -2.2237227158
    6      H      -0.1297672917     1.3788760671    -1.4240609225
 ----------------------------------------------------------------
 Nuclear Repulsion Energy =          36.63827003 hartrees
 There are       10 alpha and       10 beta electrons
 Discretize the solute cavity surface with Lebedev spheres
	Using 110 Lebedev grid points for each H atom
	Using 194 Lebedev grid points for other atoms
	Atomic van der Waals radii will be scaled by 1.20
 Remove points where switching function is < 1.0e-08
 Keep 558 surface tesserae and discard 270 interior tesserae
 Molecular Surface Area = 66.437 Angst**2
 Applying Cartesian multipole field
    Component          Value
    ---------          -----
     (2,0,0)        1.00000E-11
     (0,2,0)        2.00000E-11
     (0,0,2)       -3.00000E-11
 Nucleus-field energy     =    -0.0000000023 hartrees
 Requested basis set is 6-311++G(2df,2p)
 There are 40 shells and 108 basis functions
 A cutoff of  1.0D-12 yielded    789 shell pairs
 There are      5799 function pairs (      6964 Cartesian)
 Smallest overlap matrix eigenvalue = 9.23E-04
 Guess MOs from SCF MO coefficient file

 -----------------------------------------------------------------------
  General SCF calculation program by
  Eric Jon Sundstrom, Paul Horn, Yuezhi Mao, Dmitri Zuev, Alec White,
  David Stuck, Shaama M.S., Shane Yost, Joonho Lee, David Small,
  Daniel Levine, Susi Lehtola, Hugh Burton, Evgeny Epifanovsky,
  Bang C. Huynh
 -----------------------------------------------------------------------
 Exchange:     0.1500 Hartree-Fock + 1.0000 wB97M-V + LR-HF
 Correlation:  1.0000 wB97M-V
 Using SG-2 standard quadrature grid
 Nonlocal Correlation:  VV10 with C = 0.0100 and b = 6.00 and scale = 1.00000
 Grid used for NLC:  SG-1 standard quadrature
 
 Citation of the SMD model:
 Marenich, A.V.; Cramer, C.J.; Truhlar, D.G.
 J. Phys. Chem. B 2009, 113, 6378-6396.
 iSolventCode=           1
 Solvent: water                                                           
 
 vradii
            1           2           3           4           5           6
    1   1.2000000   1.5200000   1.2000000   1.2000000   1.5200000   1.2000000
 -------------------------------------------------------
 OpenMP BLAS3 based DFT computing Module                
 Release: version 1.0, May 2013, Q-Chem Inc. Pittsburgh 
 -------------------------------------------------------
 A restricted SCF calculation will be
 performed using Roothaan-Hall, DIIS, GDM
 SCF converges when RMS gradient is below 1.0e-07
 ---------------------------------------
  Cycle       Energy         DIIS error
 ---------------------------------------
    1    -152.8556055374      1.64e-03  Roothaan Step
 ---------------------------------------
  Cycle       Energy         DIIS error
 ---------------------------------------
    1    -152.8831419418      1.47e-03  
    2    -152.8864025000      1.10e-03  Done DIIS. Switching to GDM
 ---------------------------------------
  Cycle       Energy        RMS Gradient
 ---------------------------------------
    1    -152.8864025000      1.02e-02   Normal BFGS step
    2    -152.8865271797      1.07e-02   Normal BFGS step
    3    -152.8876087434      1.11e-03   Normal BFGS step
    4    -152.8876191893      4.56e-04   Normal BFGS step
    5    -152.8876205216      8.56e-05   Normal BFGS step
    6    -152.8876205929      6.21e-05   Normal BFGS step
    7    -152.8876206455      6.52e-06   Normal BFGS step
    8    -152.8876206458      1.38e-06   Normal BFGS step
    9    -152.8876206459      3.54e-07   Normal BFGS step
   10    -152.8876206459      1.01e-07   Normal BFGS step
   11    -152.8876206459      1.58e-08  Convergence criterion met
 ---------------------------------------
 SCF time:   CPU 61.30s  wall 8.00s 
(3)  G-ENP(liq) elect-nuc-pol free energy of system     -152.887620646 a.u.
(4)  G-CDS(liq) cavity-dispersion-solvent structure 
     free energy                                                2.4115 kcal/mol
(6)  G-S(liq) free energy of system                     -152.883777745 a.u.
 SCF   energy in the final basis set =     -152.8837777449
 Total energy in the final basis set =     -152.8837777449
 
 --------------------------------------------------------------
 
                    Orbital Energies (a.u.)
 --------------------------------------------------------------
 
 Alpha MOs
 -- Occupied --
-19.3396 -19.3248  -1.1468  -1.1299  -0.6387  -0.6295  -0.5168  -0.5028
 -0.4349  -0.4248
 -- Virtual --
  0.0258   0.0532   0.0642   0.0918   0.1782   0.1959   0.2195   0.2236
  0.2320   0.2357   0.2560   0.2742   0.2800   0.3056   0.3580   0.4311
  0.5776   0.6006   0.6416   0.6722   0.6947   0.7011   0.8005   0.8121
  0.8331   0.9405   0.9652   0.9670   1.0116   1.0653   1.0866   1.1235
  1.1557   1.2003   1.2879   1.4137   1.4760   1.4883   1.5483   1.8590
  1.8769   1.8845   1.8918   2.0158   2.0244   2.1195   2.2402   2.2809
  2.3429   2.4846   2.5838   2.6514   2.9253   2.9816   3.6541   3.6952
  3.7241   3.7270   3.8271   3.8696   3.9753   3.9841   4.1955   4.2181
  4.3113   4.4623   5.1034   5.1101   5.1356   5.2185   5.2264   5.2555
  5.3081   5.3582   5.4952   5.5162   5.5880   5.6840   5.7202   5.7276
  5.8190   5.8532   6.9821   7.0149   7.0218   7.0568   7.1069   7.1451
  7.1803   7.2314   7.3932   7.4436   7.4576   7.5262   7.6489   7.6883
 50.4898  50.5088
 --------------------------------------------------------------
 
          Ground-State Mulliken Net Atomic Charges

     Atom                 Charge (a.u.)
  ----------------------------------------
      1 H                     0.338665
      2 O                    -0.663620
      3 H                     0.337454
      4 H                     0.329510
      5 O                    -0.720041
      6 H                     0.378032
  ----------------------------------------
  Sum of atomic charges =     0.000000

 -----------------------------------------------------------------
                    Cartesian Multipole Moments
 -----------------------------------------------------------------
    Charge (ESU x 10^10)
                -0.0000
    Dipole Moment (Debye)
         X       0.9968      Y       0.7676      Z       3.2325
       Tot       3.4687
    Quadrupole Moments (Debye-Ang)
        XX      -8.5051     XY      -0.4209     YY     -15.2538
        XZ      -2.9668     YZ       8.2858     ZZ     -20.9869
    Octopole Moments (Debye-Ang^2)
       XXX       5.4747    XXY      -9.1250    XYY       0.1714
       YYY     -62.4894    XXZ       7.6902    XYZ      -4.7505
       YYZ      31.0248    XZZ       9.5979    YZZ     -32.7115
       ZZZ      60.3292
    Hexadecapole Moments (Debye-Ang^3)
      XXXX     -22.6862   XXXY      -2.0368   XXYY     -21.5422
      XYYY      -5.2612   YYYY    -199.9482   XXXZ       8.1221
      XXYZ      17.8095   XYYZ       0.3079   YYYZ     114.5226
      XXZZ     -29.2099   XYZZ       9.1800   YYZZ    -100.7173
      XZZZ       2.8102   YZZZ     118.2895   ZZZZ    -288.3985
 -----------------------------------------------------------------
 Calculating analytic gradient of the SCF energy
 Gradient of CDS energy
            1           2           3           4           5           6
    1   0.0003525   0.0000332  -0.0004526   0.0004543  -0.0001355  -0.0002519
    2   0.0000041  -0.0000877   0.0000831  -0.0000396   0.0001555  -0.0001154
    3   0.0003338  -0.0001086   0.0001435  -0.0001197  -0.0002038  -0.0000451
 Gradient of SCF Energy
            1           2           3           4           5           6
    1   0.0130269  -0.0036047  -0.0097414   0.0104865  -0.0109264   0.0007591
    2   0.0112355  -0.0262128   0.0124088  -0.0037295   0.0066466  -0.0003486
    3   0.0046019  -0.0060500   0.0011560   0.0042504  -0.0097087   0.0057503
 Max gradient component =       2.621E-02
 RMS gradient           =       9.825E-03
 Computing fast CPCM-SWIG gradient
 Updating gradient with PCM contributions...
 -- total gradient after adding PCM contribution --
---------------------------------------------------
  Atom         X              Y              Z     
---------------------------------------------------
   1       0.000149       0.000230      -0.000500
   2      -0.000037      -0.000828       0.001826
   3       0.000122       0.000201      -0.000409
   4       0.000132       0.000106      -0.000117
   5       0.000488      -0.000284       0.001493
   6      -0.000854       0.000574      -0.002294
---------------------------------------------------
 Number of fixed atoms: 0
 Gradient time:  CPU 8.62 s  wall 1.32 s
 Geometry Optimization Parameters
   NAtoms,    NIC,     NZ,  NCons,   NDum,   NFix, NCnnct, MaxDiis
        6      25       0       0       0       0       0       0

 Cartesian Hessian Update
 Hessian updated using BFGS update


** GEOMETRY OPTIMIZATION IN DELOCALIZED INTERNAL COORDINATES **
   Searching for a Minimum

   Optimization Cycle:   5

                       Coordinates (Angstroms)
     ATOM                X               Y               Z
      1  H         0.1246819527    1.2272002975    0.8084887676
      2  O        -0.6146904623    0.7606433089    0.4033313560
      3  H        -1.3678368599    1.3464933738    0.5374497726
      4  H         1.1882006413    1.5119542031   -2.1846744579
      5  O         0.2599887199    1.7629519496   -2.2237227158
      6  H        -0.1297672917    1.3788760671   -1.4240609225
   Point Group: c1    Number of degrees of freedom:    12


   Energy is   -152.883777745

 Hessian updated using BFGS update

 12 Hessian modes will be used to form the next step
  Hessian Eigenvalues:
     0.001998    0.009027    0.016505    0.095929    0.108908    0.159961
     0.160075    0.161502    0.494455    0.494732    0.496935    0.614129

 Minimum search - taking simple RFO step
 Searching for Lamda that Minimizes Along All modes
 Value Taken    Lamda =  -0.00014720
 Step Taken.  Stepsize is  0.087910

                             Maximum     Tolerance    Cnvgd?
         Gradient           0.001600      0.000300      NO
         Displacement       0.069438      0.001200      NO
         Energy change     -0.000248      0.000001      NO


 New Cartesian Coordinates Obtained by Inverse Iteration

 Displacement from previous Coordinates is:  0.183001
 ----------------------------------------------------------------
             Standard Nuclear Orientation (Angstroms)
    I     Atom           X                Y                Z
 ----------------------------------------------------------------
    1      H       0.1018180157     1.2254726001     0.8603693580
    2      O      -0.6148298728     0.7660979932     0.4084528117
    3      H      -1.3846118060     1.3274381501     0.5538133937
    4      H       1.1896972762     1.4996266879    -2.2398244618
    5      O       0.2655337525     1.7685105176    -2.2430557767
    6      H      -0.0970306656     1.4009732511    -1.4229435249
 ----------------------------------------------------------------
 Nuclear Repulsion Energy =          36.44202669 hartrees
 There are       10 alpha and       10 beta electrons
 Discretize the solute cavity surface with Lebedev spheres
	Using 110 Lebedev grid points for each H atom
	Using 194 Lebedev grid points for other atoms
	Atomic van der Waals radii will be scaled by 1.20
 Remove points where switching function is < 1.0e-08
 Keep 561 surface tesserae and discard 267 interior tesserae
 Molecular Surface Area = 66.559 Angst**2
 Applying Cartesian multipole field
    Component          Value
    ---------          -----
     (2,0,0)        1.00000E-11
     (0,2,0)        2.00000E-11
     (0,0,2)       -3.00000E-11
 Nucleus-field energy     =    -0.0000000024 hartrees
 Requested basis set is 6-311++G(2df,2p)
 There are 40 shells and 108 basis functions
 A cutoff of  1.0D-12 yielded    788 shell pairs
 There are      5795 function pairs (      6960 Cartesian)
 Smallest overlap matrix eigenvalue = 9.17E-04
 Guess MOs from SCF MO coefficient file

 -----------------------------------------------------------------------
  General SCF calculation program by
  Eric Jon Sundstrom, Paul Horn, Yuezhi Mao, Dmitri Zuev, Alec White,
  David Stuck, Shaama M.S., Shane Yost, Joonho Lee, David Small,
  Daniel Levine, Susi Lehtola, Hugh Burton, Evgeny Epifanovsky,
  Bang C. Huynh
 -----------------------------------------------------------------------
 Exchange:     0.1500 Hartree-Fock + 1.0000 wB97M-V + LR-HF
 Correlation:  1.0000 wB97M-V
 Using SG-2 standard quadrature grid
 Nonlocal Correlation:  VV10 with C = 0.0100 and b = 6.00 and scale = 1.00000
 Grid used for NLC:  SG-1 standard quadrature
 
 Citation of the SMD model:
 Marenich, A.V.; Cramer, C.J.; Truhlar, D.G.
 J. Phys. Chem. B 2009, 113, 6378-6396.
 iSolventCode=           1
 Solvent: water                                                           
 
 vradii
            1           2           3           4           5           6
    1   1.2000000   1.5200000   1.2000000   1.2000000   1.5200000   1.2000000
 -------------------------------------------------------
 OpenMP BLAS3 based DFT computing Module                
 Release: version 1.0, May 2013, Q-Chem Inc. Pittsburgh 
 -------------------------------------------------------
 A restricted SCF calculation will be
 performed using Roothaan-Hall, DIIS, GDM
 SCF converges when RMS gradient is below 1.0e-07
 ---------------------------------------
  Cycle       Energy         DIIS error
 ---------------------------------------
    1    -152.8564097826      1.54e-03  Roothaan Step
 ---------------------------------------
  Cycle       Energy         DIIS error
 ---------------------------------------
    1    -152.8833861563      1.46e-03  
    2    -152.8865644725      1.09e-03  Done DIIS. Switching to GDM
 ---------------------------------------
  Cycle       Energy        RMS Gradient
 ---------------------------------------
    1    -152.8865644725      1.03e-02   Normal BFGS step
    2    -152.8866834075      1.07e-02   Normal BFGS step
    3    -152.8877540914      1.11e-03   Normal BFGS step
    4    -152.8877643835      4.56e-04   Normal BFGS step
    5    -152.8877657062      8.47e-05   Normal BFGS step
    6    -152.8877657701      6.21e-05   Normal BFGS step
    7    -152.8877658212      6.32e-06   Normal BFGS step
    8    -152.8877658215      1.30e-06   Normal BFGS step
    9    -152.8877658215      3.32e-07   Normal BFGS step
   10    -152.8877658215      9.84e-08  Convergence criterion met
 ---------------------------------------
 SCF time:   CPU 62.31s  wall 9.00s 
(3)  G-ENP(liq) elect-nuc-pol free energy of system     -152.887765822 a.u.
(4)  G-CDS(liq) cavity-dispersion-solvent structure 
     free energy                                                2.4331 kcal/mol
(6)  G-S(liq) free energy of system                     -152.883888364 a.u.
 SCF   energy in the final basis set =     -152.8838883644
 Total energy in the final basis set =     -152.8838883644
 
 --------------------------------------------------------------
 
                    Orbital Energies (a.u.)
 --------------------------------------------------------------
 
 Alpha MOs
 -- Occupied --
-19.3394 -19.3252  -1.1462  -1.1302  -0.6382  -0.6295  -0.5172  -0.5020
 -0.4348  -0.4252
 -- Virtual --
  0.0257   0.0527   0.0642   0.0920   0.1779   0.1956   0.2194   0.2239
  0.2317   0.2361   0.2550   0.2738   0.2794   0.3048   0.3602   0.4296
  0.5800   0.6044   0.6437   0.6729   0.6907   0.7005   0.8016   0.8128
  0.8402   0.9370   0.9604   0.9680   1.0114   1.0603   1.0864   1.1234
  1.1525   1.1911   1.2871   1.4138   1.4776   1.4866   1.5496   1.8510
  1.8755   1.8837   1.9069   2.0159   2.0180   2.0940   2.2410   2.2864
  2.3446   2.4847   2.5842   2.6510   2.9223   2.9835   3.6489   3.7007
  3.7259   3.7303   3.8260   3.8491   3.9774   3.9803   4.1924   4.2163
  4.3100   4.4597   5.1010   5.1097   5.1356   5.2154   5.2272   5.2553
  5.3087   5.3614   5.4971   5.5205   5.5872   5.6861   5.7192   5.7262
  5.8176   5.8527   6.9801   7.0139   7.0216   7.0563   7.1033   7.1419
  7.1799   7.2252   7.3917   7.4427   7.4563   7.5237   7.6511   7.6866
 50.4891  50.5041
 --------------------------------------------------------------
 
          Ground-State Mulliken Net Atomic Charges

     Atom                 Charge (a.u.)
  ----------------------------------------
      1 H                     0.336496
      2 O                    -0.660214
      3 H                     0.335606
      4 H                     0.330064
      5 O                    -0.719105
      6 H                     0.377153
  ----------------------------------------
  Sum of atomic charges =     0.000000

 -----------------------------------------------------------------
                    Cartesian Multipole Moments
 -----------------------------------------------------------------
    Charge (ESU x 10^10)
                 0.0000
    Dipole Moment (Debye)
         X       0.9665      Y       0.7003      Z       3.3117
       Tot       3.5203
    Quadrupole Moments (Debye-Ang)
        XX      -8.4822     XY      -0.4682     YY     -15.4640
        XZ      -3.2277     YZ       8.4440     ZZ     -20.5487
    Octopole Moments (Debye-Ang^2)
       XXX       5.1747    XXY      -9.3110    XYY       0.0266
       YYY     -63.1786    XXZ       7.7733    XYZ      -4.9352
       YYZ      31.4552    XZZ      10.1852    YZZ     -32.4739
       ZZZ      60.1362
    Hexadecapole Moments (Debye-Ang^3)
      XXXX     -22.5878   XXXY      -2.4693   XXYY     -22.1812
      XYYY      -5.7605   YYYY    -202.0807   XXXZ       8.2823
      XXYZ      18.1952   XYYZ       0.6000   YYYZ     116.1773
      XXZZ     -29.2117   XYZZ       9.6736   YYZZ    -101.8082
      XZZZ       1.1594   YZZZ     119.1693   ZZZZ    -289.7696
 -----------------------------------------------------------------
 Calculating analytic gradient of the SCF energy
 Gradient of CDS energy
            1           2           3           4           5           6
    1   0.0003490   0.0000343  -0.0004538   0.0004480  -0.0001409  -0.0002367
    2   0.0000103  -0.0001076   0.0000834  -0.0000497   0.0001556  -0.0000920
    3   0.0003284  -0.0000906   0.0001161  -0.0001384  -0.0001995  -0.0000160
 Gradient of SCF Energy
            1           2           3           4           5           6
    1   0.0125435  -0.0030099  -0.0101680   0.0103386  -0.0112186   0.0015145
    2   0.0112087  -0.0258655   0.0121164  -0.0039354   0.0068214  -0.0003456
    3   0.0059490  -0.0075608   0.0018814   0.0038484  -0.0094619   0.0053439
 Max gradient component =       2.587E-02
 RMS gradient           =       9.825E-03
 Computing fast CPCM-SWIG gradient
 Updating gradient with PCM contributions...
 -- total gradient after adding PCM contribution --
---------------------------------------------------
  Atom         X              Y              Z     
---------------------------------------------------
   1       0.000220       0.000336      -0.000197
   2      -0.000227      -0.001240       0.001787
   3      -0.000039       0.000336      -0.000174
   4       0.000224       0.000002      -0.000015
   5       0.000298      -0.000032       0.000750
   6      -0.000476       0.000597      -0.002151
---------------------------------------------------
 Number of fixed atoms: 0
 Gradient time:  CPU 10.17 s  wall 1.39 s
 Geometry Optimization Parameters
   NAtoms,    NIC,     NZ,  NCons,   NDum,   NFix, NCnnct, MaxDiis
        6      25       0       0       0       0       0       0

 Cartesian Hessian Update
 Hessian updated using BFGS update


** GEOMETRY OPTIMIZATION IN DELOCALIZED INTERNAL COORDINATES **
   Searching for a Minimum

   Optimization Cycle:   6

                       Coordinates (Angstroms)
     ATOM                X               Y               Z
      1  H         0.1018180157    1.2254726001    0.8603693580
      2  O        -0.6148298728    0.7660979932    0.4084528117
      3  H        -1.3846118060    1.3274381501    0.5538133937
      4  H         1.1896972762    1.4996266879   -2.2398244618
      5  O         0.2655337525    1.7685105176   -2.2430557767
      6  H        -0.0970306656    1.4009732511   -1.4229435249
   Point Group: c1    Number of degrees of freedom:    12


   Energy is   -152.883888364

 Hessian updated using BFGS update

 12 Hessian modes will be used to form the next step
  Hessian Eigenvalues:
     0.001957    0.007495    0.014407    0.066959    0.108953    0.159719
     0.160082    0.161774    0.494421    0.495069    0.495875    0.614137

 Minimum search - taking simple RFO step
 Searching for Lamda that Minimizes Along All modes
 Value Taken    Lamda =  -0.00015553
 Step Taken.  Stepsize is  0.113060

                             Maximum     Tolerance    Cnvgd?
         Gradient           0.001583      0.000300      NO
         Displacement       0.082507      0.001200      NO
         Energy change     -0.000111      0.000001      NO


 New Cartesian Coordinates Obtained by Inverse Iteration

 Displacement from previous Coordinates is:  0.217350
 ----------------------------------------------------------------
             Standard Nuclear Orientation (Angstroms)
    I     Atom           X                Y                Z
 ----------------------------------------------------------------
    1      H       0.0737471144     1.2261492533     0.9174827176
    2      O      -0.6090156376     0.7770111953     0.4066974487
    3      H      -1.4030424326     1.3001957264     0.5636232323
    4      H       1.1833348924     1.4770956550    -2.3044846368
    5      O       0.2700107512     1.7769212363    -2.2560695715
    6      H      -0.0544579878     1.4307461336    -1.4104373903
 ----------------------------------------------------------------
 Nuclear Repulsion Energy =          36.32912108 hartrees
 There are       10 alpha and       10 beta electrons
 Discretize the solute cavity surface with Lebedev spheres
	Using 110 Lebedev grid points for each H atom
	Using 194 Lebedev grid points for other atoms
	Atomic van der Waals radii will be scaled by 1.20
 Remove points where switching function is < 1.0e-08
 Keep 556 surface tesserae and discard 272 interior tesserae
 Molecular Surface Area = 66.579 Angst**2
 Applying Cartesian multipole field
    Component          Value
    ---------          -----
     (2,0,0)        1.00000E-11
     (0,2,0)        2.00000E-11
     (0,0,2)       -3.00000E-11
 Nucleus-field energy     =    -0.0000000025 hartrees
 Requested basis set is 6-311++G(2df,2p)
 There are 40 shells and 108 basis functions
 A cutoff of  1.0D-12 yielded    786 shell pairs
 There are      5781 function pairs (      6945 Cartesian)
 Smallest overlap matrix eigenvalue = 8.99E-04
 Guess MOs from SCF MO coefficient file

 -----------------------------------------------------------------------
  General SCF calculation program by
  Eric Jon Sundstrom, Paul Horn, Yuezhi Mao, Dmitri Zuev, Alec White,
  David Stuck, Shaama M.S., Shane Yost, Joonho Lee, David Small,
  Daniel Levine, Susi Lehtola, Hugh Burton, Evgeny Epifanovsky,
  Bang C. Huynh
 -----------------------------------------------------------------------
 Exchange:     0.1500 Hartree-Fock + 1.0000 wB97M-V + LR-HF
 Correlation:  1.0000 wB97M-V
 Using SG-2 standard quadrature grid
 Nonlocal Correlation:  VV10 with C = 0.0100 and b = 6.00 and scale = 1.00000
 Grid used for NLC:  SG-1 standard quadrature
 
 Citation of the SMD model:
 Marenich, A.V.; Cramer, C.J.; Truhlar, D.G.
 J. Phys. Chem. B 2009, 113, 6378-6396.
 iSolventCode=           1
 Solvent: water                                                           
 
 vradii
            1           2           3           4           5           6
    1   1.2000000   1.5200000   1.2000000   1.2000000   1.5200000   1.2000000
 -------------------------------------------------------
 OpenMP BLAS3 based DFT computing Module                
 Release: version 1.0, May 2013, Q-Chem Inc. Pittsburgh 
 -------------------------------------------------------
 A restricted SCF calculation will be
 performed using Roothaan-Hall, DIIS, GDM
 SCF converges when RMS gradient is below 1.0e-07
 ---------------------------------------
  Cycle       Energy         DIIS error
 ---------------------------------------
    1    -152.8559926465      1.69e-03  Roothaan Step
 ---------------------------------------
  Cycle       Energy         DIIS error
 ---------------------------------------
    1    -152.8835559798      1.45e-03  
    2    -152.8866991569      1.10e-03  Done DIIS. Switching to GDM
 ---------------------------------------
  Cycle       Energy        RMS Gradient
 ---------------------------------------
    1    -152.8866991569      1.25e-02   Normal BFGS step
    2    -152.8868157669      1.10e-02   Normal BFGS step
    3    -152.8878981175      1.11e-03   Normal BFGS step
    4    -152.8879085209      4.57e-04   Normal BFGS step
    5    -152.8879098535      9.38e-05   Normal BFGS step
    6    -152.8879099311      6.60e-05   Normal BFGS step
    7    -152.8879099843      6.69e-06   Normal BFGS step
    8    -152.8879099847      1.50e-06   Normal BFGS step
    9    -152.8879099847      3.80e-07   Normal BFGS step
   10    -152.8879099847      1.03e-07   Normal BFGS step
   11    -152.8879099847      1.60e-08  Convergence criterion met
 ---------------------------------------
 SCF time:   CPU 61.25s  wall 9.00s 
(3)  G-ENP(liq) elect-nuc-pol free energy of system     -152.887909985 a.u.
(4)  G-CDS(liq) cavity-dispersion-solvent structure 
     free energy                                                2.4504 kcal/mol
(6)  G-S(liq) free energy of system                     -152.884005070 a.u.
 SCF   energy in the final basis set =     -152.8840050697
 Total energy in the final basis set =     -152.8840050697
 
 --------------------------------------------------------------
 
                    Orbital Energies (a.u.)
 --------------------------------------------------------------
 
 Alpha MOs
 -- Occupied --
-19.3394 -19.3253  -1.1460  -1.1302  -0.6380  -0.6295  -0.5180  -0.5009
 -0.4349  -0.4255
 -- Virtual --
  0.0257   0.0523   0.0642   0.0923   0.1777   0.1955   0.2189   0.2248
  0.2311   0.2369   0.2548   0.2734   0.2790   0.3047   0.3618   0.4261
  0.5824   0.6073   0.6448   0.6722   0.6849   0.7062   0.8025   0.8131
  0.8484   0.9358   0.9552   0.9697   1.0104   1.0536   1.0870   1.1235
  1.1545   1.1827   1.2882   1.4135   1.4771   1.4877   1.5491   1.8388
  1.8732   1.8832   1.9313   2.0031   2.0220   2.0765   2.2419   2.2934
  2.3473   2.4799   2.5848   2.6498   2.9201   2.9868   3.6445   3.7047
  3.7263   3.7380   3.8296   3.8322   3.9756   3.9818   4.1890   4.2161
  4.3102   4.4589   5.0991   5.1096   5.1357   5.2119   5.2298   5.2543
  5.3091   5.3662   5.4988   5.5258   5.5863   5.6883   5.7184   5.7247
  5.8166   5.8535   6.9786   7.0133   7.0214   7.0588   7.0994   7.1389
  7.1795   7.2241   7.3913   7.4424   7.4560   7.5212   7.6537   7.6854
 50.4881  50.5014
 --------------------------------------------------------------
 
          Ground-State Mulliken Net Atomic Charges

     Atom                 Charge (a.u.)
  ----------------------------------------
      1 H                     0.334867
      2 O                    -0.657095
      3 H                     0.334480
      4 H                     0.330631
      5 O                    -0.718410
      6 H                     0.375526
  ----------------------------------------
  Sum of atomic charges =     0.000000

 -----------------------------------------------------------------
                    Cartesian Multipole Moments
 -----------------------------------------------------------------
    Charge (ESU x 10^10)
                 0.0000
    Dipole Moment (Debye)
         X       0.9022      Y       0.5762      Z       3.4040
       Tot       3.5683
    Quadrupole Moments (Debye-Ang)
        XX      -8.4727     XY      -0.5429     YY     -15.8188
        XZ      -3.5486     YZ       8.6482     ZZ     -19.9079
    Octopole Moments (Debye-Ang^2)
       XXX       4.6355    XXY      -9.6916    XYY      -0.2075
       YYY     -64.3240    XXZ       7.9640    XYZ      -5.0621
       YYZ      32.0368    XZZ      10.8629    YZZ     -32.2135
       ZZZ      59.3777
    Hexadecapole Moments (Debye-Ang^3)
      XXXX     -22.2625   XXXY      -3.0941   XXYY     -23.2434
      XYYY      -6.4354   YYYY    -205.5245   XXXZ       8.4126
      XXYZ      18.7938   XYYZ       1.1117   YYYZ     118.1901
      XXZZ     -29.0790   XYZZ      10.1505   YYZZ    -103.0102
[...]
 --------------------------------------------------------------
 
          Ground-State Mulliken Net Atomic Charges

     Atom                 Charge (a.u.)
  ----------------------------------------
      1 H                     0.340155
      2 O                    -0.662416
      3 H                     0.340442
      4 H                     0.329825
      5 O                    -0.729700
      6 H                     0.381694
  ----------------------------------------
  Sum of atomic charges =     0.000000

 -----------------------------------------------------------------
                    Cartesian Multipole Moments
 -----------------------------------------------------------------
    Charge (ESU x 10^10)
                 0.0000
    Dipole Moment (Debye)
         X       0.4482      Y      -0.2096      Z       3.6590
       Tot       3.6923
    Quadrupole Moments (Debye-Ang)
        XX      -8.6576     XY      -0.9256     YY     -17.8331
        XZ      -3.9544     YZ       9.3951     ZZ     -17.8257
    Octopole Moments (Debye-Ang^2)
       XXX       2.0498    XXY     -11.8118    XYY      -1.2933
       YYY     -70.6960    XXZ       9.1767    XYZ      -4.3768
       YYZ      34.2435    XZZ      11.2201    YZZ     -32.2699
       ZZZ      54.7778
    Hexadecapole Moments (Debye-Ang^3)
      XXXX     -20.3162   XXXY      -5.1809   XXYY     -27.8504
      XYYY      -8.6266   YYYY    -223.9705   XXXZ       8.6214
      XXYZ      21.0674   XYYZ       3.3749   YYYZ     123.6515
      XXZZ     -28.2532   XYZZ       9.5320   YYZZ    -105.1560
      XZZZ      -6.9579   YZZZ     116.9197   ZZZZ    -254.1167
 -----------------------------------------------------------------
 Calculating analytic gradient of the SCF energy
 Gradient of CDS energy
            1           2           3           4           5           6
    1   0.0003859  -0.0000094  -0.0004616   0.0003898  -0.0001507  -0.0001540
    2   0.0000990  -0.0002749   0.0000849  -0.0001225   0.0001918   0.0000217
    3   0.0002513   0.0000324  -0.0000400  -0.0002342  -0.0001597   0.0001501
 Gradient of SCF Energy
            1           2           3           4           5           6
    1   0.0091871   0.0026766  -0.0124966   0.0079975  -0.0104634   0.0030988
    2   0.0089232  -0.0179168   0.0079948  -0.0053532   0.0082630  -0.0019110
    3   0.0115647  -0.0170251   0.0042901   0.0017175  -0.0056565   0.0051094
 Max gradient component =       1.792E-02
 RMS gradient           =       9.126E-03
 Computing fast CPCM-SWIG gradient
 Updating gradient with PCM contributions...
 -- total gradient after adding PCM contribution --
---------------------------------------------------
  Atom         X              Y              Z     
---------------------------------------------------
   1       0.000143       0.000174       0.000166
   2      -0.000090      -0.000174      -0.000381
   3      -0.000096       0.000052       0.000166
   4       0.000181       0.000021       0.000003
   5      -0.000219       0.000141      -0.000387
   6       0.000080      -0.000214       0.000433
---------------------------------------------------
 Number of fixed atoms: 0
 Gradient time:  CPU 9.69 s  wall 1.34 s
 Geometry Optimization Parameters
   NAtoms,    NIC,     NZ,  NCons,   NDum,   NFix, NCnnct, MaxDiis
        6      25       0       0       0       0       0       0

 Cartesian Hessian Update
 Hessian updated using BFGS update


** GEOMETRY OPTIMIZATION IN CARTESIAN COORDINATES **
   Searching for a Minimum

   Optimization Cycle:  24

                       Coordinates (Angstroms)
     ATOM                X               Y               Z
      1  H         0.0182758557    1.2405489687    1.0085386136
      2  O        -0.5480365021    0.8544498502    0.3311496757
      3  H        -1.4222208766    1.2166061242    0.5134127266
      4  H         1.1087904448    1.3869701860   -2.4115321056
      5  O         0.2742823186    1.8171999983   -2.2012246942
      6  H         0.0294854597    1.4723440726   -1.3235324161
   Point Group: c1    Number of degrees of freedom:    12


   Energy is   -152.884475574


 Translations and Rotations Projected Out of Hessian

 12 Hessian modes will be used to form the next step
  Hessian Eigenvalues:
     0.002800    0.008296    0.022236    0.169054    0.310331    0.560113
     0.878163    0.982435    0.992317    1.077211    1.289743    1.710777

 Minimum search - taking simple RFO step
 Searching for Lamda that Minimizes Along All modes
 Value Taken    Lamda =  -0.00000131
 Step Taken.  Stepsize is  0.007749

                             Maximum     Tolerance    Cnvgd?
         Gradient           0.000433      0.000300      NO
         Displacement       0.004419      0.001200      NO
         Energy change     -0.000004      0.000001      NO

 ----------------------------------------------------------------
             Standard Nuclear Orientation (Angstroms)
    I     Atom           X                Y                Z
 ----------------------------------------------------------------
    1      H       0.0174884129     1.2400110609     1.0108770123
    2      O      -0.5473847016     0.8562167925     0.3312910626
    3      H      -1.4226274008     1.2156887062     0.5133076320
    4      H       1.1083635998     1.3866437026    -2.4131704394
    5      O       0.2750010745     1.8180293627    -2.2010101898
    6      H       0.0297357151     1.4715295750    -1.3244832777
 ----------------------------------------------------------------
 Nuclear Repulsion Energy =          37.09800103 hartrees
 There are       10 alpha and       10 beta electrons
 Discretize the solute cavity surface with Lebedev spheres
	Using 110 Lebedev grid points for each H atom
	Using 194 Lebedev grid points for other atoms
	Atomic van der Waals radii will be scaled by 1.20
 Remove points where switching function is < 1.0e-08
 Keep 541 surface tesserae and discard 287 interior tesserae
 Molecular Surface Area = 65.640 Angst**2
 Applying Cartesian multipole field
    Component          Value
    ---------          -----
     (2,0,0)        1.00000E-11
     (0,2,0)        2.00000E-11
     (0,0,2)       -3.00000E-11
 Nucleus-field energy     =    -0.0000000022 hartrees
 Requested basis set is 6-311++G(2df,2p)
 There are 40 shells and 108 basis functions
 A cutoff of  1.0D-12 yielded    784 shell pairs
 There are      5775 function pairs (      6939 Cartesian)
 Smallest overlap matrix eigenvalue = 9.04E-04
 Guess MOs from SCF MO coefficient file

 -----------------------------------------------------------------------
  General SCF calculation program by
  Eric Jon Sundstrom, Paul Horn, Yuezhi Mao, Dmitri Zuev, Alec White,
  David Stuck, Shaama M.S., Shane Yost, Joonho Lee, David Small,
  Daniel Levine, Susi Lehtola, Hugh Burton, Evgeny Epifanovsky,
  Bang C. Huynh
 -----------------------------------------------------------------------
 Exchange:     0.1500 Hartree-Fock + 1.0000 wB97M-V + LR-HF
 Correlation:  1.0000 wB97M-V
 Using SG-2 standard quadrature grid
 Nonlocal Correlation:  VV10 with C = 0.0100 and b = 6.00 and scale = 1.00000
 Grid used for NLC:  SG-1 standard quadrature
 
 Citation of the SMD model:
 Marenich, A.V.; Cramer, C.J.; Truhlar, D.G.
 J. Phys. Chem. B 2009, 113, 6378-6396.
 iSolventCode=           1
 Solvent: water                                                           
 
 vradii
            1           2           3           4           5           6
    1   1.2000000   1.5200000   1.2000000   1.2000000   1.5200000   1.2000000
 -------------------------------------------------------
 OpenMP BLAS3 based DFT computing Module                
 Release: version 1.0, May 2013, Q-Chem Inc. Pittsburgh 
 -------------------------------------------------------
 A restricted SCF calculation will be
 performed using Roothaan-Hall, DIIS, GDM
 SCF converges when RMS gradient is below 1.0e-07
 ---------------------------------------
  Cycle       Energy         DIIS error
 ---------------------------------------
    1    -152.8587069099      1.26e-03  Roothaan Step
 ---------------------------------------
  Cycle       Energy         DIIS error
 ---------------------------------------
    1    -152.8845344690      1.35e-03  
    2    -152.8872694985      1.04e-03  Done DIIS. Switching to GDM
 ---------------------------------------
  Cycle       Energy        RMS Gradient
 ---------------------------------------
    1    -152.8872694985      1.36e-02   Normal BFGS step
    2    -152.8873753084      1.10e-02   Normal BFGS step
    3    -152.8883324340      1.04e-03   Normal BFGS step
    4    -152.8883414449      4.29e-04   Normal BFGS step
    5    -152.8883424988      1.32e-04   Normal BFGS step
    6    -152.8883427197      6.45e-05   Normal BFGS step
    7    -152.8883427546      1.02e-05   Normal BFGS step
    8    -152.8883427552      1.12e-06   Normal BFGS step
    9    -152.8883427552      2.62e-07   Normal BFGS step
   10    -152.8883427552      4.82e-08  Convergence criterion met
 ---------------------------------------
 SCF time:   CPU 61.44s  wall 9.00s 
(3)  G-ENP(liq) elect-nuc-pol free energy of system     -152.888342755 a.u.
(4)  G-CDS(liq) cavity-dispersion-solvent structure 
     free energy                                                2.4262 kcal/mol
(6)  G-S(liq) free energy of system                     -152.884476431 a.u.
 SCF   energy in the final basis set =     -152.8844764313
 Total energy in the final basis set =     -152.8844764313
 
 --------------------------------------------------------------
 
                    Orbital Energies (a.u.)
 --------------------------------------------------------------
 
 Alpha MOs
 -- Occupied --
-19.3411 -19.3213  -1.1487  -1.1260  -0.6409  -0.6294  -0.5236  -0.4934
 -0.4365  -0.4228
 -- Virtual --
  0.0260   0.0520   0.0647   0.0931   0.1795   0.1970   0.2175   0.2265
  0.2326   0.2424   0.2611   0.2741   0.2777   0.3116   0.3596   0.4076
  0.5834   0.6080   0.6421   0.6599   0.6792   0.7291   0.8112   0.8182
  0.8643   0.9306   0.9563   0.9821   1.0008   1.0458   1.1029   1.1282
  1.1918   1.2177   1.3219   1.4094   1.4707   1.4919   1.5305   1.7664
  1.8510   1.8843   1.9843   2.0015   2.0629   2.1719   2.2599   2.3129
  2.3570   2.4529   2.5767   2.6805   2.9134   3.0020   3.6421   3.7136
  3.7300   3.7594   3.8343   3.8603   3.9760   4.0053   4.1795   4.2249
  4.3246   4.4689   5.1124   5.1166   5.1440   5.2164   5.2409   5.2592
  5.3084   5.3996   5.5021   5.5414   5.5863   5.6651   5.7136   5.7225
  5.8203   5.8618   6.9893   7.0216   7.0378   7.0892   7.0943   7.1431
  7.1855   7.2787   7.4140   7.4508   7.4526   7.5102   7.6540   7.6951
 50.4839  50.5107
 --------------------------------------------------------------
 
          Ground-State Mulliken Net Atomic Charges

     Atom                 Charge (a.u.)
  ----------------------------------------
      1 H                     0.340223
      2 O                    -0.662573
      3 H                     0.340527
      4 H                     0.329814
      5 O                    -0.729448
      6 H                     0.381457
  ----------------------------------------
  Sum of atomic charges =     0.000000

 -----------------------------------------------------------------
                    Cartesian Multipole Moments
 -----------------------------------------------------------------
    Charge (ESU x 10^10)
                -0.0000
    Dipole Moment (Debye)
         X       0.4400      Y      -0.2252      Z       3.6569
       Tot       3.6901
    Quadrupole Moments (Debye-Ang)
        XX      -8.6564     XY      -0.9317     YY     -17.8723
        XZ      -3.9540     YZ       9.3979     ZZ     -17.7869
    Octopole Moments (Debye-Ang^2)
       XXX       2.0113    XXY     -11.8369    XYY      -1.3088
       YYY     -70.8213    XXZ       9.1809    XYZ      -4.3666
       YYZ      34.2587    XZZ      11.2165    YZZ     -32.2607
       ZZZ      54.7062
    Hexadecapole Moments (Debye-Ang^3)
      XXXX     -20.2988   XXXY      -5.2132   XXYY     -27.9111
      XYYY      -8.6620   YYYY    -224.3326   XXXZ       8.6518
      XXYZ      21.0821   XYYZ       3.4108   YYYZ     123.7132
      XXZZ     -28.2456   XYZZ       9.5235   YYZZ    -105.1960
      XZZZ      -6.9793   YZZZ     116.8855   ZZZZ    -253.8312
 -----------------------------------------------------------------
 Calculating analytic gradient of the SCF energy
 Gradient of CDS energy
            1           2           3           4           5           6
    1   0.0003851  -0.0000085  -0.0004616   0.0003895  -0.0001505  -0.0001540
    2   0.0000988  -0.0002739   0.0000845  -0.0001228   0.0001928   0.0000206
    3   0.0002525   0.0000315  -0.0000401  -0.0002346  -0.0001593   0.0001500
 Gradient of SCF Energy
            1           2           3           4           5           6
    1   0.0090937   0.0028029  -0.0125084   0.0079294  -0.0104359   0.0031182
    2   0.0087226  -0.0175373   0.0078589  -0.0053357   0.0081664  -0.0018748
    3   0.0114732  -0.0168311   0.0042210   0.0016807  -0.0052853   0.0047414
 Max gradient component =       1.754E-02
 RMS gradient           =       9.002E-03
 Computing fast CPCM-SWIG gradient
 Updating gradient with PCM contributions...
 -- total gradient after adding PCM contribution --
---------------------------------------------------
  Atom         X              Y              Z     
---------------------------------------------------
   1       0.000091       0.000050       0.000026
   2      -0.000043       0.000039      -0.000157
   3      -0.000077      -0.000013       0.000091
   4       0.000136       0.000060      -0.000008
   5      -0.000216       0.000007      -0.000097
   6       0.000109      -0.000143       0.000144
---------------------------------------------------
 Number of fixed atoms: 0
 Gradient time:  CPU 8.64 s  wall 1.15 s
 Geometry Optimization Parameters
   NAtoms,    NIC,     NZ,  NCons,   NDum,   NFix, NCnnct, MaxDiis
        6      25       0       0       0       0       0       0

 Cartesian Hessian Update
 Hessian updated using BFGS update


** GEOMETRY OPTIMIZATION IN CARTESIAN COORDINATES **
   Searching for a Minimum

   Optimization Cycle:  25

                       Coordinates (Angstroms)
     ATOM                X               Y               Z
      1  H         0.0174884129    1.2400110609    1.0108770123
      2  O        -0.5473847016    0.8562167925    0.3312910626
      3  H        -1.4226274008    1.2156887062    0.5133076320
      4  H         1.1083635998    1.3866437026   -2.4131704394
      5  O         0.2750010745    1.8180293627   -2.2010101898
      6  H         0.0297357151    1.4715295750   -1.3244832777
   Point Group: c1    Number of degrees of freedom:    12


   Energy is   -152.884476431


 Translations and Rotations Projected Out of Hessian

 12 Hessian modes will be used to form the next step
  Hessian Eigenvalues:
     0.002729    0.008232    0.019608    0.190230    0.292538    0.474249
     0.875913    0.929586    0.986581    1.092743    1.313268    1.597782

 Minimum search - taking simple RFO step
 Searching for Lamda that Minimizes Along All modes
 Value Taken    Lamda =  -0.00000045
 Step Taken.  Stepsize is  0.004065

                             Maximum     Tolerance    Cnvgd?
         Gradient           0.000216      0.000300     YES
         Displacement       0.002281      0.001200      NO
         Energy change     -0.000001      0.000001     YES


                       Distance Matrix (Angstroms)
             H (  1)   O (  2)   H (  3)   H (  4)   O (  5)
   O (  2)  0.963440
   H (  3)  1.523844  0.963535
   H (  4)  3.596611  3.248834  3.872908
   O (  5)  3.273628  2.830892  3.257649  0.962080
   H (  6)  2.346840  1.858297  2.356329  1.534889  0.973918
 
 Final energy is   -152.884476431305     


 ******************************
 **  OPTIMIZATION CONVERGED  **
 ******************************

                       Coordinates (Angstroms)
     ATOM                X               Y               Z
      1  H         0.0174884129    1.2400110609    1.0108770123
      2  O        -0.5473847016    0.8562167925    0.3312910626
      3  H        -1.4226274008    1.2156887062    0.5133076320
      4  H         1.1083635998    1.3866437026   -2.4131704394
      5  O         0.2750010745    1.8180293627   -2.2010101898
      6  H         0.0297357151    1.4715295750   -1.3244832777

Z-matrix Print:
$molecule
0 1
O 
H  1 0.963440
H  1 0.963535 2 104.519896
H  1 1.858297 2 108.331314 3 116.202067 0
O  4 0.973918 1 176.313583 2 -121.178408 0
H  5 0.962080 4 104.897080 1 -166.756565 0
$end

 
 --------------------------------------------------------------
 
                    Orbital Energies (a.u.)
 --------------------------------------------------------------
 
 Alpha MOs
 -- Occupied --
-19.3411 -19.3213  -1.1487  -1.1260  -0.6409  -0.6294  -0.5236  -0.4934
 -0.4365  -0.4228
 -- Virtual --
  0.0260   0.0520   0.0647   0.0931   0.1795   0.1970   0.2175   0.2265
  0.2326   0.2424   0.2611   0.2741   0.2777   0.3116   0.3596   0.4076
  0.5834   0.6080   0.6421   0.6599   0.6792   0.7291   0.8112   0.8182
  0.8643   0.9306   0.9563   0.9821   1.0008   1.0458   1.1029   1.1282
  1.1918   1.2177   1.3219   1.4094   1.4707   1.4919   1.5305   1.7664
  1.8510   1.8843   1.9843   2.0015   2.0629   2.1719   2.2599   2.3129
  2.3570   2.4529   2.5767   2.6805   2.9134   3.0020   3.6421   3.7136
  3.7300   3.7594   3.8343   3.8603   3.9760   4.0053   4.1795   4.2249
  4.3246   4.4689   5.1124   5.1166   5.1440   5.2164   5.2409   5.2592
  5.3084   5.3996   5.5021   5.5414   5.5863   5.6651   5.7136   5.7225
  5.8203   5.8618   6.9893   7.0216   7.0378   7.0892   7.0943   7.1431
  7.1855   7.2787   7.4140   7.4508   7.4526   7.5102   7.6540   7.6951
 50.4839  50.5107
 --------------------------------------------------------------
 
          Ground-State Mulliken Net Atomic Charges

     Atom                 Charge (a.u.)
  ----------------------------------------
      1 H                     0.340223
      2 O                    -0.662573
      3 H                     0.340527
      4 H                     0.329814
      5 O                    -0.729448
      6 H                     0.381457
  ----------------------------------------
  Sum of atomic charges =     0.000000

 -----------------------------------------------------------------
                    Cartesian Multipole Moments
 -----------------------------------------------------------------
    Charge (ESU x 10^10)
                -0.0000
    Dipole Moment (Debye)
         X       0.4400      Y      -0.2252      Z       3.6569
       Tot       3.6901
    Quadrupole Moments (Debye-Ang)
        XX      -8.6564     XY      -0.9317     YY     -17.8723
        XZ      -3.9540     YZ       9.3979     ZZ     -17.7869
    Octopole Moments (Debye-Ang^2)
       XXX       2.0113    XXY     -11.8369    XYY      -1.3088
       YYY     -70.8213    XXZ       9.1809    XYZ      -4.3666
       YYZ      34.2587    XZZ      11.2165    YZZ     -32.2607
       ZZZ      54.7062
    Hexadecapole Moments (Debye-Ang^3)
      XXXX     -20.2988   XXXY      -5.2132   XXYY     -27.9111
      XYYY      -8.6620   YYYY    -224.3326   XXXZ       8.6518
      XXYZ      21.0821   XYYZ       3.4108   YYYZ     123.7132
      XXZZ     -28.2456   XYZZ       9.5235   YYZZ    -105.1960
      XZZZ      -6.9793   YZZZ     116.8855   ZZZZ    -253.8312
 -----------------------------------------------------------------
 Total job time:  250.33s(wall), 1772.84s(cpu) 
 Mon Jun 10 15:47:19 2024

        *************************************************************
        *                                                           *
        *  Thank you very much for using Q-Chem.  Have a nice day.  *
        *                                                           *
        *************************************************************


