
Running Job 1 of 1 Q_in.in
qchem Q_in.in_248872.0 /scratch/ari.fischer/qChem2187295.hpc-mn1/qchem248872/ 0
/usr/local/qchem-5.4.1/exe/qcprog.exe_s Q_in.in_248872.0 /scratch/ari.fischer/qChem2187295.hpc-mn1/qchem248872/
                  Welcome to Q-Chem
     A Quantum Leap Into The Future Of Chemistry


 Q-Chem 5.4, Q-Chem, Inc., Pleasanton, CA (2021)

 License issued to: Nanyang Technological University (site)

 E. Epifanovsky,  A. T. B. Gilbert,  Xintian Feng,  Joonho Lee,  Yuezhi Mao,  
 N. Mardirossian,  P. Pokhilko,  A. White,  M. Wormit,  M. P. Coons,  
 A. L. Dempwolff,  Zhengting Gan,  D. Hait,  P. R. Horn,  L. D. Jacobson,  
 I. Kaliman,  J. Kussmann,  A. W. Lange,  Ka Un Lao,  D. S. Levine,  Jie Liu,  
 S. C. McKenzie,  A. F. Morrison,  K. Nanda,  F. Plasser,  D. R. Rehn,  
 M. L. Vidal,  Zhi-Qiang You,  Ying Zhu,  B. Alam,  B. Albrecht,  
 A. Aldossary,  E. Alguire,  J. H. Andersen,  D. Barton,  K. Begam,  A. Behn,  
 Y. A. Bernard,  E. J. Berquist,  H. Burton,  A. Carreras,  K. Carter-Fenk,  
 R. Chakraborty,  A. D. Chien,  K. D. Closser,  V. Cofer-Shabica,  
 S. Dasgupta,  Jia Deng,  M. de Wergifosse,  M. Diedenhofen,  Hainam Do,  
 S. Ehlert,  Po-Tung Fang,  S. Fatehi,  Qingguo Feng,  T. Friedhoff,  
 J. Gayvert,  Qinghui Ge,  G. Gidofalvi,  M. Goldey,  J. Gomes,  
 C. Gonzalez-Espinoza,  S. Gulania,  A. Gunina,  M. W. D. Hanson-Heine,  
 P. H. P. Harbach,  A. W. Hauser,  M. F. Herbst,  M. Hernandez Vera,  
 M. Hodecker,  Z. C. Holden,  S. Houck,  Xunkun Huang,  Kerwin Hui,  
 B. C. Huynh,  M. Ivanov,  Hyunjun Ji,  Hanjie Jiang,  B. Kaduk,  S. Kaehler,  
 K. Khistyaev,  Jaehoon Kim,  P. Klunzinger,  Z. Koczor-Benda,  
 Joong Hoon Koh,  D. Kosenkov,  L. Koulias,  T. Kowalczyk,  C. M. Krauter,  
 K. Kue,  A. Kunitsa,  T. Kus,  A. Landau,  K. V. Lawler,  D. Lefrancois,  
 S. Lehtola,  Rain Li,  Yi-Pei Li,  Jiashu Liang,  M. Liebenthal,  
 Hung-Hsuan Lin,  You-Sheng Lin,  Fenglai Liu,  Kuan-Yu Liu,  
 M. Loipersberger,  A. Luenser,  A. Manjanath,  P. Manohar,  E. Mansoor,  
 S. F. Manzer,  Shan-Ping Mao,  A. V. Marenich,  T. Markovich,  S. Mason,  
 S. A. Maurer,  P. F. McLaughlin,  M. F. S. J. Menger,  J.-M. Mewes,  
 S. A. Mewes,  P. Morgante,  J. W. Mullinax,  K. J. Oosterbaan,  G. Paran,  
 Alexander C. Paul,  Suranjan K. Paul,  F. Pavosevic,  Zheng Pei,  S. Prager,  
 E. I. Proynov,  E. Ramos,  B. Rana,  A. E. Rask,  A. Rettig,  R. M. Richard,  
 F. Rob,  E. Rossomme,  T. Scheele,  M. Scheurer,  M. Schneider,  
 N. Sergueev,  S. M. Sharada,  W. Skomorowski,  D. W. Small,  C. J. Stein,  
 Yu-Chuan Su,  E. J. Sundstrom,  Zhen Tao,  J. Thirman,  T. Tsuchimochi,  
 N. M. Tubman,  S. P. Veccham,  O. Vydrov,  J. Wenzel,  J. Witte,  A. Yamada,  
 Kun Yao,  S. Yeganeh,  S. R. Yost,  A. Zech,  Igor Ying Zhang,  Xing Zhang,  
 Yu Zhang,  D. Zuev,  A. Aspuru-Guzik,  A. T. Bell,  N. A. Besley,  
 K. B. Bravaya,  B. R. Brooks,  D. Casanova,  Jeng-Da Chai,  S. Coriani,  
 C. J. Cramer,  A. E. DePrince, III,  R. A. DiStasio Jr.,  A. Dreuw,  
 B. D. Dunietz,  T. R. Furlani,  W. A. Goddard III,  S. Grimme,  
 S. Hammes-Schiffer,  T. Head-Gordon,  W. J. Hehre,  Chao-Ping Hsu,  
 T.-C. Jagau,  Yousung Jung,  A. Klamt,  Jing Kong,  D. S. Lambrecht,  
 WanZhen Liang,  N. J. Mayhall,  C. W. McCurdy,  J. B. Neaton,  
 C. Ochsenfeld,  J. A. Parkhill,  R. Peverati,  V. A. Rassolov,  Yihan Shao,  
 L. V. Slipchenko,  T. Stauch,  R. P. Steele,  J. E. Subotnik,  
 A. J. W. Thom,  A. Tkatchenko,  D. G. Truhlar,  T. Van Voorhis,  
 T. A. Wesolowski,  K. B. Whaley,  H. L. Woodcock III,  P. M. Zimmerman,  
 S. Faraji,  P. M. W. Gill,  M. Head-Gordon,  J. M. Herbert,  A. I. Krylov

 Additional authors for Version 5.4.1: 
 S. Kotaru,  Shaozhi Li,  Xiangyuan Li,  F. Matz,  A. Molle,  Haisheng Ren,  
 Yingli Su,  Hung-Yi Tsai,  C. Utku,  Fang Wang

 Contributors to earlier versions of Q-Chem not listed above: 
 R. D. Adamson,  B. Austin,  R. Baer,  J. Baker,  G. J. O. Beran,  
 K. Brandhorst,  S. T. Brown,  E. F. C. Byrd,  A. K. Chakraborty,  
 G. K. L. Chan,  Chun-Min Chang,  Yunqing Chen,  C.-L. Cheng,  
 Siu Hung Chien,  D. M. Chipman,  D. L. Crittenden,  H. Dachsel,  
 R. J. Doerksen,  A. D. Dutoi,  R. G. Edgar,  J. Fosso-Tande,  
 L. Fusti-Molnar,  D. Ghosh,  A. Ghysels,  A. Golubeva-Zadorozhnaya,  
 J. Gonthier,  M. S. Gordon,  S. R. Gwaltney,  G. Hawkins,  J. E. Herr,  
 A. Heyden,  S. Hirata,  E. G. Hohenstein,  G. Kedziora,  F. J. Keil,  
 C. Kelley,  Jihan Kim,  R. A. King,  R. Z. Khaliullin,  P. P. Korambath,  
 W. Kurlancheek,  A. Laurent,  A. M. Lee,  M. S. Lee,  S. V. Levchenko,  
 Ching Yeh Lin,  D. Liotard,  E. Livshits,  R. C. Lochan,  I. Lotan,  
 L. A. Martinez-Martinez,  P. E. Maslen,  N. Nair,  D. P. O'Neill,  
 D. Neuhauser,  E. Neuscamman,  C. M. Oana,  R. Olivares-Amaya,  R. Olson,  
 T. M. Perrine,  B. Peters,  P. A. Pieniazek,  A. Prociuk,  Y. M. Rhee,  
 J. Ritchie,  M. A. Rohrdanz,  E. Rosta,  N. J. Russ,  H. F. Schaefer III,  
 M. W. Schmidt,  N. E. Schultz,  S. Sharma,  N. Shenvi,  C. D. Sherrill,  
 A. C. Simmonett,  A. Sodt,  T. Stein,  D. Stuck,  K. S. Thanthiriwatte,  
 V. Vanovschi,  L. Vogt,  Tao Wang,  A. Warshel,  M. A. Watson,  
 C. F. Williams,  Q. Wu,  X. Xu,  Jun Yang,  W. Zhang,  Yan Zhao

 Please cite Q-Chem as follows:
 Y. Shao et al., Mol. Phys. 113, 184-215 (2015)
 DOI: 10.1080/00268976.2014.952696

 Q-Chem 5.4.1 for Intel X86 EM64T Linux

 Parts of Q-Chem use Armadillo 9.800.1 (Horizon Scraper).
 http://arma.sourceforge.net/

 Q-Chem begins on Tue Jun 25 21:17:17 2024  

 Host: 
0

     Scratch files written to /scratch/ari.fischer/qChem2187295.hpc-mn1/qchem248872//
 Aug1521 |scratch|qcdevops|jenkins|workspace|build_RNUM 8249   
 Processing $rem in /usr/local/qchem-5.4.1/config/preferences:
 Processing $rem in /home/ari.fischer/.qchemrc:
 Symmetry turned off for PCM/SM12/SMD calculation


!!********************************************.
!!******************Warning*******************.
!!Desired Analytical derivatives not available.
!!Finite difference job might take a long time.
!!********************************************.
!!********************************************.


 2-order derivative to be evaluated numerically with 1-order analytical derivatives

 Checking the input file for inconsistencies... 	...done.

--------------------------------------------------------------
User input:
--------------------------------------------------------------
$molecule
0 2
C         2.6357504276   -1.0143044783   -1.0732865324
O         1.5624479679   -0.1057922124   -1.0397811157
C         3.5468746858   -0.6721397213    0.1160109193
O         2.8564732892   -1.0123859130    1.2758488268
C         4.0068460658    0.7753177431    0.0715267424
C         5.0339231255    1.1364159094    1.1736381246
O         4.4585558983    0.9659007623    2.3855502441
H         3.1933495921   -0.9247107006   -2.0027159778
H         1.0925899059   -0.1691958861   -1.8790766313
H         3.1447300428    1.4300757078    0.1799183236
H         4.4830375056    0.9846882732   -0.8835575054
H         5.8748007296    0.4247166159    1.1269057441
O         2.1950535074   -2.3464199360   -1.0048630096
H         1.7878721215   -2.4837349242   -0.1388150634
O         4.6679521807   -1.5828916389    0.1233722188
O         5.4319142072   -1.4066465783   -1.0692159500
H         3.2913475918   -0.5799501800    2.0273849197
H         6.2063053787   -0.9171635840   -0.7537392997
O         5.5768602483    2.4167130646    0.9688806334
H         4.8527130281    3.0501758770    0.8832890882
$end

$rem
BASIS = 6-311++G(2df,2p)
GUI = 2
JOB_TYPE = Frequency
METHOD = wB97M-V
SOLVENT_METHOD = SMD
SCF_ALGORITHM = DIIS_GDM
MAX_SCF_CYCLES = 400
SCF_CONVERGENCE = 7
THRESH = 12
$end
--------------------------------------------------------------
 ----------------------------------------------------------------
             Standard Nuclear Orientation (Angstroms)
    I     Atom           X                Y                Z
 ----------------------------------------------------------------
    1      C       2.6357504276    -1.0143044783    -1.0732865324
    2      O       1.5624479679    -0.1057922124    -1.0397811157
    3      C       3.5468746858    -0.6721397213     0.1160109193
    4      O       2.8564732892    -1.0123859130     1.2758488268
    5      C       4.0068460658     0.7753177431     0.0715267424
    6      C       5.0339231255     1.1364159094     1.1736381246
    7      O       4.4585558983     0.9659007623     2.3855502441
    8      H       3.1933495921    -0.9247107006    -2.0027159778
    9      H       1.0925899059    -0.1691958861    -1.8790766313
   10      H       3.1447300428     1.4300757078     0.1799183236
   11      H       4.4830375056     0.9846882732    -0.8835575054
   12      H       5.8748007296     0.4247166159     1.1269057441
   13      O       2.1950535074    -2.3464199360    -1.0048630096
   14      H       1.7878721215    -2.4837349242    -0.1388150634
   15      O       4.6679521807    -1.5828916389     0.1233722188
   16      O       5.4319142072    -1.4066465783    -1.0692159500
   17      H       3.2913475918    -0.5799501800     2.0273849197
   18      H       6.2063053787    -0.9171635840    -0.7537392997
   19      O       5.5768602483     2.4167130646     0.9688806334
   20      H       4.8527130281     3.0501758770     0.8832890882
 ----------------------------------------------------------------
 Nuclear Repulsion Energy =         729.46856241 hartrees
 There are       45 alpha and       44 beta electrons
 Requested basis set is 6-311++G(2df,2p)
 There are 142 shells and 464 basis functions

 Total QAlloc Memory Limit 288000 MB
 Mega-Array Size       188 MB
 MEM_STATIC part       192 MB
 
 Citation of the SMD model:
 Marenich, A.V.; Cramer, C.J.; Truhlar, D.G.
 J. Phys. Chem. B 2009, 113, 6378-6396.
 iSolventCode=           1
 Solvent: water                                                           
 
 vradii
            1           2           3           4           5           6
    1   1.8500000   1.5200000   1.8500000   1.5200000   1.8500000   1.8500000
            7           8           9          10          11          12
    1   1.5200000   1.2000000   1.2000000   1.2000000   1.2000000   1.2000000
           13          14          15          16          17          18
    1   1.5200000   1.2000000   1.5200000   1.5200000   1.2000000   1.2000000
           19          20
    1   1.5200000   1.2000000
 Changing PCM_VDW_RADII to SMD_RADIUS
 Discretize the solute cavity surface with Lebedev spheres
	Using 110 Lebedev grid points for each H atom
	Using 194 Lebedev grid points for other atoms
	Atomic van der Waals radii will be scaled by 1.20
 Remove points where switching function is < 1.0e-08
 Keep 1549 surface tesserae and discard 1575 interior tesserae
 Molecular Surface Area = 169.622 Angst**2
 A cutoff of  1.0D-12 yielded   8892 shell pairs
 There are     93728 function pairs (    116287 Cartesian)
 Smallest overlap matrix eigenvalue = 4.48E-06
 Guess from superposition of atomic densities
 Warning:  Energy on first SCF cycle will be non-variational
 SAD guess density has 89.000000 electrons

 -----------------------------------------------------------------------
  General SCF calculation program by
  Eric Jon Sundstrom, Paul Horn, Yuezhi Mao, Dmitri Zuev, Alec White,
  David Stuck, Shaama M.S., Shane Yost, Joonho Lee, David Small,
  Daniel Levine, Susi Lehtola, Hugh Burton, Evgeny Epifanovsky,
  Bang C. Huynh
 -----------------------------------------------------------------------
 Exchange:     0.1500 Hartree-Fock + 1.0000 wB97M-V + LR-HF
 Correlation:  1.0000 wB97M-V
 Using SG-2 standard quadrature grid
 Nonlocal Correlation:  VV10 with C = 0.0100 and b = 6.00 and scale = 1.00000
 Grid used for NLC:  SG-1 standard quadrature
 using 16 threads for integral computing
 -------------------------------------------------------
 OpenMP Integral computing Module                
 Release: version 1.0, May 2013, Q-Chem Inc. Pittsburgh 
 -------------------------------------------------------
 
 Citation of the SMD model:
 Marenich, A.V.; Cramer, C.J.; Truhlar, D.G.
 J. Phys. Chem. B 2009, 113, 6378-6396.
 iSolventCode=           1
 Solvent: water                                                           
 
 vradii
            1           2           3           4           5           6
    1   1.8500000   1.5200000   1.8500000   1.5200000   1.8500000   1.8500000
            7           8           9          10          11          12
    1   1.5200000   1.2000000   1.2000000   1.2000000   1.2000000   1.2000000
           13          14          15          16          17          18
    1   1.5200000   1.2000000   1.5200000   1.5200000   1.2000000   1.2000000
           19          20
    1   1.5200000   1.2000000
 -------------------------------------------------------
 OpenMP BLAS3 based DFT computing Module                
 Release: version 1.0, May 2013, Q-Chem Inc. Pittsburgh 
 -------------------------------------------------------
 A unrestricted SCF calculation will be
 performed using DIIS, GDM
 SCF converges when RMS gradient is below 1.0e-07
 ---------------------------------------
  Cycle       Energy         DIIS error
 ---------------------------------------
    1    -686.4135669799      1.14e-02  
    2    -683.9862850572      1.80e-03  Done DIIS. Switching to GDM
 ---------------------------------------
  Cycle       Energy        RMS Gradient
 ---------------------------------------
    1    -683.9862850572      5.62e-01   Descent step
    2    -684.2398761010      9.67e-02   Descent step
    3    -684.2960226775      1.01e-01   Normal BFGS step
    4    -684.3186368237      1.72e-02   Normal BFGS step
    5    -684.3245356440      1.11e-02   Normal BFGS step
    6    -684.3254800475      8.90e-03   Normal BFGS step
    7    -684.3257282254      4.46e-03   Normal BFGS step
    8    -684.3258182653      2.57e-03   Normal BFGS step
    9    -684.3258850465      3.15e-03   Normal BFGS step
   10    -684.3259302211      3.24e-03   Normal BFGS step
   11    -684.3259868639      2.65e-03   Normal BFGS step
   12    -684.3260224280      1.40e-03   Normal BFGS step
   13    -684.3260365584      5.40e-04   Normal BFGS step
   14    -684.3260400472      3.36e-04   Normal BFGS step
   15    -684.3260408398      2.61e-04   Normal BFGS step
   16    -684.3260411184      1.29e-04   Normal BFGS step
   17    -684.3260411882      4.39e-05   Normal BFGS step
   18    -684.3260412017      2.01e-05   Normal BFGS step
   19    -684.3260412054      6.34e-06   Normal BFGS step
   20    -684.3260412057      1.91e-06   Normal BFGS step
   21    -684.3260412059      9.70e-07   Normal BFGS step
   22    -684.3260412058      3.67e-07   Normal BFGS step
   23    -684.3260412058      1.42e-07   Normal BFGS step
   24    -684.3260412059      5.10e-08  Convergence criterion met
 ---------------------------------------
 SCF time:   CPU 3931.43s  wall 271.00s 
<S^2> =          0.754288467
(3)  G-ENP(liq) elect-nuc-pol free energy of system     -684.326041206 a.u.
(4)  G-CDS(liq) cavity-dispersion-solvent structure 
     free energy                                                3.7118 kcal/mol
(6)  G-S(liq) free energy of system                     -684.320126017 a.u.
 SCF   energy in the final basis set =     -684.3201260169
 Total energy in the final basis set =     -684.3201260169
 
 --------------------------------------------------------------
 
                    Orbital Energies (a.u.)
 --------------------------------------------------------------
 
 Alpha MOs
 -- Occupied --
-19.4056 -19.4025 -19.3991 -19.3582 -19.3494 -19.3487 -19.3475 -10.4680
-10.4619 -10.4494 -10.3616  -1.2797  -1.2205  -1.2116  -1.1828  -1.1429
 -1.1382  -1.0403  -0.9098  -0.8381  -0.7629  -0.7388  -0.6927  -0.6614
 -0.6561  -0.6303  -0.6195  -0.6053  -0.5912  -0.5755  -0.5667  -0.5632
 -0.5349  -0.5153  -0.4983  -0.4820  -0.4654  -0.4526  -0.4473  -0.4337
 -0.4315  -0.4219  -0.4140  -0.3994  -0.3875
 -- Virtual --
  0.0269   0.0373   0.0405   0.0428   0.0614   0.0660   0.0700   0.0747
  0.0914   0.0956   0.1125   0.1208   0.1260   0.1280   0.1373   0.1485
  0.1511   0.1546   0.1589   0.1693   0.1723   0.1816   0.1835   0.1926
  0.2009   0.2085   0.2144   0.2340   0.2417   0.2435   0.2503   0.2566
  0.2639   0.2739   0.2830   0.2841   0.2857   0.2906   0.3019   0.3030
  0.3104   0.3162   0.3259   0.3322   0.3365   0.3418   0.3471   0.3553
  0.3600   0.3614   0.3678   0.3773   0.3789   0.3854   0.3901   0.3937
  0.4000   0.4045   0.4090   0.4137   0.4188   0.4279   0.4322   0.4452
  0.4469   0.4576   0.4721   0.4753   0.4844   0.4889   0.5072   0.5205
  0.5598   0.5731   0.5833   0.5974   0.6159   0.6241   0.6364   0.6479
  0.6542   0.6772   0.6834   0.6912   0.7003   0.7051   0.7220   0.7238
  0.7474   0.7507   0.7580   0.7700   0.7848   0.8043   0.8248   0.8296
  0.8541   0.8712   0.8952   0.8996   0.9175   0.9325   0.9516   0.9751
  0.9823   1.0065   1.0318   1.0452   1.0621   1.0732   1.0793   1.0860
  1.1086   1.1160   1.1238   1.1337   1.1503   1.1557   1.1647   1.1778
  1.1813   1.1875   1.1992   1.2064   1.2174   1.2198   1.2379   1.2404
  1.2502   1.2521   1.2675   1.2800   1.2847   1.3020   1.3106   1.3179
  1.3358   1.3376   1.3518   1.3641   1.3796   1.3954   1.4062   1.4328
  1.4406   1.4570   1.4722   1.4828   1.4922   1.5021   1.5162   1.5252
  1.5380   1.5519   1.5598   1.5834   1.6033   1.6046   1.6199   1.6300
  1.6477   1.6852   1.6886   1.6964   1.7170   1.7308   1.7425   1.7642
  1.7753   1.8105   1.8267   1.8412   1.8695   1.9010   1.9115   1.9365
  1.9459   1.9667   1.9818   1.9987   2.0199   2.0569   2.0766   2.1048
  2.1188   2.1481   2.1976   2.2218   2.2402   2.2628   2.2941   2.3210
  2.3501   2.3564   2.3856   2.3901   2.4048   2.4348   2.4596   2.4694
  2.4858   2.4973   2.5107   2.5398   2.5625   2.6041   2.6523   2.6952
  2.7193   2.7975   2.8044   2.8360   2.8489   2.8671   2.8956   2.9008
  2.9517   2.9684   2.9912   3.0490   3.0658   3.0927   3.1329   3.1491
  3.1996   3.2170   3.2672   3.2865   3.2932   3.3218   3.3443   3.3697
  3.3988   3.4182   3.4301   3.4551   3.4653   3.4995   3.5279   3.5652
  3.5795   3.5961   3.6095   3.6362   3.6545   3.6697   3.6878   3.6963
  3.7223   3.7448   3.7527   3.7890   3.8066   3.8120   3.8159   3.8430
  3.8467   3.8599   3.8649   3.8818   3.8949   3.9110   3.9298   3.9398
  3.9583   3.9665   4.0004   4.0313   4.0641   4.0766   4.1189   4.1235
  4.1387   4.1682   4.1854   4.2207   4.2238   4.2458   4.2497   4.2849
  4.3041   4.3358   4.3544   4.3654   4.3820   4.3935   4.4114   4.4311
  4.4361   4.4758   4.5276   4.5605   4.5746   4.6236   4.6402   4.6806
  4.7161   4.7499   4.7920   4.8675   4.8952   5.0193   5.0509   5.0771
  5.1273   5.1466   5.1702   5.2147   5.2204   5.2307   5.2346   5.2519
  5.2692   5.2762   5.2903   5.2970   5.2990   5.3147   5.3207   5.3306
  5.3566   5.3633   5.3749   5.3838   5.3938   5.4045   5.4288   5.4368
  5.4511   5.4904   5.4955   5.5085   5.5324   5.5339   5.5597   5.5865
  5.5900   5.6059   5.6239   5.6331   5.6406   5.6516   5.6682   5.6815
  5.7190   5.7690   5.7772   5.7978   5.8088   5.8382   5.9133   5.9594
  5.9821   6.0324   6.0569   6.0819   6.0950   6.1511   6.1640   6.2532
  6.2769   6.5002   6.5459   6.5876   6.7554   6.8145   6.8370   6.8678
  6.8945   7.0009   7.0208   7.0615   7.0830   7.0877   7.1074   7.1377
  7.1646   7.2457   7.2580   7.2707   7.2787   7.2881   7.3141   7.3209
  7.3371   7.3430   7.3720   7.3986   7.4235   7.4304   7.4649   7.5026
  7.5142   7.5525   7.5908   7.6157   7.6375   7.6706   7.6966   7.7427
  7.7785   7.8359   7.8620   7.8666   7.8886   7.9158   8.0220   8.2060
 24.6406  24.7868  24.8404  24.8705  50.4976  50.5470  50.5953  50.6116
 50.6288  50.6587  50.7081
 
 Beta MOs
 -- Occupied --
-19.4056 -19.3990 -19.3807 -19.3581 -19.3495 -19.3487 -19.3475 -10.4681
-10.4622 -10.4494 -10.3596  -1.2796  -1.2130  -1.1998  -1.1825  -1.1382
 -1.1135  -1.0402  -0.9050  -0.8334  -0.7539  -0.7365  -0.6924  -0.6556
 -0.6539  -0.6216  -0.6125  -0.5952  -0.5846  -0.5734  -0.5625  -0.5449
 -0.5343  -0.5047  -0.4819  -0.4735  -0.4634  -0.4499  -0.4347  -0.4272
 -0.4167  -0.4109  -0.4006  -0.3899
 -- Virtual --
 -0.0765   0.0273   0.0373   0.0407   0.0429   0.0614   0.0663   0.0706
  0.0749   0.0916   0.0957   0.1133   0.1212   0.1263   0.1280   0.1382
  0.1486   0.1519   0.1548   0.1594   0.1696   0.1728   0.1819   0.1837
  0.1929   0.2014   0.2091   0.2148   0.2353   0.2424   0.2447   0.2513
  0.2576   0.2648   0.2743   0.2836   0.2847   0.2872   0.2916   0.3035
  0.3040   0.3108   0.3185   0.3261   0.3327   0.3389   0.3423   0.3485
  0.3559   0.3605   0.3634   0.3695   0.3776   0.3809   0.3867   0.3910
  0.3954   0.4006   0.4063   0.4097   0.4165   0.4201   0.4301   0.4324
  0.4455   0.4477   0.4585   0.4737   0.4755   0.4843   0.4899   0.5091
  0.5222   0.5627   0.5753   0.5838   0.5989   0.6166   0.6246   0.6381
  0.6502   0.6547   0.6779   0.6837   0.6926   0.7016   0.7072   0.7244
  0.7250   0.7487   0.7518   0.7602   0.7709   0.7857   0.8048   0.8257
  0.8298   0.8543   0.8718   0.8961   0.9009   0.9189   0.9336   0.9518
  0.9757   0.9842   1.0069   1.0321   1.0475   1.0630   1.0737   1.0823
  1.0865   1.1093   1.1171   1.1265   1.1397   1.1533   1.1569   1.1732
  1.1788   1.1834   1.1891   1.2012   1.2111   1.2178   1.2215   1.2392
  1.2438   1.2517   1.2618   1.2687   1.2826   1.2867   1.3040   1.3142
  1.3221   1.3366   1.3425   1.3534   1.3660   1.3817   1.3981   1.4075
  1.4365   1.4436   1.4592   1.4730   1.4865   1.4952   1.5034   1.5177
  1.5272   1.5415   1.5547   1.5614   1.5846   1.6058   1.6090   1.6221
  1.6326   1.6500   1.6867   1.6903   1.6983   1.7204   1.7359   1.7456
  1.7698   1.7880   1.8140   1.8369   1.8482   1.8727   1.9049   1.9189
  1.9394   1.9500   1.9697   1.9842   2.0009   2.0224   2.0588   2.0788
  2.1093   2.1226   2.1554   2.2013   2.2233   2.2433   2.2651   2.2972
  2.3242   2.3522   2.3592   2.3865   2.3943   2.4051   2.4399   2.4625
  2.4730   2.4871   2.4992   2.5142   2.5450   2.5636   2.6053   2.6551
  2.6958   2.7247   2.7996   2.8063   2.8374   2.8529   2.8680   2.8984
  2.9052   2.9549   2.9714   2.9951   3.0513   3.0678   3.0974   3.1355
  3.1507   3.2012   3.2178   3.2700   3.2905   3.2947   3.3259   3.3457
  3.3710   3.4004   3.4230   3.4332   3.4566   3.4682   3.5023   3.5304
  3.5667   3.5802   3.5964   3.6122   3.6371   3.6551   3.6706   3.6897
  3.6974   3.7240   3.7460   3.7539   3.7913   3.8083   3.8133   3.8175
  3.8449   3.8492   3.8606   3.8658   3.8828   3.8978   3.9124   3.9309
  3.9419   3.9618   3.9676   4.0024   4.0330   4.0650   4.0799   4.1233
  4.1274   4.1404   4.1710   4.1881   4.2232   4.2285   4.2470   4.2510
  4.2878   4.3049   4.3413   4.3565   4.3686   4.3865   4.3978   4.4158
  4.4349   4.4408   4.4770   4.5349   4.5663   4.5777   4.6269   4.6418
  4.6860   4.7178   4.7535   4.7952   4.8683   4.8986   5.0215   5.0517
  5.1101   5.1708   5.1972   5.2123   5.2225   5.2281   5.2405   5.2490
  5.2635   5.2783   5.2898   5.2953   5.3010   5.3104   5.3216   5.3309
  5.3472   5.3590   5.3697   5.3871   5.3881   5.4039   5.4099   5.4342
  5.4479   5.4705   5.4960   5.5031   5.5132   5.5374   5.5440   5.5661
  5.5894   5.5941   5.6082   5.6256   5.6346   5.6468   5.6539   5.6705
  5.6822   5.7195   5.7698   5.7805   5.8020   5.8116   5.8417   5.9156
  5.9698   6.0003   6.0327   6.0579   6.0940   6.1040   6.1523   6.1651
  6.2535   6.2869   6.5008   6.5526   6.5886   6.7555   6.8189   6.8538
  6.8680   6.9816   7.0208   7.0557   7.0819   7.0870   7.0920   7.1109
  7.1430   7.1702   7.2486   7.2647   7.2710   7.2846   7.3002   7.3212
  7.3229   7.3413   7.3489   7.3926   7.4202   7.4261   7.4500   7.4707
  7.5050   7.5166   7.5661   7.5923   7.6169   7.6536   7.6707   7.6978
  7.7618   7.7794   7.8375   7.8625   7.8757   7.8909   7.9159   8.0222
  8.2061  24.6417  24.7873  24.8403  24.8706  50.4977  50.5573  50.5977
 50.6128  50.6288  50.6598  50.7082
 --------------------------------------------------------------
 
          Ground-State Mulliken Net Atomic Charges

     Atom                 Charge (a.u.)    Spin (a.u.)
  --------------------------------------------------------
      1 C                    -0.149495      -0.001004
      2 O                    -0.423794      -0.000031
      3 C                     0.175627      -0.005669
      4 O                    -0.390871       0.004693
      5 C                    -0.479900       0.076874
      6 C                    -0.116327       0.010600
      7 O                    -0.173003       0.840826
      8 H                     0.305465       0.000664
      9 H                     0.338460      -0.000144
     10 H                     0.300868      -0.004454
     11 H                     0.297812       0.003280
     12 H                     0.312093       0.076682
     13 O                    -0.458778       0.000473
     14 H                     0.353393       0.000047
     15 O                    -0.160874       0.001030
     16 O                    -0.285812      -0.000582
     17 H                     0.316027      -0.003970
     18 H                     0.338407      -0.000815
     19 O                    -0.444550      -0.000819
     20 H                     0.345253       0.002319
  --------------------------------------------------------
  Sum of atomic charges =     0.000000
  Sum of spin   charges =     1.000000

 -----------------------------------------------------------------
                    Cartesian Multipole Moments
 -----------------------------------------------------------------
    Charge (ESU x 10^10)
                 0.0000
    Dipole Moment (Debye)
         X       0.6956      Y       4.1168      Z      -2.0700
       Tot       4.6601
    Quadrupole Moments (Debye-Ang)
        XX     -56.9727     XY      11.6241     YY     -74.5684
        XZ      -6.7448     YZ      -6.6862     ZZ     -65.9706
    Octopole Moments (Debye-Ang^2)
       XXX    -674.5603    XXY      26.1623    XYY    -301.2515
       YYY      89.7072    XXZ     -48.1888    XYZ     -29.2727
       YYZ       2.2151    XZZ    -268.0733    YZZ      12.3185
       ZZZ     -52.5177
    Hexadecapole Moments (Debye-Ang^3)
      XXXX   -5852.0801   XXXY    -184.7757   XXYY   -1526.1562
      XYYY     158.7885   YYYY    -833.9335   XXXZ    -475.4195
      XXYZ    -208.1393   XYYZ     -68.3689   YYYZ    -204.3259
      XXZZ   -1279.2329   XYZZ     -25.6146   YYZZ    -279.9327
      XZZZ    -308.6268   YZZZ    -203.6719   ZZZZ    -582.4333
 -----------------------------------------------------------------
 Calculating analytic gradient of the SCF energy
 Gradient of CDS energy
            1           2           3           4           5           6
    1  -0.0026838   0.0017848  -0.0019069   0.0019970  -0.0000711  -0.0006568
    2  -0.0014996  -0.0015484  -0.0009802   0.0009893   0.0000430   0.0021366
    3  -0.0001496   0.0001982   0.0032333  -0.0034795  -0.0000929   0.0047238
            7           8           9          10          11          12
    1   0.0022661   0.0002512  -0.0003934  -0.0001765   0.0000831  -0.0000833
    2   0.0007807  -0.0000511   0.0002347  -0.0000195  -0.0000382  -0.0001513
    3  -0.0047559  -0.0000029  -0.0002404   0.0000384  -0.0001105  -0.0000402
           13          14          15          16          17          18
    1   0.0011216  -0.0002742  -0.0000521  -0.0002842  -0.0001297   0.0004764
    2   0.0030445  -0.0003719  -0.0000129  -0.0000292  -0.0001124  -0.0000682
    3  -0.0001063   0.0001784  -0.0000855   0.0001044   0.0003637  -0.0001570
           19          20
    1  -0.0012549  -0.0000132
    2  -0.0028640   0.0005181
    3   0.0004007  -0.0000200
 Gradient of SCF Energy
            1           2           3           4           5           6
    1  -0.0030016   0.0029415   0.0038848  -0.0039408   0.0025576  -0.0163138
    2   0.0006932   0.0008404   0.0020871  -0.0037480  -0.0130011   0.0093935
    3   0.0043314   0.0146542  -0.0008446  -0.0038947   0.0143825  -0.0028373
            7           8           9          10          11          12
    1   0.0010790   0.0011676  -0.0046736  -0.0056558   0.0066272   0.0113946
    2   0.0006022   0.0045186   0.0003829   0.0086440   0.0023796  -0.0093706
    3   0.0023553  -0.0057276  -0.0131979   0.0019072  -0.0111034  -0.0029597
           13          14          15          16          17          18
    1   0.0034814  -0.0026923  -0.0034085  -0.0137408   0.0029904   0.0148515
    2  -0.0053192   0.0006684  -0.0043461  -0.0128919   0.0032354   0.0134073
    3  -0.0020613   0.0008048   0.0014038  -0.0078970   0.0040757   0.0064738
           19          20
    1   0.0163212  -0.0138696
    2  -0.0075775   0.0094018
    3   0.0035949  -0.0034603
 Max gradient component =       1.632E-02
 RMS gradient           =       7.572E-03
 Computing fast CPCM-SWIG gradient
 Updating gradient with PCM contributions...
 -- total gradient after adding PCM contribution --
---------------------------------------------------
  Atom         X              Y              Z     
---------------------------------------------------
   1      -0.000007       0.000037      -0.000005
   2      -0.000032      -0.000005       0.000031
   3      -0.000073      -0.000028       0.000035
   4      -0.000057      -0.000005      -0.000016
   5      -0.000041      -0.000002      -0.000066
   6      -0.000021       0.000014       0.000296
   7       0.000069       0.000021      -0.000164
   8       0.000002      -0.000016      -0.000015
   9      -0.000013       0.000009      -0.000049
  10      -0.000007      -0.000005      -0.000010
  11       0.000031      -0.000029      -0.000001
  12       0.000021      -0.000051      -0.000044
  13       0.000009      -0.000017      -0.000040
  14      -0.000052       0.000023       0.000060
  15      -0.000039      -0.000023       0.000021
  16       0.000082       0.000000      -0.000005
  17       0.000005       0.000066       0.000085
  18       0.000070      -0.000026      -0.000054
  19       0.000084       0.000004      -0.000053
  20      -0.000032       0.000033      -0.000003
---------------------------------------------------
 Number of fixed atoms: 0
 Gradient time:  CPU 462.45 s  wall 37.57 s
 ######################################################
 ######################################################
 # Starting finite difference calculation for IDERIV  #
 Finite diff step size:  1.88973e-03 a.u.
 ----------------------------------------------------------------
             Standard Nuclear Orientation (Angstroms)
    I     Atom           X                Y                Z
 ----------------------------------------------------------------
    1      C       2.6367504276    -1.0143044783    -1.0732865324
    2      O       1.5624479679    -0.1057922124    -1.0397811157
    3      C       3.5468746858    -0.6721397213     0.1160109193
    4      O       2.8564732892    -1.0123859130     1.2758488268
    5      C       4.0068460658     0.7753177431     0.0715267424
    6      C       5.0339231255     1.1364159094     1.1736381246
    7      O       4.4585558983     0.9659007623     2.3855502441
    8      H       3.1933495921    -0.9247107006    -2.0027159778
    9      H       1.0925899059    -0.1691958861    -1.8790766313
   10      H       3.1447300428     1.4300757078     0.1799183236
   11      H       4.4830375056     0.9846882732    -0.8835575054
   12      H       5.8748007296     0.4247166159     1.1269057441
   13      O       2.1950535074    -2.3464199360    -1.0048630096
   14      H       1.7878721215    -2.4837349242    -0.1388150634
   15      O       4.6679521807    -1.5828916389     0.1233722188
   16      O       5.4319142072    -1.4066465783    -1.0692159500
   17      H       3.2913475918    -0.5799501800     2.0273849197
   18      H       6.2063053787    -0.9171635840    -0.7537392997
   19      O       5.5768602483     2.4167130646     0.9688806334
   20      H       4.8527130281     3.0501758770     0.8832890882
 ----------------------------------------------------------------
 Nuclear Repulsion Energy =         729.47144102 hartrees
 There are       45 alpha and       44 beta electrons
 Discretize the solute cavity surface with Lebedev spheres
	Using 110 Lebedev grid points for each H atom
	Using 194 Lebedev grid points for other atoms
	Atomic van der Waals radii will be scaled by 1.20
 Remove points where switching function is < 1.0e-08
 Keep 1549 surface tesserae and discard 1575 interior tesserae
 Molecular Surface Area = 169.620 Angst**2
 Requested basis set is 6-311++G(2df,2p)
 There are 142 shells and 464 basis functions
 A cutoff of  1.0D-12 yielded   8892 shell pairs
 There are     93728 function pairs (    116287 Cartesian)
 Smallest overlap matrix eigenvalue = 4.48E-06
 Guess MOs from SCF MO coefficient file

 -----------------------------------------------------------------------
  General SCF calculation program by
  Eric Jon Sundstrom, Paul Horn, Yuezhi Mao, Dmitri Zuev, Alec White,
  David Stuck, Shaama M.S., Shane Yost, Joonho Lee, David Small,
  Daniel Levine, Susi Lehtola, Hugh Burton, Evgeny Epifanovsky,
  Bang C. Huynh
 -----------------------------------------------------------------------
 Exchange:     0.1500 Hartree-Fock + 1.0000 wB97M-V + LR-HF
 Correlation:  1.0000 wB97M-V
 Using SG-2 standard quadrature grid
 Nonlocal Correlation:  VV10 with C = 0.0100 and b = 6.00 and scale = 1.00000
 Grid used for NLC:  SG-1 standard quadrature
 
 Citation of the SMD model:
 Marenich, A.V.; Cramer, C.J.; Truhlar, D.G.
 J. Phys. Chem. B 2009, 113, 6378-6396.
 iSolventCode=           1
 Solvent: water                                                           
 
 vradii
            1           2           3           4           5           6
    1   1.8500000   1.5200000   1.8500000   1.5200000   1.8500000   1.8500000
            7           8           9          10          11          12
    1   1.5200000   1.2000000   1.2000000   1.2000000   1.2000000   1.2000000
           13          14          15          16          17          18
    1   1.5200000   1.2000000   1.5200000   1.5200000   1.2000000   1.2000000
           19          20
    1   1.5200000   1.2000000
 -------------------------------------------------------
 OpenMP BLAS3 based DFT computing Module                
 Release: version 1.0, May 2013, Q-Chem Inc. Pittsburgh 
 -------------------------------------------------------
 A unrestricted SCF calculation will be
 performed using Roothaan-Hall, DIIS, GDM
 SCF converges when RMS gradient is below 1.0e-07
 ---------------------------------------
  Cycle       Energy         DIIS error
 ---------------------------------------
    1    -684.2690565042      2.32e-04  Roothaan Step
 ---------------------------------------
  Cycle       Energy         DIIS error
 ---------------------------------------
    1    -684.3159863922      2.53e-04  
    2    -684.3235063260      1.77e-04  Done DIIS. Switching to GDM
 ---------------------------------------
  Cycle       Energy        RMS Gradient
 ---------------------------------------
    1    -684.3235063260      5.33e-03   Normal BFGS step
    2    -684.3238585122      6.53e-03   Normal BFGS step
    3    -684.3260020446      1.01e-03   Normal BFGS step
    4    -684.3260221103      4.61e-04   Normal BFGS step
    5    -684.3260338361      4.14e-04   Normal BFGS step
    6    -684.3260344043      1.91e-04   Normal BFGS step
    7    -684.3260348932      1.55e-04   Normal BFGS step
    8    -684.3260349809      9.65e-05   Normal BFGS step
    9    -684.3260350489      7.34e-05   Normal BFGS step
   10    -684.3260350831      6.26e-05   Normal BFGS step
   11    -684.3260351213      7.32e-05   Normal BFGS step
   12    -684.3260351612      4.38e-05   Normal BFGS step
   13    -684.3260351740      1.70e-05   Normal BFGS step
   14    -684.3260351782      1.14e-05   Normal BFGS step
   15    -684.3260351791      6.35e-06   Normal BFGS step
   16    -684.3260351793      2.31e-06   Normal BFGS step
   17    -684.3260351794      1.57e-06   Normal BFGS step
   18    -684.3260351794      8.48e-07   Normal BFGS step
   19    -684.3260351794      3.21e-07   Normal BFGS step
   20    -684.3260351794      1.19e-07   Normal BFGS step
   21    -684.3260351793      2.76e-08  Convergence criterion met
 ---------------------------------------
 SCF time:   CPU 3506.02s  wall 242.00s 
<S^2> =          0.754288294
(3)  G-ENP(liq) elect-nuc-pol free energy of system     -684.326035179 a.u.
(4)  G-CDS(liq) cavity-dispersion-solvent structure 
     free energy                                                3.7087 kcal/mol
(6)  G-S(liq) free energy of system                     -684.320124928 a.u.
 SCF   energy in the final basis set =     -684.3201249278
 Total energy in the final basis set =     -684.3201249278
 
 --------------------------------------------------------------
 
                    Orbital Energies (a.u.)
 --------------------------------------------------------------
 
 Alpha MOs
 -- Occupied --
-19.4056 -19.4026 -19.3991 -19.3582 -19.3494 -19.3487 -19.3475 -10.4680
-10.4619 -10.4495 -10.3616  -1.2797  -1.2205  -1.2115  -1.1827  -1.1429
 -1.1381  -1.0403  -0.9099  -0.8382  -0.7629  -0.7388  -0.6927  -0.6614
 -0.6560  -0.6303  -0.6195  -0.6054  -0.5912  -0.5755  -0.5667  -0.5632
 -0.5348  -0.5153  -0.4983  -0.4820  -0.4654  -0.4526  -0.4473  -0.4337
 -0.4316  -0.4219  -0.4140  -0.3994  -0.3876
 -- Virtual --
  0.0269   0.0373   0.0405   0.0428   0.0614   0.0660   0.0700   0.0747
  0.0914   0.0956   0.1125   0.1208   0.1260   0.1280   0.1373   0.1485
  0.1511   0.1546   0.1589   0.1693   0.1723   0.1816   0.1835   0.1926
  0.2009   0.2085   0.2143   0.2340   0.2417   0.2435   0.2503   0.2566
  0.2639   0.2739   0.2830   0.2841   0.2857   0.2905   0.3019   0.3030
  0.3104   0.3163   0.3259   0.3322   0.3365   0.3418   0.3471   0.3553
  0.3600   0.3614   0.3678   0.3774   0.3788   0.3854   0.3900   0.3937
  0.4000   0.4045   0.4089   0.4137   0.4188   0.4279   0.4322   0.4452
  0.4469   0.4576   0.4721   0.4753   0.4844   0.4888   0.5072   0.5204
  0.5598   0.5731   0.5834   0.5974   0.6160   0.6241   0.6364   0.6478
  0.6541   0.6772   0.6833   0.6913   0.7003   0.7051   0.7220   0.7239
  0.7474   0.7507   0.7580   0.7700   0.7848   0.8044   0.8247   0.8296
  0.8542   0.8713   0.8952   0.8996   0.9175   0.9325   0.9515   0.9751
  0.9823   1.0065   1.0318   1.0453   1.0620   1.0732   1.0793   1.0860
  1.1086   1.1161   1.1238   1.1337   1.1503   1.1556   1.1647   1.1778
  1.1813   1.1875   1.1992   1.2064   1.2174   1.2198   1.2379   1.2404
  1.2502   1.2521   1.2675   1.2800   1.2847   1.3020   1.3106   1.3179
  1.3359   1.3376   1.3518   1.3640   1.3796   1.3954   1.4062   1.4328
  1.4407   1.4570   1.4721   1.4828   1.4922   1.5020   1.5162   1.5253
  1.5379   1.5519   1.5598   1.5834   1.6033   1.6046   1.6201   1.6300
  1.6477   1.6853   1.6886   1.6965   1.7171   1.7308   1.7426   1.7641
  1.7753   1.8105   1.8269   1.8414   1.8695   1.9010   1.9114   1.9366
  1.9459   1.9667   1.9818   1.9985   2.0200   2.0568   2.0766   2.1047
  2.1188   2.1481   2.1975   2.2216   2.2402   2.2627   2.2941   2.3211
  2.3500   2.3563   2.3855   2.3901   2.4046   2.4348   2.4596   2.4692
  2.4857   2.4973   2.5107   2.5398   2.5623   2.6042   2.6523   2.6952
  2.7192   2.7974   2.8045   2.8360   2.8487   2.8670   2.8955   2.9007
  2.9517   2.9684   2.9912   3.0491   3.0659   3.0927   3.1329   3.1492
  3.1996   3.2171   3.2672   3.2865   3.2932   3.3218   3.3441   3.3696
  3.3989   3.4181   3.4301   3.4550   3.4653   3.4995   3.5279   3.5650
  3.5794   3.5961   3.6094   3.6362   3.6545   3.6697   3.6877   3.6965
  3.7224   3.7449   3.7526   3.7889   3.8067   3.8120   3.8160   3.8431
  3.8467   3.8601   3.8650   3.8818   3.8949   3.9110   3.9298   3.9398
  3.9582   3.9665   4.0005   4.0313   4.0644   4.0766   4.1189   4.1236
  4.1386   4.1685   4.1853   4.2207   4.2238   4.2458   4.2498   4.2850
  4.3041   4.3359   4.3545   4.3654   4.3824   4.3938   4.4115   4.4312
  4.4363   4.4761   4.5277   4.5605   4.5751   4.6238   4.6404   4.6808
  4.7161   4.7500   4.7920   4.8676   4.8953   5.0193   5.0509   5.0771
  5.1274   5.1466   5.1702   5.2147   5.2204   5.2306   5.2346   5.2519
  5.2693   5.2762   5.2903   5.2970   5.2990   5.3147   5.3207   5.3306
  5.3565   5.3634   5.3749   5.3838   5.3938   5.4045   5.4293   5.4368
  5.4511   5.4904   5.4955   5.5085   5.5324   5.5338   5.5595   5.5866
  5.5902   5.6061   5.6238   5.6331   5.6406   5.6516   5.6681   5.6814
  5.7189   5.7690   5.7771   5.7977   5.8087   5.8381   5.9132   5.9593
  5.9820   6.0322   6.0566   6.0819   6.0947   6.1507   6.1618   6.2532
  6.2769   6.5003   6.5459   6.5871   6.7540   6.8144   6.8370   6.8678
  6.8945   7.0009   7.0208   7.0615   7.0830   7.0877   7.1074   7.1377
  7.1646   7.2457   7.2579   7.2707   7.2787   7.2880   7.3141   7.3208
  7.3370   7.3430   7.3720   7.3986   7.4233   7.4303   7.4648   7.5026
  7.5142   7.5525   7.5908   7.6157   7.6375   7.6706   7.6965   7.7427
  7.7784   7.8359   7.8619   7.8666   7.8887   7.9156   8.0220   8.2060
 24.6405  24.7865  24.8404  24.8708  50.4976  50.5470  50.5953  50.6115
 50.6285  50.6587  50.7080
 
 Beta MOs
 -- Occupied --
-19.4056 -19.3991 -19.3807 -19.3582 -19.3495 -19.3487 -19.3475 -10.4681
-10.4622 -10.4494 -10.3597  -1.2796  -1.2128  -1.1998  -1.1825  -1.1381
 -1.1135  -1.0403  -0.9051  -0.8335  -0.7539  -0.7365  -0.6924  -0.6555
 -0.6539  -0.6216  -0.6125  -0.5952  -0.5846  -0.5734  -0.5625  -0.5449
 -0.5342  -0.5047  -0.4820  -0.4735  -0.4635  -0.4499  -0.4347  -0.4273
 -0.4167  -0.4109  -0.4006  -0.3900
 -- Virtual --
 -0.0765   0.0273   0.0373   0.0407   0.0429   0.0614   0.0663   0.0706
  0.0749   0.0916   0.0957   0.1133   0.1212   0.1263   0.1280   0.1382
  0.1486   0.1519   0.1548   0.1594   0.1696   0.1728   0.1819   0.1837
  0.1928   0.2013   0.2091   0.2147   0.2353   0.2423   0.2447   0.2513
  0.2576   0.2648   0.2743   0.2835   0.2846   0.2872   0.2915   0.3035
  0.3040   0.3108   0.3186   0.3261   0.3327   0.3389   0.3423   0.3485
  0.3559   0.3606   0.3634   0.3694   0.3776   0.3809   0.3867   0.3910
  0.3954   0.4006   0.4063   0.4096   0.4165   0.4201   0.4301   0.4324
  0.4455   0.4477   0.4585   0.4737   0.4755   0.4844   0.4898   0.5091
  0.5221   0.5627   0.5753   0.5838   0.5989   0.6166   0.6246   0.6380
  0.6502   0.6547   0.6778   0.6837   0.6927   0.7016   0.7072   0.7243
  0.7250   0.7487   0.7518   0.7602   0.7709   0.7857   0.8049   0.8257
  0.8298   0.8543   0.8718   0.8961   0.9009   0.9189   0.9336   0.9518
  0.9757   0.9842   1.0069   1.0322   1.0475   1.0630   1.0737   1.0823
  1.0865   1.1093   1.1172   1.1266   1.1397   1.1533   1.1569   1.1732
  1.1788   1.1834   1.1892   1.2012   1.2111   1.2178   1.2215   1.2392
  1.2438   1.2517   1.2618   1.2687   1.2825   1.2867   1.3040   1.3143
  1.3221   1.3367   1.3425   1.3534   1.3659   1.3817   1.3981   1.4076
  1.4365   1.4436   1.4592   1.4730   1.4865   1.4952   1.5034   1.5177
  1.5273   1.5415   1.5547   1.5614   1.5846   1.6058   1.6090   1.6223
  1.6327   1.6500   1.6868   1.6904   1.6983   1.7204   1.7359   1.7457
  1.7697   1.7881   1.8140   1.8370   1.8484   1.8727   1.9049   1.9189
  1.9394   1.9500   1.9697   1.9842   2.0008   2.0224   2.0588   2.0788
  2.1092   2.1226   2.1554   2.2013   2.2232   2.2432   2.2650   2.2972
  2.3242   2.3521   2.3590   2.3863   2.3943   2.4049   2.4399   2.4625
  2.4729   2.4871   2.4991   2.5142   2.5450   2.5634   2.6053   2.6551
  2.6958   2.7247   2.7994   2.8064   2.8374   2.8527   2.8680   2.8982
  2.9051   2.9549   2.9714   2.9951   3.0513   3.0680   3.0975   3.1355
  3.1508   3.2012   3.2180   3.2700   3.2905   3.2947   3.3259   3.3454
  3.3709   3.4005   3.4229   3.4332   3.4564   3.4682   3.5023   3.5304
  3.5666   3.5801   3.5964   3.6121   3.6371   3.6552   3.6706   3.6897
  3.6976   3.7241   3.7460   3.7539   3.7913   3.8084   3.8133   3.8175
  3.8450   3.8491   3.8607   3.8659   3.8828   3.8979   3.9124   3.9308
  3.9418   3.9618   3.9676   4.0025   4.0331   4.0654   4.0799   4.1232
  4.1275   4.1402   4.1713   4.1881   4.2232   4.2285   4.2470   4.2511
  4.2878   4.3049   4.3414   4.3567   4.3686   4.3869   4.3980   4.4159
  4.4351   4.4409   4.4774   4.5349   4.5663   4.5782   4.6272   4.6420
  4.6861   4.7178   4.7535   4.7952   4.8683   4.8988   5.0215   5.0517
  5.1103   5.1708   5.1972   5.2123   5.2225   5.2282   5.2405   5.2489
  5.2635   5.2782   5.2899   5.2953   5.3010   5.3104   5.3216   5.3309
  5.3472   5.3590   5.3698   5.3872   5.3881   5.4038   5.4100   5.4346
  5.4478   5.4705   5.4961   5.5031   5.5132   5.5373   5.5438   5.5660
  5.5895   5.5943   5.6083   5.6256   5.6345   5.6468   5.6538   5.6704
  5.6821   5.7194   5.7698   5.7804   5.8020   5.8114   5.8416   5.9155
  5.9696   6.0003   6.0325   6.0576   6.0938   6.1038   6.1518   6.1631
  6.2535   6.2869   6.5008   6.5526   6.5881   6.7541   6.8189   6.8538
  6.8680   6.9816   7.0208   7.0557   7.0819   7.0870   7.0920   7.1109
  7.1430   7.1702   7.2486   7.2647   7.2709   7.2845   7.3002   7.3212
  7.3229   7.3412   7.3489   7.3926   7.4201   7.4261   7.4500   7.4707
  7.5050   7.5166   7.5661   7.5923   7.6169   7.6535   7.6707   7.6978
  7.7618   7.7793   7.8375   7.8624   7.8757   7.8909   7.9157   8.0222
  8.2061  24.6415  24.7870  24.8404  24.8709  50.4977  50.5572  50.5977
 50.6127  50.6286  50.6599  50.7081
 --------------------------------------------------------------
 
          Ground-State Mulliken Net Atomic Charges

     Atom                 Charge (a.u.)    Spin (a.u.)
  --------------------------------------------------------
      1 C                    -0.149811      -0.001019
      2 O                    -0.424139      -0.000031
      3 C                     0.175658      -0.005653
      4 O                    -0.390853       0.004691
      5 C                    -0.479772       0.076854
      6 C                    -0.116362       0.010604
      7 O                    -0.172976       0.840840
      8 H                     0.305916       0.000665
      9 H                     0.338432      -0.000144
     10 H                     0.300882      -0.004454
     11 H                     0.297821       0.003279
     12 H                     0.312102       0.076686
     13 O                    -0.458906       0.000472
     14 H                     0.353419       0.000047
     15 O                    -0.160866       0.001030
     16 O                    -0.285702      -0.000582
     17 H                     0.316034      -0.003970
     18 H                     0.338415      -0.000814
     19 O                    -0.444548      -0.000820
     20 H                     0.345255       0.002320
  --------------------------------------------------------
  Sum of atomic charges =     0.000000
  Sum of spin   charges =     1.000000

 -----------------------------------------------------------------
                    Cartesian Multipole Moments
 -----------------------------------------------------------------
    Charge (ESU x 10^10)
                 0.0000
    Dipole Moment (Debye)
         X       0.7013      Y       4.1163      Z      -2.0694
       Tot       4.6603
    Quadrupole Moments (Debye-Ang)
        XX     -56.9425     XY      11.6204     YY     -74.5686
        XZ      -6.7489     YZ      -6.6847     ZZ     -65.9654
    Octopole Moments (Debye-Ang^2)
       XXX    -674.4389    XXY      26.1468    XYY    -301.2501
       YYY      89.7130    XXZ     -48.2110    XYZ     -29.2642
       YYZ       2.2178    XZZ    -268.0506    YZZ      12.3127
       ZZZ     -52.5225
    Hexadecapole Moments (Debye-Ang^3)
      XXXX   -5851.6126   XXXY    -184.8189   XXYY   -1526.1372
      XYYY     158.8229   YYYY    -833.9513   XXXZ    -475.4933
      XXYZ    -208.1015   XYYZ     -68.3618   YYYZ    -204.3282
      XXZZ   -1279.1456   XYZZ     -25.6310   YYZZ    -279.9263
      XZZZ    -308.6429   YZZZ    -203.6578   ZZZZ    -582.3840
 -----------------------------------------------------------------
 Calculating analytic gradient of the SCF energy
 Gradient of CDS energy
            1           2           3           4           5           6
    1  -0.0025413   0.0016658  -0.0019069   0.0019968  -0.0000712  -0.0006569
    2  -0.0015316  -0.0014463  -0.0009802   0.0009894   0.0000430   0.0021366
    3  -0.0001570   0.0002019   0.0032333  -0.0034796  -0.0000930   0.0047238
            7           8           9          10          11          12
    1   0.0022661   0.0002506  -0.0003938  -0.0001768   0.0000831  -0.0000833
    2   0.0007807  -0.0000507   0.0002350  -0.0000195  -0.0000382  -0.0001513
    3  -0.0047559  -0.0000029  -0.0002405   0.0000383  -0.0001104  -0.0000402
           13          14          15          16          17          18
    1   0.0010998  -0.0002744  -0.0000522  -0.0002841  -0.0001297   0.0004764
    2   0.0029736  -0.0003721  -0.0000130  -0.0000291  -0.0001124  -0.0000682
    3  -0.0001024   0.0001783  -0.0000856   0.0001044   0.0003637  -0.0001570
           19          20
    1  -0.0012549  -0.0000132
    2  -0.0028640   0.0005181
    3   0.0004007  -0.0000200
 Gradient of SCF Energy
            1           2           3           4           5           6
    1  -0.0018296   0.0024766   0.0036786  -0.0039278   0.0025490  -0.0163183
    2   0.0007234   0.0010638   0.0020429  -0.0037395  -0.0130246   0.0093968
    3   0.0042016   0.0146220  -0.0009566  -0.0038568   0.0143758  -0.0028354
            7           8           9          10          11          12
    1   0.0010793   0.0009512  -0.0047061  -0.0056527   0.0066308   0.0113995
    2   0.0006042   0.0044995   0.0004207   0.0086455   0.0023793  -0.0093742
    3   0.0023532  -0.0055312  -0.0131795   0.0019096  -0.0111093  -0.0029616
           13          14          15          16          17          18
    1   0.0032744  -0.0027023  -0.0034569  -0.0137437   0.0029898   0.0148549
    2  -0.0054998   0.0006247  -0.0043348  -0.0128955   0.0032291   0.0134109
    3  -0.0020036   0.0008033   0.0013707  -0.0078998   0.0040872   0.0064748
           19          20
    1   0.0163236  -0.0138704
    2  -0.0075754   0.0094028
    3   0.0035964  -0.0034607
 Max gradient component =       1.632E-02
 RMS gradient           =       7.558E-03
 Computing fast CPCM-SWIG gradient
 Updating gradient with PCM contributions...
 -- total gradient after adding PCM contribution --
---------------------------------------------------
  Atom         X              Y              Z     
---------------------------------------------------
   1       0.001159       0.000062      -0.000146
   2      -0.000477       0.000217       0.000010
   3      -0.000271      -0.000066      -0.000083
   4      -0.000039       0.000004       0.000030
   5      -0.000051      -0.000022      -0.000077
   6      -0.000020       0.000013       0.000299
   7       0.000070       0.000022      -0.000166
   8      -0.000216      -0.000038       0.000196
   9      -0.000057       0.000048      -0.000040
  10      -0.000008      -0.000003      -0.000010
  11       0.000032      -0.000029      -0.000002
  12       0.000021      -0.000051      -0.000045
  13      -0.000190      -0.000200       0.000011
  14      -0.000069      -0.000019       0.000062
  15      -0.000089      -0.000009      -0.000011
  16       0.000082       0.000000      -0.000008
  17       0.000001       0.000059       0.000091
  18       0.000070      -0.000026      -0.000054
  19       0.000086       0.000007      -0.000052
  20      -0.000032       0.000033      -0.000003
---------------------------------------------------
 Number of fixed atoms: 0
 Gradient time:  CPU 460.96 s  wall 37.86 s
 ----------------------------------------------------------------
             Standard Nuclear Orientation (Angstroms)
    I     Atom           X                Y                Z
 ----------------------------------------------------------------
    1      C       2.6347504276    -1.0143044783    -1.0732865324
    2      O       1.5624479679    -0.1057922124    -1.0397811157
    3      C       3.5468746858    -0.6721397213     0.1160109193
    4      O       2.8564732892    -1.0123859130     1.2758488268
    5      C       4.0068460658     0.7753177431     0.0715267424
    6      C       5.0339231255     1.1364159094     1.1736381246
    7      O       4.4585558983     0.9659007623     2.3855502441
    8      H       3.1933495921    -0.9247107006    -2.0027159778
    9      H       1.0925899059    -0.1691958861    -1.8790766313
   10      H       3.1447300428     1.4300757078     0.1799183236
   11      H       4.4830375056     0.9846882732    -0.8835575054
   12      H       5.8748007296     0.4247166159     1.1269057441
   13      O       2.1950535074    -2.3464199360    -1.0048630096
   14      H       1.7878721215    -2.4837349242    -0.1388150634
   15      O       4.6679521807    -1.5828916389     0.1233722188
   16      O       5.4319142072    -1.4066465783    -1.0692159500
   17      H       3.2913475918    -0.5799501800     2.0273849197
   18      H       6.2063053787    -0.9171635840    -0.7537392997
   19      O       5.5768602483     2.4167130646     0.9688806334
   20      H       4.8527130281     3.0501758770     0.8832890882
 ----------------------------------------------------------------
 Nuclear Repulsion Energy =         729.46568618 hartrees
 There are       45 alpha and       44 beta electrons
 Discretize the solute cavity surface with Lebedev spheres
	Using 110 Lebedev grid points for each H atom
	Using 194 Lebedev grid points for other atoms
	Atomic van der Waals radii will be scaled by 1.20
 Remove points where switching function is < 1.0e-08
 Keep 1549 surface tesserae and discard 1575 interior tesserae
 Molecular Surface Area = 169.624 Angst**2
 Requested basis set is 6-311++G(2df,2p)
 There are 142 shells and 464 basis functions
 A cutoff of  1.0D-12 yielded   8892 shell pairs
 There are     93728 function pairs (    116287 Cartesian)
 Smallest overlap matrix eigenvalue = 4.49E-06
 Guess MOs from SCF MO coefficient file

 -----------------------------------------------------------------------
  General SCF calculation program by
  Eric Jon Sundstrom, Paul Horn, Yuezhi Mao, Dmitri Zuev, Alec White,
  David Stuck, Shaama M.S., Shane Yost, Joonho Lee, David Small,
  Daniel Levine, Susi Lehtola, Hugh Burton, Evgeny Epifanovsky,
  Bang C. Huynh
 -----------------------------------------------------------------------
 Exchange:     0.1500 Hartree-Fock + 1.0000 wB97M-V + LR-HF
 Correlation:  1.0000 wB97M-V
 Using SG-2 standard quadrature grid
 Nonlocal Correlation:  VV10 with C = 0.0100 and b = 6.00 and scale = 1.00000
 Grid used for NLC:  SG-1 standard quadrature
 
 Citation of the SMD model:
 Marenich, A.V.; Cramer, C.J.; Truhlar, D.G.
 J. Phys. Chem. B 2009, 113, 6378-6396.
 iSolventCode=           1
 Solvent: water                                                           
 
 vradii
            1           2           3           4           5           6
    1   1.8500000   1.5200000   1.8500000   1.5200000   1.8500000   1.8500000
            7           8           9          10          11          12
    1   1.5200000   1.2000000   1.2000000   1.2000000   1.2000000   1.2000000
           13          14          15          16          17          18
    1   1.5200000   1.2000000   1.5200000   1.5200000   1.2000000   1.2000000
           19          20
    1   1.5200000   1.2000000
 -------------------------------------------------------
 OpenMP BLAS3 based DFT computing Module                
 Release: version 1.0, May 2013, Q-Chem Inc. Pittsburgh 
 -------------------------------------------------------
 A unrestricted SCF calculation will be
 performed using Roothaan-Hall, DIIS, GDM
 SCF converges when RMS gradient is below 1.0e-07
 ---------------------------------------
  Cycle       Energy         DIIS error
 ---------------------------------------
    1    -684.2690622043      2.33e-04  Roothaan Step
 ---------------------------------------
  Cycle       Energy         DIIS error
 ---------------------------------------
    1    -684.3160120165      2.53e-04  
    2    -684.3235312058      1.77e-04  Done DIIS. Switching to GDM
 ---------------------------------------
  Cycle       Energy        RMS Gradient
 ---------------------------------------
    1    -684.3235312058      5.33e-03   Normal BFGS step
    2    -684.3238854941      6.56e-03   Normal BFGS step
    3    -684.3260121871      1.01e-03   Normal BFGS step
    4    -684.3260322043      4.60e-04   Normal BFGS step
    5    -684.3260439700      4.15e-04   Normal BFGS step
    6    -684.3260445357      1.91e-04   Normal BFGS step
    7    -684.3260450238      1.55e-04   Normal BFGS step
    8    -684.3260451093      9.67e-05   Normal BFGS step
    9    -684.3260451738      7.14e-05   Normal BFGS step
   10    -684.3260452056      6.12e-05   Normal BFGS step
   11    -684.3260452411      6.93e-05   Normal BFGS step
   12    -684.3260452791      4.20e-05   Normal BFGS step
   13    -684.3260452915      1.68e-05   Normal BFGS step
   14    -684.3260452956      1.14e-05   Normal BFGS step
   15    -684.3260452965      6.28e-06   Normal BFGS step
   16    -684.3260452967      2.31e-06   Normal BFGS step
   17    -684.3260452968      1.56e-06   Normal BFGS step
   18    -684.3260452968      8.40e-07   Normal BFGS step
   19    -684.3260452968      3.20e-07   Normal BFGS step
   20    -684.3260452968      1.18e-07   Normal BFGS step
   21    -684.3260452967      2.79e-08  Convergence criterion met
 ---------------------------------------
 SCF time:   CPU 3503.25s  wall 243.00s 
<S^2> =          0.754288643
(3)  G-ENP(liq) elect-nuc-pol free energy of system     -684.326045297 a.u.
(4)  G-CDS(liq) cavity-dispersion-solvent structure 
     free energy                                                3.7151 kcal/mol
(6)  G-S(liq) free energy of system                     -684.320124904 a.u.
 SCF   energy in the final basis set =     -684.3201249037
 Total energy in the final basis set =     -684.3201249037
 
 --------------------------------------------------------------
 
                    Orbital Energies (a.u.)
 --------------------------------------------------------------
 
 Alpha MOs
 -- Occupied --
-19.4056 -19.4025 -19.3991 -19.3582 -19.3494 -19.3488 -19.3475 -10.4679
-10.4619 -10.4494 -10.3616  -1.2797  -1.2205  -1.2118  -1.1828  -1.1429
 -1.1384  -1.0403  -0.9097  -0.8380  -0.7629  -0.7387  -0.6928  -0.6614
 -0.6561  -0.6303  -0.6195  -0.6053  -0.5912  -0.5755  -0.5666  -0.5632
 -0.5350  -0.5153  -0.4983  -0.4820  -0.4654  -0.4526  -0.4472  -0.4337
 -0.4315  -0.4219  -0.4141  -0.3994  -0.3874
 -- Virtual --
  0.0269   0.0373   0.0405   0.0428   0.0614   0.0660   0.0700   0.0747
  0.0914   0.0956   0.1125   0.1208   0.1260   0.1280   0.1373   0.1485
  0.1511   0.1545   0.1589   0.1693   0.1722   0.1816   0.1834   0.1926
  0.2009   0.2085   0.2145   0.2340   0.2417   0.2436   0.2504   0.2566
  0.2639   0.2739   0.2830   0.2841   0.2857   0.2906   0.3020   0.3030
  0.3104   0.3162   0.3259   0.3322   0.3365   0.3418   0.3471   0.3553
  0.3600   0.3614   0.3678   0.3773   0.3789   0.3855   0.3901   0.3937
  0.4000   0.4045   0.4091   0.4136   0.4188   0.4280   0.4322   0.4452
  0.4469   0.4576   0.4721   0.4753   0.4843   0.4889   0.5072   0.5205
  0.5598   0.5731   0.5833   0.5973   0.6159   0.6241   0.6364   0.6479
  0.6542   0.6772   0.6834   0.6912   0.7003   0.7051   0.7220   0.7238
  0.7474   0.7507   0.7580   0.7700   0.7848   0.8043   0.8248   0.8296
  0.8541   0.8712   0.8952   0.8997   0.9175   0.9325   0.9516   0.9751
  0.9823   1.0066   1.0317   1.0452   1.0621   1.0732   1.0792   1.0861
  1.1086   1.1160   1.1237   1.1337   1.1503   1.1557   1.1648   1.1778
  1.1813   1.1874   1.1993   1.2064   1.2173   1.2198   1.2379   1.2404
  1.2502   1.2521   1.2675   1.2801   1.2847   1.3020   1.3105   1.3178
  1.3357   1.3376   1.3518   1.3642   1.3796   1.3954   1.4061   1.4329
  1.4406   1.4570   1.4722   1.4828   1.4922   1.5021   1.5162   1.5252
  1.5380   1.5519   1.5598   1.5834   1.6033   1.6045   1.6197   1.6299
  1.6477   1.6852   1.6885   1.6964   1.7170   1.7308   1.7424   1.7643
  1.7752   1.8105   1.8266   1.8411   1.8694   1.9010   1.9115   1.9365
  1.9458   1.9667   1.9819   1.9988   2.0199   2.0570   2.0766   2.1049
  2.1188   2.1481   2.1977   2.2219   2.2403   2.2628   2.2942   2.3210
  2.3502   2.3565   2.3858   2.3902   2.4050   2.4348   2.4596   2.4695
  2.4858   2.4973   2.5107   2.5398   2.5627   2.6041   2.6523   2.6952
  2.7193   2.7976   2.8044   2.8361   2.8490   2.8671   2.8957   2.9009
  2.9517   2.9684   2.9912   3.0490   3.0657   3.0927   3.1330   3.1490
  3.1996   3.2168   3.2672   3.2865   3.2931   3.3218   3.3446   3.3698
  3.3987   3.4184   3.4301   3.4553   3.4653   3.4996   3.5279   3.5653
  3.5795   3.5962   3.6096   3.6363   3.6544   3.6697   3.6878   3.6961
  3.7222   3.7447   3.7528   3.7890   3.8066   3.8120   3.8159   3.8429
  3.8468   3.8598   3.8647   3.8818   3.8948   3.9110   3.9298   3.9399
  3.9584   3.9666   4.0004   4.0312   4.0637   4.0766   4.1190   4.1234
  4.1389   4.1678   4.1854   4.2207   4.2238   4.2458   4.2496   4.2848
  4.3040   4.3357   4.3542   4.3653   4.3817   4.3932   4.4114   4.4310
  4.4359   4.4754   4.5276   4.5605   4.5742   4.6233   4.6400   4.6805
  4.7161   4.7499   4.7919   4.8674   4.8950   5.0192   5.0509   5.0770
  5.1273   5.1465   5.1702   5.2147   5.2205   5.2307   5.2346   5.2519
  5.2692   5.2762   5.2903   5.2970   5.2990   5.3147   5.3206   5.3306
  5.3566   5.3633   5.3749   5.3838   5.3938   5.4046   5.4284   5.4368
  5.4510   5.4905   5.4954   5.5085   5.5325   5.5340   5.5598   5.5865
  5.5898   5.6057   5.6239   5.6331   5.6406   5.6516   5.6683   5.6816
  5.7191   5.7690   5.7773   5.7978   5.8089   5.8383   5.9134   5.9595
  5.9822   6.0326   6.0572   6.0820   6.0952   6.1515   6.1663   6.2532
  6.2770   6.5001   6.5459   6.5881   6.7568   6.8145   6.8370   6.8678
  6.8945   7.0009   7.0209   7.0614   7.0830   7.0877   7.1074   7.1378
  7.1646   7.2457   7.2580   7.2708   7.2787   7.2881   7.3141   7.3209
  7.3372   7.3431   7.3720   7.3986   7.4236   7.4304   7.4649   7.5026
  7.5143   7.5525   7.5909   7.6157   7.6376   7.6707   7.6967   7.7426
  7.7786   7.8359   7.8621   7.8666   7.8886   7.9160   8.0220   8.2060
 24.6407  24.7871  24.8404  24.8703  50.4976  50.5470  50.5953  50.6117
 50.6290  50.6587  50.7082
 
 Beta MOs
 -- Occupied --
-19.4056 -19.3990 -19.3807 -19.3581 -19.3495 -19.3488 -19.3475 -10.4680
-10.4622 -10.4493 -10.3596  -1.2796  -1.2131  -1.1998  -1.1826  -1.1384
 -1.1135  -1.0402  -0.9049  -0.8333  -0.7538  -0.7365  -0.6925  -0.6557
 -0.6539  -0.6216  -0.6125  -0.5952  -0.5846  -0.5734  -0.5625  -0.5449
 -0.5343  -0.5047  -0.4819  -0.4735  -0.4634  -0.4499  -0.4346  -0.4272
 -0.4167  -0.4110  -0.4006  -0.3898
 -- Virtual --
 -0.0765   0.0273   0.0373   0.0407   0.0430   0.0614   0.0663   0.0706
  0.0749   0.0916   0.0957   0.1133   0.1212   0.1263   0.1280   0.1382
  0.1486   0.1519   0.1548   0.1594   0.1696   0.1728   0.1819   0.1837
  0.1929   0.2014   0.2091   0.2149   0.2353   0.2424   0.2447   0.2513
  0.2576   0.2648   0.2744   0.2836   0.2847   0.2872   0.2916   0.3035
  0.3040   0.3107   0.3185   0.3261   0.3327   0.3389   0.3423   0.3485
  0.3559   0.3605   0.3633   0.3695   0.3775   0.3809   0.3868   0.3910
  0.3954   0.4006   0.4063   0.4097   0.4166   0.4201   0.4302   0.4324
  0.4455   0.4477   0.4585   0.4737   0.4755   0.4843   0.4899   0.5091
  0.5222   0.5627   0.5753   0.5838   0.5988   0.6166   0.6246   0.6381
  0.6502   0.6547   0.6779   0.6838   0.6926   0.7016   0.7072   0.7244
  0.7249   0.7487   0.7518   0.7602   0.7708   0.7857   0.8048   0.8258
  0.8298   0.8542   0.8717   0.8961   0.9009   0.9189   0.9336   0.9518
  0.9757   0.9842   1.0070   1.0321   1.0475   1.0631   1.0737   1.0823
  1.0866   1.1092   1.1171   1.1265   1.1397   1.1533   1.1569   1.1733
  1.1788   1.1834   1.1891   1.2012   1.2111   1.2178   1.2215   1.2392
  1.2438   1.2517   1.2617   1.2687   1.2826   1.2867   1.3041   1.3142
  1.3220   1.3365   1.3425   1.3534   1.3661   1.3817   1.3981   1.4075
  1.4365   1.4435   1.4592   1.4731   1.4865   1.4952   1.5034   1.5176
  1.5272   1.5415   1.5547   1.5614   1.5846   1.6058   1.6089   1.6218
  1.6325   1.6500   1.6867   1.6903   1.6982   1.7203   1.7359   1.7455
  1.7699   1.7880   1.8140   1.8368   1.8481   1.8727   1.9049   1.9190
  1.9394   1.9499   1.9697   1.9843   2.0010   2.0224   2.0589   2.0788
  2.1094   2.1226   2.1554   2.2014   2.2235   2.2434   2.2652   2.2972
  2.3242   2.3523   2.3593   2.3867   2.3944   2.4053   2.4399   2.4625
  2.4732   2.4871   2.4992   2.5142   2.5450   2.5638   2.6052   2.6551
  2.6958   2.7248   2.7997   2.8062   2.8375   2.8530   2.8680   2.8985
  2.9053   2.9549   2.9715   2.9951   3.0512   3.0677   3.0974   3.1356
  3.1507   3.2011   3.2176   3.2700   3.2905   3.2947   3.3260   3.3459
  3.3711   3.4002   3.4231   3.4333   3.4567   3.4682   3.5023   3.5304
  3.5669   3.5803   3.5965   3.6123   3.6372   3.6551   3.6706   3.6898
  3.6972   3.7239   3.7459   3.7540   3.7913   3.8083   3.8132   3.8174
  3.8449   3.8492   3.8604   3.8656   3.8828   3.8978   3.9125   3.9309
  3.9419   3.9619   3.9676   4.0024   4.0330   4.0647   4.0799   4.1233
  4.1273   4.1405   4.1707   4.1882   4.2232   4.2284   4.2470   4.2510
  4.2877   4.3048   4.3411   4.3564   4.3685   4.3860   4.3975   4.4157
  4.4348   4.4407   4.4767   4.5348   4.5663   4.5773   4.6266   4.6416
  4.6859   4.7177   4.7534   4.7951   4.8682   4.8985   5.0215   5.0517
  5.1100   5.1708   5.1972   5.2124   5.2225   5.2281   5.2405   5.2490
  5.2635   5.2784   5.2898   5.2953   5.3011   5.3104   5.3215   5.3310
  5.3472   5.3590   5.3697   5.3871   5.3881   5.4040   5.4098   5.4338
  5.4479   5.4705   5.4960   5.5032   5.5132   5.5375   5.5441   5.5662
  5.5892   5.5939   5.6080   5.6256   5.6346   5.6468   5.6539   5.6705
  5.6823   5.7196   5.7698   5.7806   5.8020   5.8117   5.8418   5.9157
  5.9700   6.0004   6.0329   6.0582   6.0941   6.1042   6.1528   6.1673
  6.2535   6.2869   6.5007   6.5526   6.5891   6.7569   6.8189   6.8538
  6.8680   6.9816   7.0208   7.0557   7.0819   7.0871   7.0920   7.1110
  7.1430   7.1702   7.2487   7.2648   7.2710   7.2846   7.3002   7.3213
  7.3229   7.3414   7.3489   7.3926   7.4204   7.4262   7.4500   7.4707
  7.5051   7.5167   7.5661   7.5924   7.6169   7.6536   7.6708   7.6979
  7.7618   7.7795   7.8375   7.8626   7.8757   7.8909   7.9161   8.0222
  8.2061  24.6418  24.7877  24.8403  24.8703  50.4977  50.5573  50.5977
 50.6129  50.6290  50.6598  50.7083
 --------------------------------------------------------------
 
          Ground-State Mulliken Net Atomic Charges

     Atom                 Charge (a.u.)    Spin (a.u.)
  --------------------------------------------------------
      1 C                    -0.149182      -0.000988
      2 O                    -0.423448      -0.000032
      3 C                     0.175597      -0.005684
      4 O                    -0.390889       0.004695
      5 C                    -0.480028       0.076893
      6 C                    -0.116292       0.010596
      7 O                    -0.173030       0.840811
      8 H                     0.305014       0.000664
      9 H                     0.338488      -0.000144
     10 H                     0.300853      -0.004453
     11 H                     0.297803       0.003280
     12 H                     0.312085       0.076678
     13 O                    -0.458650       0.000474
     14 H                     0.353368       0.000047
     15 O                    -0.160882       0.001029
     16 O                    -0.285922      -0.000581
     17 H                     0.316020      -0.003971
     18 H                     0.338399      -0.000815
     19 O                    -0.444552      -0.000817
     20 H                     0.345251       0.002319
  --------------------------------------------------------
  Sum of atomic charges =     0.000000
  Sum of spin   charges =     1.000000

 -----------------------------------------------------------------
                    Cartesian Multipole Moments
 -----------------------------------------------------------------
    Charge (ESU x 10^10)
                 0.0000
    Dipole Moment (Debye)
         X       0.6898      Y       4.1173      Z      -2.0706
       Tot       4.6600
    Quadrupole Moments (Debye-Ang)
        XX     -57.0029     XY      11.6277     YY     -74.5681
        XZ      -6.7407     YZ      -6.6877     ZZ     -65.9758
    Octopole Moments (Debye-Ang^2)
       XXX    -674.6817    XXY      26.1778    XYY    -301.2529
       YYY      89.7014    XXZ     -48.1665    XYZ     -29.2812
       YYZ       2.2125    XZZ    -268.0960    YZZ      12.3244
       ZZZ     -52.5129
    Hexadecapole Moments (Debye-Ang^3)
      XXXX   -5852.5476   XXXY    -184.7325   XXYY   -1526.1753
      XYYY     158.7540   YYYY    -833.9158   XXXZ    -475.3456
      XXYZ    -208.1772   XYYZ     -68.3761   YYYZ    -204.3235
      XXZZ   -1279.3202   XYZZ     -25.5982   YYZZ    -279.9391
      XZZZ    -308.6106   YZZZ    -203.6860   ZZZZ    -582.4827
 -----------------------------------------------------------------
 Calculating analytic gradient of the SCF energy
 Gradient of CDS energy
            1           2           3           4           5           6
    1  -0.0028233   0.0019012  -0.0019069   0.0019972  -0.0000711  -0.0006568
    2  -0.0014686  -0.0016486  -0.0009802   0.0009892   0.0000430   0.0021366
    3  -0.0001423   0.0001945   0.0032333  -0.0034794  -0.0000928   0.0047238
            7           8           9          10          11          12
    1   0.0022661   0.0002517  -0.0003930  -0.0001762   0.0000831  -0.0000833
    2   0.0007807  -0.0000516   0.0002344  -0.0000195  -0.0000382  -0.0001513
    3  -0.0047559  -0.0000029  -0.0002404   0.0000385  -0.0001105  -0.0000402
           13          14          15          16          17          18
    1   0.0011430  -0.0002740  -0.0000520  -0.0002843  -0.0001297   0.0004764
    2   0.0031142  -0.0003717  -0.0000128  -0.0000293  -0.0001124  -0.0000682
    3  -0.0001102   0.0001784  -0.0000855   0.0001043   0.0003637  -0.0001570
           19          20
    1  -0.0012549  -0.0000132
    2  -0.0028640   0.0005181
    3   0.0004007  -0.0000200
 Gradient of SCF Energy
            1           2           3           4           5           6
    1  -0.0041716   0.0034053   0.0040906  -0.0039536   0.0025661  -0.0163093
    2   0.0006635   0.0006178   0.0021310  -0.0037566  -0.0129776   0.0093903
    3   0.0044609   0.0146865  -0.0007331  -0.0039325   0.0143892  -0.0028392
            7           8           9          10          11          12
    1   0.0010787   0.0013839  -0.0046410  -0.0056588   0.0066236   0.0113897
    2   0.0006001   0.0045375   0.0003450   0.0086424   0.0023798  -0.0093670
    3   0.0023574  -0.0059232  -0.0132162   0.0019048  -0.0110975  -0.0029577
           13          14          15          16          17          18
    1   0.0036881  -0.0026824  -0.0033603  -0.0137380   0.0029910   0.0148480
    2  -0.0051394   0.0007121  -0.0043573  -0.0128883   0.0032417   0.0134037
    3  -0.0021189   0.0008063   0.0014369  -0.0078943   0.0040643   0.0064727
           19          20
    1   0.0163187  -0.0138688
    2  -0.0075796   0.0094007
    3   0.0035934  -0.0034598
 Max gradient component =       1.632E-02
 RMS gradient           =       7.590E-03
 Computing fast CPCM-SWIG gradient
 Updating gradient with PCM contributions...
 -- total gradient after adding PCM contribution --
---------------------------------------------------
  Atom         X              Y              Z     
---------------------------------------------------
   1      -0.001171       0.000012       0.000137
   2       0.000412      -0.000226       0.000053
   3       0.000125       0.000009       0.000152
   4      -0.000075      -0.000013      -0.000063
   5      -0.000032       0.000019      -0.000054
   6      -0.000022       0.000014       0.000293
   7       0.000069       0.000019      -0.000162
   8       0.000221       0.000005      -0.000226
   9       0.000030      -0.000029      -0.000057
  10      -0.000007      -0.000006      -0.000011
  11       0.000031      -0.000029      -0.000001
  12       0.000021      -0.000052      -0.000043
  13       0.000209       0.000165      -0.000092
  14      -0.000035       0.000066       0.000057
  15       0.000012      -0.000036       0.000053
  16       0.000082       0.000000      -0.000003
  17       0.000008       0.000073       0.000079
  18       0.000071      -0.000026      -0.000055
  19       0.000083       0.000001      -0.000054
  20      -0.000032       0.000033      -0.000003
---------------------------------------------------
 Number of fixed atoms: 0
 Gradient time:  CPU 466.37 s  wall 38.23 s
 ----------------------------------------------------------------
             Standard Nuclear Orientation (Angstroms)
    I     Atom           X                Y                Z
 ----------------------------------------------------------------
    1      C       2.6357504276    -1.0133044783    -1.0732865324
    2      O       1.5624479679    -0.1057922124    -1.0397811157
    3      C       3.5468746858    -0.6721397213     0.1160109193
    4      O       2.8564732892    -1.0123859130     1.2758488268
    5      C       4.0068460658     0.7753177431     0.0715267424
    6      C       5.0339231255     1.1364159094     1.1736381246
    7      O       4.4585558983     0.9659007623     2.3855502441
    8      H       3.1933495921    -0.9247107006    -2.0027159778
    9      H       1.0925899059    -0.1691958861    -1.8790766313
   10      H       3.1447300428     1.4300757078     0.1799183236
   11      H       4.4830375056     0.9846882732    -0.8835575054
   12      H       5.8748007296     0.4247166159     1.1269057441
   13      O       2.1950535074    -2.3464199360    -1.0048630096
   14      H       1.7878721215    -2.4837349242    -0.1388150634
   15      O       4.6679521807    -1.5828916389     0.1233722188
   16      O       5.4319142072    -1.4066465783    -1.0692159500
   17      H       3.2913475918    -0.5799501800     2.0273849197
   18      H       6.2063053787    -0.9171635840    -0.7537392997
   19      O       5.5768602483     2.4167130646     0.9688806334
   20      H       4.8527130281     3.0501758770     0.8832890882
 ----------------------------------------------------------------
 Nuclear Repulsion Energy =         729.46992681 hartrees
 There are       45 alpha and       44 beta electrons
 Discretize the solute cavity surface with Lebedev spheres
	Using 110 Lebedev grid points for each H atom
	Using 194 Lebedev grid points for other atoms
	Atomic van der Waals radii will be scaled by 1.20
 Remove points where switching function is < 1.0e-08
 Keep 1549 surface tesserae and discard 1575 interior tesserae
 Molecular Surface Area = 169.623 Angst**2
 Requested basis set is 6-311++G(2df,2p)
 There are 142 shells and 464 basis functions
 A cutoff of  1.0D-12 yielded   8892 shell pairs
 There are     93728 function pairs (    116287 Cartesian)
 Smallest overlap matrix eigenvalue = 4.48E-06
 Guess MOs from SCF MO coefficient file

 -----------------------------------------------------------------------
  General SCF calculation program by
  Eric Jon Sundstrom, Paul Horn, Yuezhi Mao, Dmitri Zuev, Alec White,
  David Stuck, Shaama M.S., Shane Yost, Joonho Lee, David Small,
  Daniel Levine, Susi Lehtola, Hugh Burton, Evgeny Epifanovsky,
  Bang C. Huynh
 -----------------------------------------------------------------------
 Exchange:     0.1500 Hartree-Fock + 1.0000 wB97M-V + LR-HF
 Correlation:  1.0000 wB97M-V
 Using SG-2 standard quadrature grid
 Nonlocal Correlation:  VV10 with C = 0.0100 and b = 6.00 and scale = 1.00000
 Grid used for NLC:  SG-1 standard quadrature
 
 Citation of the SMD model:
 Marenich, A.V.; Cramer, C.J.; Truhlar, D.G.
 J. Phys. Chem. B 2009, 113, 6378-6396.
 iSolventCode=           1
 Solvent: water                                                           
 
 vradii
            1           2           3           4           5           6
    1   1.8500000   1.5200000   1.8500000   1.5200000   1.8500000   1.8500000
            7           8           9          10          11          12
    1   1.5200000   1.2000000   1.2000000   1.2000000   1.2000000   1.2000000
           13          14          15          16          17          18
    1   1.5200000   1.2000000   1.5200000   1.5200000   1.2000000   1.2000000
           19          20
    1   1.5200000   1.2000000
 -------------------------------------------------------
 OpenMP BLAS3 based DFT computing Module                
 Release: version 1.0, May 2013, Q-Chem Inc. Pittsburgh 
 -------------------------------------------------------
 A unrestricted SCF calculation will be
 performed using Roothaan-Hall, DIIS, GDM
 SCF converges when RMS gradient is below 1.0e-07
 ---------------------------------------
  Cycle       Energy         DIIS error
 ---------------------------------------
    1    -684.2690586426      2.32e-04  Roothaan Step
 ---------------------------------------
  Cycle       Energy         DIIS error
 ---------------------------------------
    1    -684.3159819559      2.53e-04  
    2    -684.3235044157      1.77e-04  Done DIIS. Switching to GDM
 ---------------------------------------
  Cycle       Energy        RMS Gradient
 ---------------------------------------
    1    -684.3235044157      5.34e-03   Normal BFGS step
    2    -684.3238553316      6.54e-03   Normal BFGS step
    3    -684.3260043766      1.01e-03   Normal BFGS step
    4    -684.3260244695      4.61e-04   Normal BFGS step
    5    -684.3260361998      4.14e-04   Normal BFGS step
    6    -684.3260367679      1.91e-04   Normal BFGS step
    7    -684.3260372568      1.55e-04   Normal BFGS step
    8    -684.3260373445      9.65e-05   Normal BFGS step
    9    -684.3260374125      7.37e-05   Normal BFGS step
   10    -684.3260374468      6.28e-05   Normal BFGS step
   11    -684.3260374852      7.33e-05   Normal BFGS step
   12    -684.3260375251      4.39e-05   Normal BFGS step
   13    -684.3260375379      1.70e-05   Normal BFGS step
   14    -684.3260375421      1.14e-05   Normal BFGS step
   15    -684.3260375430      6.35e-06   Normal BFGS step
   16    -684.3260375432      2.30e-06   Normal BFGS step
   17    -684.3260375433      1.57e-06   Normal BFGS step
   18    -684.3260375433      8.48e-07   Normal BFGS step
   19    -684.3260375433      3.22e-07   Normal BFGS step
   20    -684.3260375433      1.19e-07   Normal BFGS step
   21    -684.3260375432      2.78e-08  Convergence criterion met
 ---------------------------------------
 SCF time:   CPU 3509.51s  wall 243.00s 
<S^2> =          0.754288489
(3)  G-ENP(liq) elect-nuc-pol free energy of system     -684.326037543 a.u.
(4)  G-CDS(liq) cavity-dispersion-solvent structure 
     free energy                                                3.7102 kcal/mol
(6)  G-S(liq) free energy of system                     -684.320124902 a.u.
 SCF   energy in the final basis set =     -684.3201249018
 Total energy in the final basis set =     -684.3201249018
 
 --------------------------------------------------------------
 
                    Orbital Energies (a.u.)
 --------------------------------------------------------------
 
 Alpha MOs
 -- Occupied --
-19.4056 -19.4025 -19.3991 -19.3582 -19.3494 -19.3488 -19.3474 -10.4680
-10.4619 -10.4495 -10.3616  -1.2797  -1.2205  -1.2116  -1.1828  -1.1429
[...]
 Force Cnst:      1.5197                 1.1117                 1.1318
 Red. Mass:       1.8717                 1.3366                 1.3059
 IR Active:          YES                    YES                    YES
 IR Intens:      140.405                219.200                 48.158
 Raman Active:       YES                    YES                    YES
               X      Y      Z        X      Y      Z        X      Y      Z
 C          0.131 -0.001 -0.004    0.002  0.000 -0.004    0.017  0.049 -0.022
 O         -0.096  0.082  0.017    0.001  0.005  0.005    0.012  0.027  0.038
 C         -0.028 -0.090  0.032    0.030  0.010 -0.006   -0.041  0.088 -0.023
 O          0.015  0.011 -0.031   -0.004 -0.001  0.009   -0.007 -0.012  0.021
 C          0.008  0.014 -0.017   -0.040 -0.000 -0.026    0.030 -0.032  0.002
 C         -0.003 -0.002 -0.006    0.040  0.039  0.014   -0.003  0.011  0.018
 O         -0.003  0.003  0.008   -0.002  0.011  0.006   -0.006  0.001  0.006
 H          0.527  0.325  0.267   -0.137 -0.009 -0.088   -0.366  0.196 -0.233
 H          0.002 -0.033 -0.037    0.098 -0.095 -0.044    0.521 -0.511 -0.216
 H          0.085  0.100  0.079    0.087  0.155  0.032   -0.001 -0.082  0.062
 H          0.093  0.141  0.055   -0.052 -0.077 -0.051   -0.112 -0.089 -0.079
 H          0.029  0.048 -0.097    0.439  0.521 -0.064   -0.132 -0.117 -0.236
 O         -0.036 -0.131 -0.016    0.001  0.002 -0.001   -0.018 -0.065 -0.008
 H          0.131  0.585  0.195   -0.008 -0.010 -0.008    0.017  0.162  0.051
 O         -0.018  0.022 -0.005    0.001 -0.004  0.001    0.015 -0.021  0.001
 O          0.004 -0.002 -0.004   -0.001 -0.002 -0.006   -0.001  0.004  0.010
 H          0.025  0.027 -0.043   -0.026 -0.006  0.024    0.050  0.017 -0.025
 H         -0.008  0.004  0.017   -0.027 -0.004  0.058    0.033  0.007 -0.080
 O         -0.007 -0.005  0.001   -0.071 -0.107  0.015    0.006  0.009 -0.002
 H          0.063  0.070 -0.012    0.447  0.454 -0.066   -0.051 -0.053 -0.000
 TransDip   0.338  0.158  0.069    0.268  0.385 -0.072    0.128  0.125 -0.132

 Mode:                34                     35                     36
 Frequency:      1239.92                1254.61                1272.28
 Force Cnst:      1.1964                 1.6173                 3.1179
 Red. Mass:       1.3208                 1.7439                 3.2692
 IR Active:          YES                    YES                    YES
 IR Intens:       99.163                224.118                297.473
 Raman Active:       YES                    YES                    YES
               X      Y      Z        X      Y      Z        X      Y      Z
 C         -0.021 -0.021 -0.009    0.084 -0.009 -0.000    0.211 -0.207 -0.031
 O          0.004 -0.006 -0.007   -0.049  0.024  0.001   -0.161  0.124  0.047
 C          0.045 -0.099  0.064    0.011 -0.002 -0.015   -0.003  0.115 -0.055
 O          0.020  0.023 -0.028   -0.041 -0.026  0.004   -0.012 -0.014  0.039
 C          0.011 -0.003 -0.031    0.062  0.046  0.031   -0.028 -0.066 -0.009
 C         -0.029 -0.016  0.037    0.057  0.163  0.027   -0.039 -0.112 -0.003
 O         -0.011  0.005  0.018   -0.006 -0.003  0.003    0.000  0.005  0.001
 H         -0.127 -0.053 -0.075    0.158 -0.197  0.023    0.096 -0.709 -0.152
 H         -0.019  0.018  0.005   -0.114  0.111  0.031    0.152 -0.137 -0.121
 H          0.421  0.459  0.411   -0.084 -0.127 -0.066    0.088  0.058  0.112
 H         -0.185 -0.226 -0.176   -0.338 -0.335 -0.257    0.120  0.078  0.102
 H         -0.199 -0.171 -0.433   -0.160 -0.071 -0.240    0.015 -0.049  0.004
 O          0.013  0.032  0.001   -0.009  0.002  0.012    0.018  0.088  0.000
 H         -0.004 -0.027 -0.018   -0.050 -0.229 -0.050   -0.064 -0.318 -0.114
 O         -0.032  0.021 -0.006   -0.005  0.004 -0.002    0.003 -0.021 -0.002
 O          0.009  0.000  0.001   -0.000  0.002  0.004   -0.004  0.003  0.005
 H         -0.074 -0.050  0.063    0.378  0.224 -0.360   -0.023 -0.021  0.048
 H          0.008  0.029 -0.037    0.019  0.008 -0.050    0.016  0.002 -0.043
 O          0.003  0.028 -0.006   -0.029 -0.098  0.007    0.018  0.075 -0.005
 H          0.027  0.055 -0.019   -0.124 -0.204  0.018    0.108  0.176 -0.022
 TransDip  -0.037 -0.316 -0.028    0.361  0.215 -0.231    0.189 -0.518 -0.024

 Mode:                37                     38                     39
 Frequency:      1301.68                1333.35                1363.69
 Force Cnst:      2.6821                 2.3491                 1.7789
 Red. Mass:       2.6866                 2.2427                 1.6235
 IR Active:          YES                    YES                    YES
 IR Intens:      141.063                 63.507                 21.917
 Raman Active:       YES                    YES                    YES
               X      Y      Z        X      Y      Z        X      Y      Z
 C          0.085  0.240 -0.011    0.104  0.114 -0.101   -0.001 -0.018 -0.008
 O          0.011 -0.039 -0.019   -0.018  0.007  0.017    0.002  0.002 -0.001
 C          0.080  0.078 -0.088   -0.099 -0.108  0.187   -0.045 -0.065  0.096
 O         -0.050 -0.034  0.045    0.043  0.024 -0.060    0.005  0.002 -0.035
 C         -0.044 -0.046 -0.020   -0.002  0.006 -0.043    0.060  0.107  0.015
 C         -0.027 -0.127  0.019   -0.006  0.041 -0.022    0.042 -0.115  0.019
 O          0.000  0.008  0.002    0.001 -0.003  0.005    0.005  0.007 -0.007
 H          0.214  0.135  0.046   -0.166 -0.096 -0.289   -0.130 -0.007 -0.081
 H         -0.227  0.207  0.101    0.111 -0.111 -0.050    0.017 -0.016 -0.008
 H          0.148  0.166  0.164   -0.037 -0.034 -0.011   -0.307 -0.351 -0.165
 H          0.012 -0.111 -0.004    0.208  0.349  0.140   -0.068 -0.144 -0.104
 H         -0.018 -0.117 -0.032    0.108  0.172  0.065   -0.142 -0.349  0.079
 O         -0.065 -0.114  0.045   -0.027 -0.023  0.052    0.006  0.013 -0.000
 H         -0.147 -0.538 -0.072   -0.159 -0.620 -0.122    0.008  0.021  0.001
 O          0.006 -0.022  0.013   -0.005  0.028 -0.017   -0.012  0.016 -0.010
 O         -0.004  0.006  0.006    0.006 -0.009 -0.010    0.006 -0.001  0.004
 H          0.239  0.150 -0.216   -0.042 -0.044  0.031    0.144  0.087 -0.154
 H          0.036  0.008 -0.088   -0.055 -0.007  0.131    0.035 -0.002 -0.064
 O          0.002  0.076 -0.007    0.015 -0.026  0.003   -0.052  0.044 -0.008
 H          0.205  0.299 -0.040   -0.146 -0.202  0.026    0.392  0.527 -0.058
 TransDip   0.102  0.312 -0.192   -0.147 -0.129  0.164    0.006 -0.106  0.106

 Mode:                40                     41                     42
 Frequency:      1387.59                1400.81                1438.08
 Force Cnst:      1.9516                 1.6189                 1.5675
 Red. Mass:       1.7204                 1.4003                 1.2865
 IR Active:          YES                    YES                    YES
 IR Intens:      253.147                 29.422                 56.715
 Raman Active:       YES                    YES                    YES
               X      Y      Z        X      Y      Z        X      Y      Z
 C         -0.006  0.005 -0.013   -0.025  0.043 -0.071    0.078 -0.115  0.009
 O         -0.002  0.002  0.007   -0.005  0.007  0.031   -0.007  0.011 -0.029
 C         -0.021 -0.042 -0.030   -0.025 -0.056 -0.106   -0.009  0.008 -0.023
 O          0.005  0.006  0.003    0.035  0.032  0.023    0.003  0.003  0.006
 C          0.067  0.096  0.038    0.024  0.020  0.044    0.013 -0.018  0.025
 C         -0.128 -0.133  0.061    0.041  0.030  0.004   -0.001 -0.004  0.008
 O          0.003  0.016 -0.015   -0.001 -0.004 -0.004    0.000  0.001 -0.003
 H          0.103 -0.005  0.048    0.406 -0.052  0.163   -0.226  0.824 -0.076
 H          0.039 -0.040 -0.015    0.175 -0.170 -0.063   -0.149  0.126  0.047
 H         -0.150 -0.163 -0.091    0.001  0.042 -0.244    0.052  0.077 -0.219
 H         -0.253 -0.301 -0.209   -0.248 -0.023 -0.111   -0.190  0.133 -0.048
 H          0.435  0.549 -0.270   -0.143 -0.188  0.027   -0.008 -0.011 -0.032
 O          0.000  0.002  0.006   -0.004  0.000  0.027   -0.014  0.026  0.033
 H         -0.011 -0.052 -0.009   -0.065 -0.266 -0.051   -0.093 -0.259 -0.055
 O          0.006  0.004  0.001    0.002 -0.001  0.008   -0.002 -0.001 -0.001
 O         -0.002 -0.002 -0.004   -0.001  0.004  0.004    0.000  0.001  0.001
 H         -0.022  0.000  0.013   -0.412 -0.261  0.419   -0.051 -0.035  0.054
 H         -0.041  0.006  0.075    0.028 -0.007 -0.050    0.003 -0.001 -0.005
 O          0.061  0.041 -0.012   -0.026 -0.014  0.001   -0.000  0.002 -0.000
 H         -0.190 -0.233  0.017    0.094  0.117 -0.010    0.006  0.009 -0.002
 TransDip  -0.252 -0.421  0.138   -0.100 -0.125 -0.068   -0.011 -0.241  0.008

 Mode:                43                     44                     45
 Frequency:      1444.47                1462.89                1486.89
 Force Cnst:      1.3983                 1.3898                 2.5401
 Red. Mass:       1.1374                 1.1023                 1.9500
 IR Active:          YES                    YES                    YES
 IR Intens:       53.694                 76.686                 38.767
 Raman Active:       YES                    YES                    YES
               X      Y      Z        X      Y      Z        X      Y      Z
 C         -0.008 -0.041 -0.036   -0.003  0.001  0.002   -0.149 -0.074 -0.141
 O         -0.001  0.007  0.005    0.000 -0.000  0.000    0.013  0.011  0.040
 C         -0.002  0.002 -0.028   -0.003  0.020 -0.014    0.095  0.061  0.119
 O          0.003  0.003  0.007   -0.003 -0.003  0.004   -0.031 -0.024 -0.019
 C         -0.017  0.057 -0.040    0.010 -0.007  0.003   -0.014 -0.039 -0.009
 C          0.009  0.027 -0.020    0.012 -0.006  0.001   -0.011 -0.023  0.002
 O         -0.002 -0.003  0.005   -0.002  0.001  0.003    0.001  0.002  0.002
 H          0.119  0.299  0.067    0.018  0.001  0.013    0.522  0.245  0.272
 H          0.047 -0.050 -0.019    0.001 -0.001  0.000    0.286 -0.270 -0.102
 H         -0.161 -0.247  0.565    0.007 -0.015  0.002    0.078  0.103 -0.122
 H          0.439 -0.466  0.083   -0.021 -0.012 -0.016   -0.068  0.198  0.015
 H         -0.018 -0.006  0.062   -0.104 -0.115 -0.115    0.037  0.029 -0.002
 O         -0.003  0.017  0.022   -0.001 -0.001 -0.001    0.010  0.038  0.028
 H         -0.051 -0.174 -0.036    0.001  0.004  0.001   -0.043 -0.202 -0.042
 O          0.002 -0.001  0.001    0.050  0.015 -0.001   -0.010  0.003 -0.009
 O         -0.002  0.000  0.000   -0.018 -0.021 -0.045    0.001 -0.002 -0.000
 H         -0.073 -0.044  0.073    0.008  0.003 -0.006    0.297  0.193 -0.311
 H         -0.006  0.002  0.008   -0.457  0.055  0.860   -0.002  0.003  0.000
 O         -0.003 -0.011  0.002   -0.006  0.006 -0.000    0.005  0.009 -0.001
 H         -0.012 -0.020  0.006    0.033  0.049 -0.007   -0.001  0.003 -0.002
 TransDip   0.026 -0.233  0.010   -0.213  0.030  0.180    0.050 -0.125 -0.147

 Mode:                46                     47                     48
 Frequency:      2962.58                3108.06                3133.10
 Force Cnst:      5.5447                 6.0309                 6.2941
 Red. Mass:       1.0722                 1.0596                 1.0883
 IR Active:          YES                    YES                    YES
 IR Intens:       24.801                  2.774                 23.476
 Raman Active:       YES                    YES                    YES
               X      Y      Z        X      Y      Z        X      Y      Z
 C         -0.000 -0.000  0.000   -0.001  0.000  0.002    0.042  0.008 -0.074
 O         -0.000  0.000  0.000   -0.000 -0.000 -0.000    0.000 -0.000  0.001
 C         -0.000  0.000 -0.001   -0.001 -0.001 -0.000    0.001  0.000 -0.000
 O         -0.000  0.000 -0.000   -0.000 -0.000  0.000    0.000 -0.000  0.001
 C          0.001 -0.001 -0.000   -0.021  0.048 -0.044   -0.003  0.002  0.001
 C         -0.055  0.052 -0.001    0.000  0.001 -0.001   -0.000  0.000 -0.000
 O         -0.005  0.000  0.004   -0.000 -0.000  0.001   -0.000 -0.000  0.000
 H          0.000 -0.000  0.000    0.014  0.002 -0.022   -0.500 -0.084  0.857
 H         -0.000  0.000  0.000   -0.000 -0.001 -0.000   -0.001 -0.005 -0.004
 H         -0.023  0.019  0.004    0.570 -0.428 -0.080    0.035 -0.026 -0.004
 H          0.000 -0.001  0.015   -0.313 -0.127  0.604    0.002  0.001 -0.007
 H          0.761 -0.639 -0.077    0.011 -0.007  0.002    0.001 -0.001  0.000
 O          0.000 -0.000 -0.000    0.000  0.000  0.000   -0.001  0.000  0.002
 H         -0.000 -0.000  0.000   -0.000 -0.000 -0.000    0.005 -0.006 -0.017
 O          0.000  0.000  0.000    0.000 -0.000 -0.000   -0.000  0.000 -0.000
 O          0.000  0.000  0.000    0.000 -0.000 -0.000    0.000 -0.000  0.000
 H          0.000 -0.002  0.005   -0.001 -0.001  0.001   -0.001 -0.001  0.001
 H         -0.007  0.000  0.006    0.000  0.001  0.000    0.000 -0.001  0.001
 O          0.000 -0.000 -0.000   -0.000 -0.000  0.000   -0.000 -0.000 -0.000
 H         -0.014  0.004 -0.000   -0.001 -0.003 -0.001    0.000 -0.000 -0.000
 TransDip   0.085  0.060 -0.121   -0.012  0.043 -0.030    0.112  0.015 -0.106

 Mode:                49                     50                     51
 Frequency:      3163.37                3697.60                3760.36
 Force Cnst:      6.5185                 8.5893                 8.9018
 Red. Mass:       1.1056                 1.0663                 1.0685
 IR Active:          YES                    YES                    YES
 IR Intens:        0.819                339.860                139.356
 Raman Active:       YES                    YES                    YES
               X      Y      Z        X      Y      Z        X      Y      Z
 C          0.002  0.000 -0.003   -0.000 -0.000  0.000   -0.000 -0.000 -0.000
 O          0.000  0.000  0.000   -0.000 -0.000 -0.000   -0.000 -0.000 -0.000
 C          0.001 -0.000 -0.001    0.000 -0.000 -0.002   -0.001  0.001 -0.000
 O         -0.000 -0.000  0.000   -0.027 -0.027 -0.049   -0.000 -0.001 -0.001
 C          0.071 -0.023 -0.058    0.000  0.000  0.001    0.000 -0.000  0.000
 C          0.003 -0.002 -0.000   -0.000 -0.001  0.000   -0.000  0.000 -0.000
 O         -0.000  0.000  0.000    0.000  0.000 -0.000   -0.000  0.000  0.000
 H         -0.018 -0.003  0.031    0.001  0.000  0.002   -0.000  0.000  0.000
 H          0.000  0.001 -0.000    0.001  0.000  0.002    0.001  0.000  0.002
 H         -0.546  0.416  0.062   -0.001  0.001 -0.001    0.000 -0.000 -0.000
 H         -0.313 -0.143  0.629   -0.002 -0.003 -0.000    0.000  0.000 -0.001
 H         -0.023  0.016 -0.002   -0.001  0.003  0.000    0.002 -0.003 -0.003
 O         -0.000  0.000  0.000    0.000  0.000 -0.000   -0.000 -0.000  0.000
 H          0.000 -0.000 -0.001   -0.003 -0.002  0.004    0.003  0.001 -0.006
 O         -0.000  0.001 -0.000   -0.000 -0.000  0.000    0.001 -0.000 -0.000
 O          0.000 -0.000  0.000    0.001  0.001  0.001   -0.051 -0.032 -0.020
 H         -0.001 -0.002 -0.000    0.427  0.432  0.792    0.009  0.009  0.017
 H         -0.001  0.002  0.001   -0.017 -0.011 -0.007    0.790  0.506  0.340
 O         -0.000  0.000  0.000    0.001 -0.000 -0.000    0.000 -0.000 -0.000
 H          0.001  0.003 -0.000   -0.007  0.007 -0.001   -0.001  0.001 -0.000
 TransDip   0.026 -0.009 -0.010    0.234  0.321  0.437    0.342  0.156  0.042

 Mode:                52                     53                     54
 Frequency:      3781.02                3797.78                3821.88
 Force Cnst:      8.9764                 9.0612                 9.1820
 Red. Mass:       1.0657                 1.0663                 1.0669
 IR Active:          YES                    YES                    YES
 IR Intens:      126.450                130.256                145.824
 Raman Active:       YES                    YES                    YES
               X      Y      Z        X      Y      Z        X      Y      Z
 C          0.001  0.000 -0.002    0.000 -0.000  0.000    0.000 -0.000 -0.001
 O         -0.001 -0.000 -0.001    0.000  0.000  0.000   -0.032 -0.003 -0.054
 C          0.000 -0.000  0.000   -0.000  0.000 -0.000    0.000 -0.000  0.000
 O          0.000  0.000  0.000   -0.000 -0.000 -0.000    0.000  0.000  0.000
 C          0.000  0.000 -0.000    0.000 -0.001  0.000    0.000 -0.000  0.000
 C         -0.000 -0.000 -0.000   -0.002  0.001 -0.000    0.000 -0.000  0.000
 O          0.000 -0.000  0.000   -0.000 -0.000  0.000    0.000 -0.000 -0.000
 H         -0.008 -0.003  0.014    0.000  0.000 -0.000    0.002 -0.002  0.004
 H          0.013  0.002  0.022   -0.001 -0.000 -0.001    0.493  0.055  0.866
 H          0.000 -0.000  0.000   -0.001  0.002  0.001    0.000 -0.000  0.000
 H         -0.000  0.000  0.000    0.000  0.000  0.001   -0.000  0.000 -0.000
 H          0.000  0.000  0.000    0.008 -0.008 -0.001    0.000 -0.000 -0.000
 O          0.027  0.011 -0.055   -0.000 -0.000  0.000   -0.001 -0.001  0.001
 H         -0.425 -0.161  0.888    0.002  0.001 -0.004    0.010  0.004 -0.022
 O          0.000  0.000 -0.000    0.000 -0.000 -0.000    0.000 -0.000  0.000
 O         -0.000 -0.000 -0.000   -0.000 -0.000 -0.000    0.000  0.000  0.000
 H         -0.002 -0.002 -0.004    0.004  0.004  0.008   -0.001 -0.001 -0.002
 H          0.006  0.004  0.002    0.001  0.001  0.001   -0.002 -0.001 -0.001
 O         -0.000  0.000 -0.000   -0.046  0.042 -0.006   -0.000  0.000 -0.000
 H          0.003 -0.003  0.000    0.738 -0.665  0.091    0.001 -0.001  0.000
 TransDip  -0.140 -0.126  0.307    0.204 -0.298  0.055    0.239 -0.046  0.301

 STANDARD THERMODYNAMIC QUANTITIES AT   298.15 K  AND     1.00 ATM

   This Molecule has  0 Imaginary Frequencies
   Zero point vibrational energy:       94.887 kcal/mol

   Atom    1 Element C  Has Mass   12.00000
   Atom    2 Element O  Has Mass   15.99491
   Atom    3 Element C  Has Mass   12.00000
   Atom    4 Element O  Has Mass   15.99491
   Atom    5 Element C  Has Mass   12.00000
   Atom    6 Element C  Has Mass   12.00000
   Atom    7 Element O  Has Mass   15.99491
   Atom    8 Element H  Has Mass    1.00783
   Atom    9 Element H  Has Mass    1.00783
   Atom   10 Element H  Has Mass    1.00783
   Atom   11 Element H  Has Mass    1.00783
   Atom   12 Element H  Has Mass    1.00783
   Atom   13 Element O  Has Mass   15.99491
   Atom   14 Element H  Has Mass    1.00783
   Atom   15 Element O  Has Mass   15.99491
   Atom   16 Element O  Has Mass   15.99491
   Atom   17 Element H  Has Mass    1.00783
   Atom   18 Element H  Has Mass    1.00783
   Atom   19 Element O  Has Mass   15.99491
   Atom   20 Element H  Has Mass    1.00783
   Molecular Mass:   169.034840 amu
   Principal axes and moments of inertia in amu*Bohr^2:
                             1           2           3
    Eigenvalues --     1067.63497  2436.88259  2684.69661
          X               0.56808     0.82087    -0.05879
          Y               0.66715    -0.50118    -0.55111
          Z               0.48186    -0.27386     0.83236
   Rotational Symmetry Number is   1
   The Molecule is an Asymmetric Top
   Translational Enthalpy:        0.889 kcal/mol
   Rotational Enthalpy:           0.889 kcal/mol
   Vibrational Enthalpy:        101.048 kcal/mol
   gas constant (RT):             0.592 kcal/mol
   Translational Entropy:        41.283  cal/mol.K
   Rotational Entropy:           30.325  cal/mol.K
   Vibrational Entropy:          38.131  cal/mol.K

   Total Enthalpy:              103.418 kcal/mol
   Total Entropy:               109.739  cal/mol.K
 Total job time:  32182.73s(wall), 455886.23s(cpu) 
 Wed Jun 26 06:13:40 2024

        *************************************************************
        *                                                           *
        *  Thank you very much for using Q-Chem.  Have a nice day.  *
        *                                                           *
        *************************************************************


