
Running Job 1 of 1 Q_in.in
qchem Q_in.in_393453.0 /scratch/ari.fischer/qChem2185695.hpc-mn1/qchem393453/ 0
/usr/local/qchem-5.4.1/exe/qcprog.exe_s Q_in.in_393453.0 /scratch/ari.fischer/qChem2185695.hpc-mn1/qchem393453/
                  Welcome to Q-Chem
     A Quantum Leap Into The Future Of Chemistry


 Q-Chem 5.4, Q-Chem, Inc., Pleasanton, CA (2021)

 License issued to: Nanyang Technological University (site)

 E. Epifanovsky,  A. T. B. Gilbert,  Xintian Feng,  Joonho Lee,  Yuezhi Mao,  
 N. Mardirossian,  P. Pokhilko,  A. White,  M. Wormit,  M. P. Coons,  
 A. L. Dempwolff,  Zhengting Gan,  D. Hait,  P. R. Horn,  L. D. Jacobson,  
 I. Kaliman,  J. Kussmann,  A. W. Lange,  Ka Un Lao,  D. S. Levine,  Jie Liu,  
 S. C. McKenzie,  A. F. Morrison,  K. Nanda,  F. Plasser,  D. R. Rehn,  
 M. L. Vidal,  Zhi-Qiang You,  Ying Zhu,  B. Alam,  B. Albrecht,  
 A. Aldossary,  E. Alguire,  J. H. Andersen,  D. Barton,  K. Begam,  A. Behn,  
 Y. A. Bernard,  E. J. Berquist,  H. Burton,  A. Carreras,  K. Carter-Fenk,  
 R. Chakraborty,  A. D. Chien,  K. D. Closser,  V. Cofer-Shabica,  
 S. Dasgupta,  Jia Deng,  M. de Wergifosse,  M. Diedenhofen,  Hainam Do,  
 S. Ehlert,  Po-Tung Fang,  S. Fatehi,  Qingguo Feng,  T. Friedhoff,  
 J. Gayvert,  Qinghui Ge,  G. Gidofalvi,  M. Goldey,  J. Gomes,  
 C. Gonzalez-Espinoza,  S. Gulania,  A. Gunina,  M. W. D. Hanson-Heine,  
 P. H. P. Harbach,  A. W. Hauser,  M. F. Herbst,  M. Hernandez Vera,  
 M. Hodecker,  Z. C. Holden,  S. Houck,  Xunkun Huang,  Kerwin Hui,  
 B. C. Huynh,  M. Ivanov,  Hyunjun Ji,  Hanjie Jiang,  B. Kaduk,  S. Kaehler,  
 K. Khistyaev,  Jaehoon Kim,  P. Klunzinger,  Z. Koczor-Benda,  
 Joong Hoon Koh,  D. Kosenkov,  L. Koulias,  T. Kowalczyk,  C. M. Krauter,  
 K. Kue,  A. Kunitsa,  T. Kus,  A. Landau,  K. V. Lawler,  D. Lefrancois,  
 S. Lehtola,  Rain Li,  Yi-Pei Li,  Jiashu Liang,  M. Liebenthal,  
 Hung-Hsuan Lin,  You-Sheng Lin,  Fenglai Liu,  Kuan-Yu Liu,  
 M. Loipersberger,  A. Luenser,  A. Manjanath,  P. Manohar,  E. Mansoor,  
 S. F. Manzer,  Shan-Ping Mao,  A. V. Marenich,  T. Markovich,  S. Mason,  
 S. A. Maurer,  P. F. McLaughlin,  M. F. S. J. Menger,  J.-M. Mewes,  
 S. A. Mewes,  P. Morgante,  J. W. Mullinax,  K. J. Oosterbaan,  G. Paran,  
 Alexander C. Paul,  Suranjan K. Paul,  F. Pavosevic,  Zheng Pei,  S. Prager,  
 E. I. Proynov,  E. Ramos,  B. Rana,  A. E. Rask,  A. Rettig,  R. M. Richard,  
 F. Rob,  E. Rossomme,  T. Scheele,  M. Scheurer,  M. Schneider,  
 N. Sergueev,  S. M. Sharada,  W. Skomorowski,  D. W. Small,  C. J. Stein,  
 Yu-Chuan Su,  E. J. Sundstrom,  Zhen Tao,  J. Thirman,  T. Tsuchimochi,  
 N. M. Tubman,  S. P. Veccham,  O. Vydrov,  J. Wenzel,  J. Witte,  A. Yamada,  
 Kun Yao,  S. Yeganeh,  S. R. Yost,  A. Zech,  Igor Ying Zhang,  Xing Zhang,  
 Yu Zhang,  D. Zuev,  A. Aspuru-Guzik,  A. T. Bell,  N. A. Besley,  
 K. B. Bravaya,  B. R. Brooks,  D. Casanova,  Jeng-Da Chai,  S. Coriani,  
 C. J. Cramer,  A. E. DePrince, III,  R. A. DiStasio Jr.,  A. Dreuw,  
 B. D. Dunietz,  T. R. Furlani,  W. A. Goddard III,  S. Grimme,  
 S. Hammes-Schiffer,  T. Head-Gordon,  W. J. Hehre,  Chao-Ping Hsu,  
 T.-C. Jagau,  Yousung Jung,  A. Klamt,  Jing Kong,  D. S. Lambrecht,  
 WanZhen Liang,  N. J. Mayhall,  C. W. McCurdy,  J. B. Neaton,  
 C. Ochsenfeld,  J. A. Parkhill,  R. Peverati,  V. A. Rassolov,  Yihan Shao,  
 L. V. Slipchenko,  T. Stauch,  R. P. Steele,  J. E. Subotnik,  
 A. J. W. Thom,  A. Tkatchenko,  D. G. Truhlar,  T. Van Voorhis,  
 T. A. Wesolowski,  K. B. Whaley,  H. L. Woodcock III,  P. M. Zimmerman,  
 S. Faraji,  P. M. W. Gill,  M. Head-Gordon,  J. M. Herbert,  A. I. Krylov

 Additional authors for Version 5.4.1: 
 S. Kotaru,  Shaozhi Li,  Xiangyuan Li,  F. Matz,  A. Molle,  Haisheng Ren,  
 Yingli Su,  Hung-Yi Tsai,  C. Utku,  Fang Wang

 Contributors to earlier versions of Q-Chem not listed above: 
 R. D. Adamson,  B. Austin,  R. Baer,  J. Baker,  G. J. O. Beran,  
 K. Brandhorst,  S. T. Brown,  E. F. C. Byrd,  A. K. Chakraborty,  
 G. K. L. Chan,  Chun-Min Chang,  Yunqing Chen,  C.-L. Cheng,  
 Siu Hung Chien,  D. M. Chipman,  D. L. Crittenden,  H. Dachsel,  
 R. J. Doerksen,  A. D. Dutoi,  R. G. Edgar,  J. Fosso-Tande,  
 L. Fusti-Molnar,  D. Ghosh,  A. Ghysels,  A. Golubeva-Zadorozhnaya,  
 J. Gonthier,  M. S. Gordon,  S. R. Gwaltney,  G. Hawkins,  J. E. Herr,  
 A. Heyden,  S. Hirata,  E. G. Hohenstein,  G. Kedziora,  F. J. Keil,  
 C. Kelley,  Jihan Kim,  R. A. King,  R. Z. Khaliullin,  P. P. Korambath,  
 W. Kurlancheek,  A. Laurent,  A. M. Lee,  M. S. Lee,  S. V. Levchenko,  
 Ching Yeh Lin,  D. Liotard,  E. Livshits,  R. C. Lochan,  I. Lotan,  
 L. A. Martinez-Martinez,  P. E. Maslen,  N. Nair,  D. P. O'Neill,  
 D. Neuhauser,  E. Neuscamman,  C. M. Oana,  R. Olivares-Amaya,  R. Olson,  
 T. M. Perrine,  B. Peters,  P. A. Pieniazek,  A. Prociuk,  Y. M. Rhee,  
 J. Ritchie,  M. A. Rohrdanz,  E. Rosta,  N. J. Russ,  H. F. Schaefer III,  
 M. W. Schmidt,  N. E. Schultz,  S. Sharma,  N. Shenvi,  C. D. Sherrill,  
 A. C. Simmonett,  A. Sodt,  T. Stein,  D. Stuck,  K. S. Thanthiriwatte,  
 V. Vanovschi,  L. Vogt,  Tao Wang,  A. Warshel,  M. A. Watson,  
 C. F. Williams,  Q. Wu,  X. Xu,  Jun Yang,  W. Zhang,  Yan Zhao

 Please cite Q-Chem as follows:
 Y. Shao et al., Mol. Phys. 113, 184-215 (2015)
 DOI: 10.1080/00268976.2014.952696

 Q-Chem 5.4.1 for Intel X86 EM64T Linux

 Parts of Q-Chem use Armadillo 9.800.1 (Horizon Scraper).
 http://arma.sourceforge.net/

 Q-Chem begins on Mon Jun 24 14:02:10 2024  

 Host: 
0

     Scratch files written to /scratch/ari.fischer/qChem2185695.hpc-mn1/qchem393453//
 Aug1521 |scratch|qcdevops|jenkins|workspace|build_RNUM 8249   
 Processing $rem in /usr/local/qchem-5.4.1/config/preferences:
 Processing $rem in /home/ari.fischer/.qchemrc:
 Symmetry turned off for PCM/SM12/SMD calculation

 Checking the input file for inconsistencies... 	...done.

--------------------------------------------------------------
User input:
--------------------------------------------------------------
$molecule
0 2
C         2.6308920114   -1.0206024924   -1.0856800626
O         1.5734276428   -0.0907830768   -1.0590214346
C         3.5486832893   -0.6665804010    0.0952080851
O         2.8467830273   -0.9954604016    1.2555835665
C         4.0205067642    0.7810642236    0.0534071858
C         5.0345056775    1.1335730650    1.1740587940
O         4.4282985837    0.9457500820    2.3793946375
H         3.1859502037   -0.9677724760   -2.0253766442
H         1.0592878905   -0.2260873660   -1.8721687895
H         3.1563318636    1.4438486131    0.1466673676
H         4.5153836642    0.9888006215   -0.8981900056
H         5.8782960919    0.4214690032    1.1319368923
O         2.1748445535   -2.3456306162   -0.9728124195
H         1.8037672830   -2.4292295480   -0.0754054414
O         4.6663339048   -1.5826798989    0.1127837089
O         5.4321021246   -1.3960378556   -1.0885928094
H         3.3142158808   -0.5725319005    2.0040307336
H         6.2107683492   -0.9136184689   -0.7517239078
O         5.5800676907    2.4153373535    0.9945388656
H         4.8389510030    3.0458397402    0.9686363775
$end

$rem
BASIS = 6-311++G(2df,2p)
GUI = 2
JOB_TYPE = Optimization
METHOD = wB97M-V
SCF_ALGORITHM = DIIS_GDM
MAX_SCF_CYCLES = 400
GEOM_OPT_MAX_CYCLES = 150
SCF_CONVERGENCE = 7
THRESH = 12
Solvent_method = SMD
$end
--------------------------------------------------------------
 ----------------------------------------------------------------
             Standard Nuclear Orientation (Angstroms)
    I     Atom           X                Y                Z
 ----------------------------------------------------------------
    1      C       2.6308920114    -1.0206024924    -1.0856800626
    2      O       1.5734276428    -0.0907830768    -1.0590214346
    3      C       3.5486832893    -0.6665804010     0.0952080851
    4      O       2.8467830273    -0.9954604016     1.2555835665
    5      C       4.0205067642     0.7810642236     0.0534071858
    6      C       5.0345056775     1.1335730650     1.1740587940
    7      O       4.4282985837     0.9457500820     2.3793946375
    8      H       3.1859502037    -0.9677724760    -2.0253766442
    9      H       1.0592878905    -0.2260873660    -1.8721687895
   10      H       3.1563318636     1.4438486131     0.1466673676
   11      H       4.5153836642     0.9888006215    -0.8981900056
   12      H       5.8782960919     0.4214690032     1.1319368923
   13      O       2.1748445535    -2.3456306162    -0.9728124195
   14      H       1.8037672830    -2.4292295480    -0.0754054414
   15      O       4.6663339048    -1.5826798989     0.1127837089
   16      O       5.4321021246    -1.3960378556    -1.0885928094
   17      H       3.3142158808    -0.5725319005     2.0040307336
   18      H       6.2107683492    -0.9136184689    -0.7517239078
   19      O       5.5800676907     2.4153373535     0.9945388656
   20      H       4.8389510030     3.0458397402     0.9686363775
 ----------------------------------------------------------------
 Nuclear Repulsion Energy =         729.24033304 hartrees
 There are       45 alpha and       44 beta electrons
 Requested basis set is 6-311++G(2df,2p)
 There are 142 shells and 464 basis functions

 Total QAlloc Memory Limit 288000 MB
 Mega-Array Size       188 MB
 MEM_STATIC part       192 MB
 
 Citation of the SMD model:
 Marenich, A.V.; Cramer, C.J.; Truhlar, D.G.
 J. Phys. Chem. B 2009, 113, 6378-6396.
 iSolventCode=           1
 Solvent: water                                                           
 
 vradii
            1           2           3           4           5           6
    1   1.8500000   1.5200000   1.8500000   1.5200000   1.8500000   1.8500000
            7           8           9          10          11          12
    1   1.5200000   1.2000000   1.2000000   1.2000000   1.2000000   1.2000000
           13          14          15          16          17          18
    1   1.5200000   1.2000000   1.5200000   1.5200000   1.2000000   1.2000000
           19          20
    1   1.5200000   1.2000000
 Changing PCM_VDW_RADII to SMD_RADIUS
 Discretize the solute cavity surface with Lebedev spheres
	Using 110 Lebedev grid points for each H atom
	Using 194 Lebedev grid points for other atoms
	Atomic van der Waals radii will be scaled by 1.20
 Remove points where switching function is < 1.0e-08
 Keep 1548 surface tesserae and discard 1576 interior tesserae
 Molecular Surface Area = 169.369 Angst**2
 A cutoff of  1.0D-12 yielded   8892 shell pairs
 There are     93753 function pairs (    116314 Cartesian)
 Smallest overlap matrix eigenvalue = 4.70E-06

 Scale SEOQF with 1.000000e-02/1.000000e-01/1.000000e-01

 Standard Electronic Orientation quadrupole field applied
 Nucleus-field energy     =     0.0000000051 hartrees
 Guess from superposition of atomic densities
 Warning:  Energy on first SCF cycle will be non-variational
 SAD guess density has 89.000000 electrons

 -----------------------------------------------------------------------
  General SCF calculation program by
  Eric Jon Sundstrom, Paul Horn, Yuezhi Mao, Dmitri Zuev, Alec White,
  David Stuck, Shaama M.S., Shane Yost, Joonho Lee, David Small,
  Daniel Levine, Susi Lehtola, Hugh Burton, Evgeny Epifanovsky,
  Bang C. Huynh
 -----------------------------------------------------------------------
 Exchange:     0.1500 Hartree-Fock + 1.0000 wB97M-V + LR-HF
 Correlation:  1.0000 wB97M-V
 Using SG-2 standard quadrature grid
 Nonlocal Correlation:  VV10 with C = 0.0100 and b = 6.00 and scale = 1.00000
 Grid used for NLC:  SG-1 standard quadrature
 
 Citation of the SMD model:
 Marenich, A.V.; Cramer, C.J.; Truhlar, D.G.
 J. Phys. Chem. B 2009, 113, 6378-6396.
 iSolventCode=           1
 Solvent: water                                                           
 
 vradii
            1           2           3           4           5           6
    1   1.8500000   1.5200000   1.8500000   1.5200000   1.8500000   1.8500000
            7           8           9          10          11          12
    1   1.5200000   1.2000000   1.2000000   1.2000000   1.2000000   1.2000000
           13          14          15          16          17          18
    1   1.5200000   1.2000000   1.5200000   1.5200000   1.2000000   1.2000000
           19          20
    1   1.5200000   1.2000000
 using 16 threads for integral computing
 -------------------------------------------------------
 OpenMP Integral computing Module                
 Release: version 1.0, May 2013, Q-Chem Inc. Pittsburgh 
 -------------------------------------------------------
 -------------------------------------------------------
 OpenMP BLAS3 based DFT computing Module                
 Release: version 1.0, May 2013, Q-Chem Inc. Pittsburgh 
 -------------------------------------------------------
 A unrestricted SCF calculation will be
 performed using DIIS, GDM
 SCF converges when RMS gradient is below 1.0e-07
 ---------------------------------------
  Cycle       Energy         DIIS error
 ---------------------------------------
    1    -686.3442482379      1.13e-02  
    2    -683.9880016227      1.79e-03  Done DIIS. Switching to GDM
 ---------------------------------------
  Cycle       Energy        RMS Gradient
 ---------------------------------------
    1    -683.9880016227      5.54e-01   Descent step
    2    -684.2397290584      9.43e-02   Descent step
    3    -684.2947717407      1.02e-01   Normal BFGS step
    4    -684.3173788967      1.77e-02   Normal BFGS step
    5    -684.3234712617      1.08e-02   Normal BFGS step
    6    -684.3244564830      9.58e-03   Normal BFGS step
    7    -684.3247275835      4.71e-03   Normal BFGS step
    8    -684.3248208991      2.59e-03   Normal BFGS step
    9    -684.3248867221      3.21e-03   Normal BFGS step
   10    -684.3249275442      3.37e-03   Normal BFGS step
   11    -684.3249820356      2.83e-03   Normal BFGS step
   12    -684.3250174057      1.57e-03   Normal BFGS step
   13    -684.3250329170      5.94e-04   Normal BFGS step
   14    -684.3250369914      3.85e-04   Normal BFGS step
   15    -684.3250380035      2.95e-04   Normal BFGS step
   16    -684.3250383461      1.51e-04   Normal BFGS step
   17    -684.3250384336      4.90e-05   Normal BFGS step
   18    -684.3250384508      2.19e-05   Normal BFGS step
   19    -684.3250384551      6.72e-06   Normal BFGS step
   20    -684.3250384556      2.29e-06   Normal BFGS step
   21    -684.3250384557      1.09e-06   Normal BFGS step
   22    -684.3250384557      4.33e-07   Normal BFGS step
   23    -684.3250384557      1.22e-07   Normal BFGS step
   24    -684.3250384557      5.31e-08  Convergence criterion met
 ---------------------------------------
 SCF time:   CPU 3472.99s  wall 237.00s 
<S^2> =          0.754312059
(3)  G-ENP(liq) elect-nuc-pol free energy of system     -684.325038456 a.u.
(4)  G-CDS(liq) cavity-dispersion-solvent structure 
     free energy                                                3.5965 kcal/mol
(6)  G-S(liq) free energy of system                     -684.319307052 a.u.
 SCF   energy in the final basis set =     -684.3193070516
 Total energy in the final basis set =     -684.3193070516
 
 --------------------------------------------------------------
 
                    Orbital Energies (a.u.)
 --------------------------------------------------------------
 
 Alpha MOs
 -- Occupied --
-19.4062 -19.4043 -19.4000 -19.3584 -19.3515 -19.3498 -19.3486 -10.4682
-10.4632 -10.4497 -10.3630  -1.2763  -1.2193  -1.2110  -1.1805  -1.1424
 -1.1372  -1.0398  -0.9080  -0.8365  -0.7613  -0.7355  -0.6906  -0.6592
 -0.6530  -0.6293  -0.6177  -0.6032  -0.5902  -0.5737  -0.5655  -0.5631
 -0.5367  -0.5161  -0.4968  -0.4828  -0.4677  -0.4531  -0.4490  -0.4335
 -0.4318  -0.4209  -0.4156  -0.3999  -0.3876
 -- Virtual --
  0.0270   0.0371   0.0402   0.0428   0.0615   0.0663   0.0696   0.0743
  0.0905   0.0960   0.1114   0.1208   0.1241   0.1273   0.1368   0.1484
  0.1504   0.1546   0.1585   0.1693   0.1719   0.1821   0.1841   0.1928
  0.1999   0.2065   0.2145   0.2327   0.2391   0.2428   0.2494   0.2566
  0.2648   0.2728   0.2812   0.2828   0.2853   0.2889   0.3001   0.3036
  0.3086   0.3158   0.3256   0.3317   0.3348   0.3432   0.3462   0.3545
  0.3591   0.3596   0.3659   0.3747   0.3780   0.3862   0.3890   0.3928
  0.3988   0.4038   0.4082   0.4130   0.4186   0.4286   0.4335   0.4453
  0.4453   0.4601   0.4709   0.4727   0.4817   0.4901   0.5042   0.5192
  0.5587   0.5723   0.5803   0.5950   0.6173   0.6208   0.6338   0.6468
  0.6524   0.6773   0.6813   0.6877   0.6988   0.7056   0.7187   0.7227
  0.7450   0.7478   0.7591   0.7687   0.7813   0.8090   0.8195   0.8279
  0.8477   0.8740   0.8972   0.8991   0.9202   0.9316   0.9502   0.9677
  0.9821   1.0102   1.0347   1.0450   1.0626   1.0694   1.0818   1.0836
  1.1086   1.1163   1.1254   1.1340   1.1560   1.1576   1.1668   1.1775
  1.1795   1.1849   1.1999   1.2063   1.2152   1.2228   1.2374   1.2434
  1.2500   1.2550   1.2670   1.2790   1.2851   1.3060   1.3115   1.3181
  1.3342   1.3373   1.3579   1.3655   1.3831   1.3940   1.4021   1.4295
  1.4348   1.4589   1.4700   1.4857   1.4901   1.4982   1.5168   1.5195
  1.5362   1.5443   1.5546   1.5820   1.5965   1.6013   1.6183   1.6253
  1.6469   1.6814   1.6845   1.6915   1.7131   1.7251   1.7412   1.7642
  1.7796   1.8134   1.8222   1.8417   1.8700   1.9045   1.9153   1.9361
  1.9417   1.9626   1.9825   2.0011   2.0135   2.0535   2.0842   2.1003
  2.1105   2.1455   2.1972   2.2215   2.2460   2.2643   2.2950   2.3206
  2.3505   2.3562   2.3860   2.3898   2.4046   2.4357   2.4583   2.4667
  2.4859   2.4996   2.5095   2.5440   2.5684   2.6142   2.6506   2.6940
  2.7193   2.7961   2.8019   2.8384   2.8471   2.8698   2.8898   2.8918
  2.9491   2.9711   2.9929   3.0437   3.0625   3.0950   3.1297   3.1427
  3.1948   3.2100   3.2595   3.2888   3.2901   3.3156   3.3405   3.3627
  3.3987   3.4133   3.4245   3.4518   3.4641   3.4973   3.5256   3.5643
  3.5766   3.5976   3.6077   3.6338   3.6555   3.6696   3.6867   3.6956
  3.7206   3.7422   3.7580   3.7883   3.8037   3.8100   3.8131   3.8401
  3.8438   3.8578   3.8676   3.8806   3.8887   3.9073   3.9297   3.9364
  3.9511   3.9623   3.9920   4.0326   4.0617   4.0688   4.1095   4.1208
  4.1412   4.1612   4.1767   4.2100   4.2188   4.2338   4.2439   4.2712
  4.2908   4.3260   4.3430   4.3535   4.3709   4.3918   4.4088   4.4236
  4.4297   4.4686   4.5260   4.5490   4.5640   4.6159   4.6344   4.6726
  4.7063   4.7465   4.7888   4.8658   4.8926   5.0235   5.0521   5.0782
  5.1272   5.1441   5.1727   5.2128   5.2195   5.2290   5.2324   5.2535
  5.2682   5.2760   5.2889   5.2925   5.2977   5.3117   5.3239   5.3325
  5.3567   5.3637   5.3747   5.3820   5.3921   5.4048   5.4235   5.4314
  5.4476   5.4857   5.4930   5.5044   5.5296   5.5342   5.5565   5.5804
  5.5842   5.5975   5.6060   5.6165   5.6359   5.6411   5.6614   5.6665
  5.7074   5.7606   5.7702   5.7912   5.8004   5.8271   5.9024   5.9400
  5.9618   6.0087   6.0299   6.0607   6.0670   6.1293   6.1609   6.2229
  6.2594   6.4948   6.5391   6.5815   6.7473   6.7992   6.8191   6.8375
  6.8938   7.0073   7.0170   7.0591   7.0816   7.0883   7.1027   7.1326
  7.1721   7.2234   7.2335   7.2456   7.2641   7.2776   7.2884   7.3044
  7.3286   7.3392   7.3615   7.3981   7.4193   7.4259   7.4552   7.4982
  7.5088   7.5419   7.5868   7.6039   7.6283   7.6555   7.6961   7.7398
  7.7705   7.8312   7.8600   7.8611   7.8863   7.9128   8.0131   8.2122
 24.6265  24.7706  24.8193  24.8551  50.4966  50.5436  50.5907  50.6073
 50.6246  50.6574  50.7072
 
 Beta MOs
 -- Occupied --
-19.4062 -19.4000 -19.3824 -19.3583 -19.3516 -19.3498 -19.3486 -10.4683
-10.4634 -10.4497 -10.3611  -1.2762  -1.2124  -1.1992  -1.1804  -1.1373
 -1.1116  -1.0398  -0.9031  -0.8318  -0.7523  -0.7335  -0.6903  -0.6526
 -0.6512  -0.6202  -0.6115  -0.5940  -0.5827  -0.5719  -0.5620  -0.5449
 -0.5359  -0.5044  -0.4825  -0.4739  -0.4656  -0.4495  -0.4334  -0.4268
 -0.4179  -0.4118  -0.4011  -0.3902
 -- Virtual --
 -0.0775   0.0274   0.0370   0.0405   0.0430   0.0616   0.0666   0.0702
  0.0744   0.0906   0.0961   0.1121   0.1211   0.1244   0.1273   0.1377
  0.1486   0.1513   0.1548   0.1589   0.1696   0.1723   0.1825   0.1844
  0.1931   0.2004   0.2071   0.2150   0.2340   0.2398   0.2440   0.2502
  0.2575   0.2658   0.2732   0.2819   0.2836   0.2863   0.2900   0.3017
  0.3047   0.3090   0.3181   0.3259   0.3324   0.3368   0.3437   0.3479
  0.3552   0.3595   0.3617   0.3671   0.3755   0.3800   0.3876   0.3899
  0.3948   0.3993   0.4054   0.4098   0.4151   0.4202   0.4300   0.4337
  0.4455   0.4462   0.4606   0.4718   0.4737   0.4818   0.4910   0.5064
  0.5207   0.5617   0.5740   0.5808   0.5966   0.6183   0.6211   0.6357
  0.6489   0.6528   0.6780   0.6819   0.6889   0.7003   0.7072   0.7202
  0.7248   0.7458   0.7497   0.7606   0.7697   0.7822   0.8097   0.8202
  0.8283   0.8478   0.8746   0.8977   0.9005   0.9215   0.9328   0.9505
  0.9683   0.9838   1.0107   1.0352   1.0475   1.0635   1.0698   1.0824
  1.0865   1.1091   1.1174   1.1278   1.1403   1.1581   1.1594   1.1724
  1.1791   1.1836   1.1878   1.2017   1.2095   1.2159   1.2241   1.2391
  1.2468   1.2515   1.2649   1.2681   1.2813   1.2882   1.3077   1.3149
  1.3225   1.3362   1.3409   1.3590   1.3677   1.3854   1.3966   1.4036
  1.4335   1.4374   1.4614   1.4716   1.4882   1.4925   1.5005   1.5180
  1.5222   1.5398   1.5466   1.5558   1.5832   1.5984   1.6056   1.6208
  1.6286   1.6488   1.6832   1.6869   1.6927   1.7177   1.7301   1.7440
  1.7693   1.7905   1.8160   1.8319   1.8491   1.8752   1.9100   1.9203
  1.9394   1.9436   1.9654   1.9869   2.0031   2.0160   2.0546   2.0868
  2.1069   2.1149   2.1519   2.2002   2.2232   2.2483   2.2672   2.2978
  2.3240   2.3538   2.3589   2.3873   2.3943   2.4050   2.4412   2.4614
  2.4703   2.4873   2.5015   2.5125   2.5486   2.5689   2.6155   2.6534
  2.6946   2.7241   2.7983   2.8041   2.8393   2.8509   2.8709   2.8919
  2.8971   2.9524   2.9741   2.9966   3.0462   3.0646   3.0995   3.1322
  3.1442   3.1963   3.2109   3.2624   3.2913   3.2931   3.3198   3.3417
  3.3640   3.4005   3.4185   3.4267   3.4530   3.4669   3.5004   3.5276
  3.5658   3.5774   3.5979   3.6104   3.6346   3.6562   3.6701   3.6881
  3.6970   3.7224   3.7435   3.7593   3.7904   3.8056   3.8109   3.8152
  3.8427   3.8454   3.8581   3.8686   3.8812   3.8918   3.9091   3.9306
  3.9383   3.9546   3.9636   3.9941   4.0340   4.0627   4.0718   4.1116
  4.1271   4.1422   4.1644   4.1795   4.2125   4.2228   4.2352   4.2452
  4.2735   4.2913   4.3308   4.3455   4.3571   4.3753   4.3939   4.4149
  4.4266   4.4352   4.4698   4.5330   4.5552   4.5667   4.6190   4.6360
  4.6778   4.7081   4.7496   4.7919   4.8665   4.8958   5.0256   5.0531
  5.1102   5.1684   5.2005   5.2147   5.2219   5.2246   5.2379   5.2499
  5.2648   5.2797   5.2847   5.2968   5.2994   5.3087   5.3214   5.3337
  5.3446   5.3591   5.3699   5.3854   5.3887   5.4044   5.4090   5.4285
  5.4459   5.4640   5.4931   5.4966   5.5106   5.5357   5.5443   5.5607
  5.5829   5.5877   5.5991   5.6083   5.6184   5.6392   5.6454   5.6634
  5.6685   5.7082   5.7644   5.7723   5.7934   5.8038   5.8298   5.9053
  5.9559   5.9747   6.0090   6.0308   6.0654   6.0827   6.1311   6.1614
  6.2232   6.2691   6.4954   6.5463   6.5826   6.7474   6.8055   6.8308
  6.8393   6.9810   7.0176   7.0549   7.0778   7.0885   7.0931   7.1079
  7.1369   7.1790   7.2255   7.2394   7.2463   7.2667   7.2855   7.2969
  7.3137   7.3316   7.3515   7.3919   7.4115   7.4207   7.4432   7.4615
  7.5008   7.5118   7.5562   7.5874   7.6056   7.6438   7.6562   7.6969
  7.7586   7.7726   7.8321   7.8611   7.8690   7.8897   7.9130   8.0133
  8.2123  24.6277  24.7710  24.8192  24.8552  50.4967  50.5538  50.5931
 50.6086  50.6246  50.6587  50.7073
 --------------------------------------------------------------
 
          Ground-State Mulliken Net Atomic Charges

     Atom                 Charge (a.u.)    Spin (a.u.)
  --------------------------------------------------------
      1 C                    -0.152855      -0.001652
      2 O                    -0.426073      -0.000060
      3 C                     0.185942      -0.004867
      4 O                    -0.391952       0.005383
      5 C                    -0.489742       0.076572
      6 C                    -0.111107       0.009075
      7 O                    -0.168760       0.844829
      8 H                     0.299196       0.000717
      9 H                     0.342000      -0.000150
     10 H                     0.297727      -0.004192
     11 H                     0.294983       0.003264
     12 H                     0.311608       0.073813
     13 O                    -0.456881       0.000426
     14 H                     0.354318       0.000094
     15 O                    -0.167262       0.000899
     16 O                    -0.284232      -0.000572
     17 H                     0.316608      -0.004656
     18 H                     0.338878      -0.000811
     19 O                    -0.440024      -0.000547
     20 H                     0.347630       0.002434
  --------------------------------------------------------
  Sum of atomic charges =     0.000000
  Sum of spin   charges =     1.000000

 -----------------------------------------------------------------
                    Cartesian Multipole Moments
 -----------------------------------------------------------------
    Charge (ESU x 10^10)
                 0.0000
    Dipole Moment (Debye)
         X       0.8580      Y       4.0677      Z      -1.8541
       Tot       4.5519
    Quadrupole Moments (Debye-Ang)
        XX     -55.5159     XY      11.4985     YY     -74.7471
        XZ      -5.6804     YZ      -5.9259     ZZ     -65.7876
    Octopole Moments (Debye-Ang^2)
       XXX    -665.1762    XXY      25.9482    XYY    -300.0512
       YYY      91.2685    XXZ     -43.0163    XYZ     -26.6650
       YYZ       4.1266    XZZ    -266.6883    YZZ      11.7647
       ZZZ     -51.1337
    Hexadecapole Moments (Debye-Ang^3)
      XXXX   -5795.2528   XXXY    -184.2638   XXYY   -1517.9223
      XYYY     158.5618   YYYY    -836.2110   XXXZ    -448.6563
      XXYZ    -198.2797   XYYZ     -60.1710   YYYZ    -199.8475
      XXZZ   -1271.1282   XYZZ     -24.1906   YYZZ    -274.2023
      XZZZ    -300.8563   YZZZ    -199.9004   ZZZZ    -583.3901
 -----------------------------------------------------------------
 Calculating analytic gradient of the SCF energy
 Gradient of CDS energy
            1           2           3           4           5           6
    1  -0.0023452   0.0014764  -0.0017756   0.0018698  -0.0000705  -0.0008230
    2  -0.0014484  -0.0013326  -0.0008741   0.0008973   0.0000537   0.0022841
    3  -0.0001381   0.0002416   0.0029667  -0.0032215  -0.0000982   0.0050755
            7           8           9          10          11          12
    1   0.0025516   0.0002712  -0.0004085  -0.0001823   0.0000878  -0.0000802
    2   0.0008956  -0.0000843   0.0002181  -0.0000168  -0.0000380  -0.0001539
    3  -0.0051143   0.0000059  -0.0002316   0.0000412  -0.0001122  -0.0000397
           13          14          15          16          17          18
    1   0.0010761  -0.0002730  -0.0000548  -0.0002779  -0.0001215   0.0004754
    2   0.0028042  -0.0003590  -0.0000126  -0.0000238  -0.0001196  -0.0000707
    3  -0.0001932   0.0001989  -0.0000862   0.0001012   0.0003728  -0.0001513
           19          20
    1  -0.0013736  -0.0000220
    2  -0.0031331   0.0005140
    3   0.0003819   0.0000006
 Gradient of SCF Energy
            1           2           3           4           5           6
    1  -0.0063837   0.0063018   0.0034583  -0.0105345   0.0039295  -0.0159563
    2   0.0000966   0.0062594   0.0028120  -0.0072469  -0.0142426   0.0131991
    3   0.0057423   0.0219793  -0.0021192  -0.0076967   0.0161640  -0.0055116
            7           8           9          10          11          12
    1  -0.0027277   0.0030079  -0.0077817  -0.0081206   0.0083858   0.0133940
    2  -0.0012367   0.0031086  -0.0029489   0.0103705   0.0029193  -0.0104558
    3   0.0069293  -0.0079801  -0.0183329   0.0019115  -0.0134857  -0.0033476
           13          14          15          16          17          18
    1   0.0066881  -0.0040876  -0.0036908  -0.0176664   0.0078594   0.0194874
    2  -0.0085838   0.0030369  -0.0059610  -0.0150257   0.0062817   0.0165949
    3  -0.0093624   0.0070653   0.0061853  -0.0161855   0.0078944   0.0107006
           19          20
    1   0.0247314  -0.0202942
    2  -0.0110178   0.0120403
    3   0.0014744  -0.0020247
 Max gradient component =       2.473E-02
 RMS gradient           =       1.041E-02
 Computing fast CPCM-SWIG gradient
 Updating gradient with PCM contributions...
 -- total gradient after adding PCM contribution --
---------------------------------------------------
  Atom         X              Y              Z     
---------------------------------------------------
   1      -0.003909      -0.000918       0.002026
   2       0.003004       0.004161       0.008396
   3      -0.000058       0.000279      -0.001360
   4      -0.006589      -0.003888      -0.004072
   5       0.001542      -0.001313       0.002224
   6       0.000321       0.003736      -0.002493
   7      -0.003488      -0.001727       0.004300
   8       0.002041      -0.000835      -0.002659
   9      -0.002683      -0.002297      -0.006017
  10      -0.002733       0.001891      -0.000004
  11       0.001569       0.000725      -0.002903
  12       0.001782      -0.000999      -0.000512
  13       0.003609      -0.003001      -0.007967
  14      -0.001693       0.002277       0.006741
  15      -0.000408      -0.001596       0.005081
  16      -0.003778      -0.002418      -0.008025
  17       0.004788       0.003396       0.004037
  18       0.004661       0.003360       0.003690
  19       0.008300      -0.003625      -0.000793
  20      -0.006279       0.002795       0.000312
---------------------------------------------------
 Number of fixed atoms: 0
 Gradient time:  CPU 386.28 s  wall 32.26 s
 Geometry Optimization Parameters
   NAtoms,    NIC,     NZ,  NCons,   NDum,   NFix, NCnnct, MaxDiis
       20     132       0       0       0       0       0       0


** GEOMETRY OPTIMIZATION IN DELOCALIZED INTERNAL COORDINATES **
   Searching for a Minimum

   Optimization Cycle:   1

                       Coordinates (Angstroms)
     ATOM                X               Y               Z
      1  C         2.6308920114   -1.0206024924   -1.0856800626
      2  O         1.5734276428   -0.0907830768   -1.0590214346
      3  C         3.5486832893   -0.6665804010    0.0952080851
      4  O         2.8467830273   -0.9954604016    1.2555835665
      5  C         4.0205067642    0.7810642236    0.0534071858
      6  C         5.0345056775    1.1335730650    1.1740587940
      7  O         4.4282985837    0.9457500820    2.3793946375
      8  H         3.1859502037   -0.9677724760   -2.0253766442
      9  H         1.0592878905   -0.2260873660   -1.8721687895
     10  H         3.1563318636    1.4438486131    0.1466673676
     11  H         4.5153836642    0.9888006215   -0.8981900056
     12  H         5.8782960919    0.4214690032    1.1319368923
     13  O         2.1748445535   -2.3456306162   -0.9728124195
     14  H         1.8037672830   -2.4292295480   -0.0754054414
     15  O         4.6663339048   -1.5826798989    0.1127837089
     16  O         5.4321021246   -1.3960378556   -1.0885928094
     17  H         3.3142158808   -0.5725319005    2.0040307336
     18  H         6.2107683492   -0.9136184689   -0.7517239078
     19  O         5.5800676907    2.4153373535    0.9945388656
     20  H         4.8389510030    3.0458397402    0.9686363775
   Point Group: c1    Number of degrees of freedom:    54


   Energy is   -684.319307052


 Attempting to generate delocalized internal coordinates
 Initial Hessian constructed with Jon Baker's OPTIMIZE code

 54 Hessian modes will be used to form the next step
  Hessian Eigenvalues:
     0.002317    0.004232    0.004293    0.006114    0.009662    0.014538
     0.014871    0.015042    0.016246    0.035806    0.049126    0.049481
     0.057824    0.058069    0.061621    0.062379    0.063234    0.084228
     0.091829    0.096426    0.121671    0.122584    0.160000    0.160000
     0.160000    0.160000    0.160000    0.171589    0.182576    0.191058
     0.199378    0.206936    0.220034    0.235287    0.250000    0.274924
     0.287922    0.300635    0.331438    0.344615    0.345068    0.345233
     0.388767    0.400205    0.442611    0.446644    0.448733    0.463820
     0.516699    0.521742    0.524294    0.525046    0.526933    0.530671

 Minimum search - taking simple RFO step
 Searching for Lamda that Minimizes Along All modes
 Value Taken    Lamda =  -0.00149940
 Step Taken.  Stepsize is  0.142476

                             Maximum     Tolerance    Cnvgd?
         Gradient           0.007317      0.000300      NO
         Displacement       0.054946      0.001200      NO
         Energy change     *********      0.000001      NO


 New Cartesian Coordinates Obtained by Inverse Iteration

 Displacement from previous Coordinates is:  0.309867
 ----------------------------------------------------------------
             Standard Nuclear Orientation (Angstroms)
    I     Atom           X                Y                Z
 ----------------------------------------------------------------
    1      C       2.6374227287    -1.0137497426    -1.0810427499
    2      O       1.5717650236    -0.0949475889    -1.0655088761
    3      C       3.5440720983    -0.6683028049     0.1120596168
    4      O       2.8438797095    -1.0139584275     1.2672289649
    5      C       4.0009923444     0.7810947679     0.0749354791
    6      C       5.0434140306     1.1409622931     1.1639685697
    7      O       4.4786502012     0.9749915317     2.3861753657
    8      H       3.1990358887    -0.9381935266    -2.0093985167
    9      H       1.0711863485    -0.2073767514    -1.8825706408
   10      H       3.1389484853     1.4343539173     0.1926908720
   11      H       4.4680225133     0.9964467919    -0.8831277487
   12      H       5.8825997905     0.4291873518     1.1099782245
   13      O       2.1805132043    -2.3408981028    -1.0008468930
   14      H       1.7858196677    -2.4712365061    -0.1266231985
   15      O       4.6670302371    -1.5762865424     0.1246573686
   16      O       5.4357791979    -1.3966641945    -1.0691939378
   17      H       3.2815327588    -0.5958130900     2.0271837049
   18      H       6.2338069023    -0.9545485256    -0.7419201239
   19      O       5.5798792480     2.4221475781     0.9559140954
   20      H       4.8550471211     3.0614597717     0.9327151237
 ----------------------------------------------------------------
 Nuclear Repulsion Energy =         728.60557476 hartrees
 There are       45 alpha and       44 beta electrons
 Discretize the solute cavity surface with Lebedev spheres
	Using 110 Lebedev grid points for each H atom
	Using 194 Lebedev grid points for other atoms
	Atomic van der Waals radii will be scaled by 1.20
 Remove points where switching function is < 1.0e-08
 Keep 1558 surface tesserae and discard 1566 interior tesserae
 Molecular Surface Area = 169.993 Angst**2
 Applying Cartesian multipole field
    Component          Value
    ---------          -----
     (2,0,0)        1.00000E-12
     (0,2,0)        2.00000E-11
     (0,0,2)       -3.00000E-11
 Nucleus-field energy     =     0.0000000052 hartrees
 Requested basis set is 6-311++G(2df,2p)
 There are 142 shells and 464 basis functions
 A cutoff of  1.0D-12 yielded   8883 shell pairs
 There are     93668 function pairs (    116214 Cartesian)
 Smallest overlap matrix eigenvalue = 4.59E-06
 Guess MOs from SCF MO coefficient file

 -----------------------------------------------------------------------
  General SCF calculation program by
  Eric Jon Sundstrom, Paul Horn, Yuezhi Mao, Dmitri Zuev, Alec White,
  David Stuck, Shaama M.S., Shane Yost, Joonho Lee, David Small,
  Daniel Levine, Susi Lehtola, Hugh Burton, Evgeny Epifanovsky,
  Bang C. Huynh
 -----------------------------------------------------------------------
 Exchange:     0.1500 Hartree-Fock + 1.0000 wB97M-V + LR-HF
 Correlation:  1.0000 wB97M-V
 Using SG-2 standard quadrature grid
 Nonlocal Correlation:  VV10 with C = 0.0100 and b = 6.00 and scale = 1.00000
 Grid used for NLC:  SG-1 standard quadrature
 
 Citation of the SMD model:
 Marenich, A.V.; Cramer, C.J.; Truhlar, D.G.
 J. Phys. Chem. B 2009, 113, 6378-6396.
 iSolventCode=           1
 Solvent: water                                                           
 
 vradii
            1           2           3           4           5           6
    1   1.8500000   1.5200000   1.8500000   1.5200000   1.8500000   1.8500000
            7           8           9          10          11          12
    1   1.5200000   1.2000000   1.2000000   1.2000000   1.2000000   1.2000000
           13          14          15          16          17          18
    1   1.5200000   1.2000000   1.5200000   1.5200000   1.2000000   1.2000000
           19          20
    1   1.5200000   1.2000000
 -------------------------------------------------------
 OpenMP BLAS3 based DFT computing Module                
 Release: version 1.0, May 2013, Q-Chem Inc. Pittsburgh 
 -------------------------------------------------------
 A unrestricted SCF calculation will be
 performed using Roothaan-Hall, DIIS, GDM
 SCF converges when RMS gradient is below 1.0e-07
 ---------------------------------------
  Cycle       Energy         DIIS error
 ---------------------------------------
    1    -684.2676028831      2.65e-04  Roothaan Step
 ---------------------------------------
  Cycle       Energy         DIIS error
 ---------------------------------------
    1    -684.3160249945      2.49e-04  
    2    -684.3234230627      1.72e-04  Done DIIS. Switching to GDM
 ---------------------------------------
  Cycle       Energy        RMS Gradient
 ---------------------------------------
    1    -684.3234230627      7.05e-03   Normal BFGS step
    2    -684.3237968898      6.52e-03   Normal BFGS step
    3    -684.3258364583      1.76e-03   Normal BFGS step
    4    -684.3258604149      1.01e-03   Normal BFGS step
    5    -684.3258746901      7.49e-04   Normal BFGS step
    6    -684.3258763599      3.68e-04   Normal BFGS step
    7    -684.3258774681      2.03e-04   Normal BFGS step
    8    -684.3258778630      7.99e-05   Normal BFGS step
    9    -684.3258779181      8.38e-05   Normal BFGS step
   10    -684.3258779548      8.46e-05   Normal BFGS step
   11    -684.3258779925      7.55e-05   Normal BFGS step
   12    -684.3258780302      5.62e-05   Normal BFGS step
   13    -684.3258780540      3.62e-05   Normal BFGS step
   14    -684.3258780651      2.67e-05   Normal BFGS step
   15    -684.3258780688      9.62e-06   Normal BFGS step
   16    -684.3258780697      2.67e-06   Normal BFGS step
   17    -684.3258780698      1.63e-06   Normal BFGS step
   18    -684.3258780699      7.18e-07   Normal BFGS step
   19    -684.3258780699      4.04e-07   Normal BFGS step
   20    -684.3258780699      1.66e-07   Normal BFGS step
   21    -684.3258780698      4.27e-08  Convergence criterion met
 ---------------------------------------
 SCF time:   CPU 3105.20s  wall 212.00s 
<S^2> =          0.754280395
(3)  G-ENP(liq) elect-nuc-pol free energy of system     -684.325878070 a.u.
(4)  G-CDS(liq) cavity-dispersion-solvent structure 
     free energy                                                3.6943 kcal/mol
(6)  G-S(liq) free energy of system                     -684.319990857 a.u.
 SCF   energy in the final basis set =     -684.3199908569
 Total energy in the final basis set =     -684.3199908569
 
 --------------------------------------------------------------
 
                    Orbital Energies (a.u.)
 --------------------------------------------------------------
 
 Alpha MOs
 -- Occupied --
-19.4061 -19.4021 -19.3992 -19.3590 -19.3493 -19.3485 -19.3478 -10.4688
-10.4617 -10.4499 -10.3614  -1.2782  -1.2193  -1.2113  -1.1822  -1.1417
 -1.1376  -1.0411  -0.9093  -0.8381  -0.7627  -0.7381  -0.6915  -0.6609
 -0.6554  -0.6300  -0.6197  -0.6042  -0.5904  -0.5748  -0.5660  -0.5627
 -0.5351  -0.5150  -0.4975  -0.4822  -0.4669  -0.4529  -0.4481  -0.4331
 -0.4317  -0.4202  -0.4158  -0.3988  -0.3869
 -- Virtual --
  0.0269   0.0371   0.0404   0.0427   0.0615   0.0658   0.0697   0.0744
  0.0913   0.0954   0.1122   0.1205   0.1251   0.1276   0.1372   0.1483
  0.1508   0.1550   0.1590   0.1697   0.1723   0.1812   0.1838   0.1919
  0.2000   0.2085   0.2145   0.2340   0.2417   0.2430   0.2500   0.2559
  0.2641   0.2725   0.2809   0.2832   0.2851   0.2901   0.3008   0.3033
  0.3096   0.3159   0.3257   0.3312   0.3357   0.3431   0.3468   0.3553
  0.3598   0.3618   0.3666   0.3766   0.3788   0.3867   0.3903   0.3939
  0.4000   0.4031   0.4095   0.4130   0.4190   0.4277   0.4333   0.4447
  0.4467   0.4586   0.4720   0.4744   0.4850   0.4886   0.5045   0.5203
  0.5608   0.5722   0.5835   0.5977   0.6156   0.6216   0.6343   0.6472
  0.6540   0.6760   0.6840   0.6906   0.7007   0.7065   0.7210   0.7252
  0.7469   0.7499   0.7579   0.7703   0.7833   0.8055   0.8233   0.8300
  0.8511   0.8731   0.8934   0.9006   0.9172   0.9325   0.9443   0.9692
  0.9785   1.0073   1.0329   1.0501   1.0636   1.0702   1.0796   1.0850
  1.1089   1.1150   1.1239   1.1349   1.1488   1.1565   1.1673   1.1759
  1.1796   1.1848   1.1984   1.2044   1.2148   1.2207   1.2359   1.2413
  1.2497   1.2515   1.2654   1.2800   1.2871   1.3013   1.3105   1.3164
  1.3350   1.3375   1.3516   1.3668   1.3793   1.3948   1.4024   1.4322
  1.4400   1.4612   1.4725   1.4833   1.4921   1.5009   1.5127   1.5243
  1.5369   1.5471   1.5582   1.5820   1.6025   1.6049   1.6196   1.6286
  1.6463   1.6839   1.6846   1.6949   1.7159   1.7250   1.7444   1.7631
  1.7798   1.8117   1.8223   1.8424   1.8691   1.9007   1.9159   1.9338
  1.9430   1.9653   1.9778   1.9977   2.0158   2.0538   2.0713   2.1055
  2.1143   2.1433   2.1867   2.2223   2.2387   2.2624   2.2912   2.3179
  2.3459   2.3560   2.3846   2.3881   2.4016   2.4325   2.4520   2.4675
  2.4861   2.4961   2.5113   2.5391   2.5682   2.6047   2.6498   2.6928
  2.7184   2.7884   2.8014   2.8363   2.8464   2.8691   2.8882   2.8950
  2.9533   2.9661   2.9949   3.0463   3.0653   3.0927   3.1294   3.1478
  3.1967   3.2150   3.2630   3.2858   3.2925   3.3187   3.3428   3.3640
  3.3994   3.4186   3.4254   3.4504   3.4624   3.5004   3.5260   3.5609
  3.5806   3.5971   3.6112   3.6330   3.6559   3.6665   3.6854   3.6970
  3.7233   3.7437   3.7525   3.7885   3.8081   3.8111   3.8155   3.8438
  3.8460   3.8566   3.8617   3.8803   3.8933   3.9104   3.9293   3.9377
  3.9571   3.9671   3.9933   4.0263   4.0619   4.0752   4.1179   4.1217
  4.1376   4.1675   4.1862   4.2154   4.2246   4.2421   4.2485   4.2804
  4.3047   4.3320   4.3551   4.3658   4.3783   4.3948   4.4116   4.4296
  4.4349   4.4716   4.5282   4.5602   4.5696   4.6222   4.6392   4.6765
  4.7112   4.7499   4.7957   4.8663   4.8970   5.0240   5.0517   5.0762
  5.1231   5.1447   5.1672   5.2125   5.2182   5.2298   5.2335   5.2511
  5.2679   5.2781   5.2890   5.2935   5.2974   5.3132   5.3225   5.3301
  5.3555   5.3615   5.3747   5.3815   5.3906   5.4023   5.4281   5.4304
  5.4447   5.4904   5.4940   5.5053   5.5307   5.5384   5.5585   5.5891
  5.5934   5.6078   5.6188   5.6317   5.6383   5.6498   5.6646   5.6771
  5.7160   5.7639   5.7734   5.7967   5.8113   5.8401   5.9110   5.9535
  5.9790   6.0254   6.0495   6.0777   6.0871   6.1457   6.1564   6.2420
  6.2632   6.4967   6.5441   6.5843   6.7520   6.8069   6.8312   6.8537
  6.8953   6.9882   7.0176   7.0604   7.0845   7.0893   7.1038   7.1347
  7.1631   7.2462   7.2574   7.2672   7.2776   7.2861   7.3102   7.3159
  7.3324   7.3417   7.3650   7.3964   7.4201   7.4261   7.4551   7.4996
  7.5147   7.5483   7.5914   7.6105   7.6357   7.6699   7.6971   7.7443
  7.7762   7.8314   7.8606   7.8641   7.8843   7.9146   8.0153   8.2089
 24.6393  24.7829  24.8341  24.8645  50.4980  50.5434  50.5943  50.6100
 50.6274  50.6562  50.7041
 
 Beta MOs
 -- Occupied --
-19.4060 -19.3992 -19.3802 -19.3590 -19.3494 -19.3485 -19.3477 -10.4689
-10.4619 -10.4498 -10.3595  -1.2781  -1.2125  -1.1993  -1.1820  -1.1376
 -1.1114  -1.0411  -0.9045  -0.8334  -0.7540  -0.7358  -0.6912  -0.6549
 -0.6537  -0.6211  -0.6126  -0.5948  -0.5840  -0.5727  -0.5621  -0.5438
 -0.5346  -0.5048  -0.4822  -0.4738  -0.4647  -0.4497  -0.4336  -0.4267
 -0.4178  -0.4106  -0.4005  -0.3892
 -- Virtual --
 -0.0759   0.0274   0.0371   0.0406   0.0429   0.0615   0.0661   0.0703
  0.0745   0.0914   0.0955   0.1130   0.1208   0.1254   0.1276   0.1382
  0.1485   0.1516   0.1551   0.1594   0.1700   0.1729   0.1817   0.1839
  0.1922   0.2005   0.2091   0.2149   0.2354   0.2424   0.2443   0.2509
  0.2569   0.2650   0.2730   0.2818   0.2839   0.2860   0.2911   0.3024
  0.3042   0.3099   0.3183   0.3259   0.3318   0.3381   0.3436   0.3481
  0.3559   0.3605   0.3637   0.3681   0.3770   0.3806   0.3882   0.3915
  0.3959   0.4004   0.4049   0.4100   0.4158   0.4205   0.4294   0.4335
  0.4449   0.4475   0.4593   0.4734   0.4748   0.4850   0.4894   0.5069
  0.5217   0.5638   0.5744   0.5840   0.5993   0.6162   0.6221   0.6360
  0.6495   0.6545   0.6767   0.6843   0.6921   0.7019   0.7082   0.7234
  0.7264   0.7489   0.7507   0.7594   0.7713   0.7842   0.8061   0.8240
  0.8304   0.8512   0.8738   0.8939   0.9020   0.9188   0.9335   0.9446
  0.9698   0.9802   1.0077   1.0333   1.0524   1.0645   1.0707   1.0829
  1.0854   1.1099   1.1157   1.1264   1.1408   1.1521   1.1577   1.1739
  1.1770   1.1835   1.1876   1.1997   1.2092   1.2153   1.2229   1.2376
  1.2447   1.2510   1.2595   1.2670   1.2828   1.2887   1.3032   1.3134
  1.3213   1.3376   1.3415   1.3532   1.3681   1.3814   1.3975   1.4042
  1.4355   1.4431   1.4633   1.4733   1.4873   1.4946   1.5027   1.5140
  1.5269   1.5403   1.5497   1.5596   1.5830   1.6047   1.6093   1.6216
  1.6322   1.6481   1.6855   1.6865   1.6967   1.7192   1.7296   1.7474
  1.7691   1.7913   1.8127   1.8351   1.8507   1.8728   1.9059   1.9217
  1.9393   1.9446   1.9679   1.9811   2.0005   2.0174   2.0557   2.0737
  2.1105   2.1180   2.1513   2.1901   2.2235   2.2419   2.2645   2.2943
  2.3208   2.3477   2.3586   2.3851   2.3928   2.4019   2.4381   2.4547
  2.4710   2.4872   2.4980   2.5147   2.5445   2.5690   2.6058   2.6524
  2.6934   2.7238   2.7899   2.8037   2.8378   2.8496   2.8701   2.8905
  2.9003   2.9559   2.9693   2.9986   3.0487   3.0672   3.0973   3.1320
  3.1494   3.1983   3.2158   3.2658   3.2896   3.2942   3.3229   3.3439
  3.3653   3.4010   3.4230   3.4286   3.4516   3.4653   3.5032   3.5284
  3.5623   3.5814   3.5974   3.6135   3.6338   3.6566   3.6675   3.6872
  3.6980   3.7251   3.7450   3.7537   3.7909   3.8098   3.8134   3.8159
  3.8454   3.8491   3.8573   3.8623   3.8811   3.8963   3.9119   3.9302
  3.9397   3.9609   3.9682   3.9953   4.0281   4.0629   4.0784   4.1209
  4.1262   4.1395   4.1702   4.1891   4.2191   4.2278   4.2436   4.2497
  4.2831   4.3054   4.3374   4.3572   4.3688   4.3837   4.3979   4.4152
  4.4325   4.4414   4.4727   4.5353   4.5661   4.5724   4.6254   4.6409
  4.6817   4.7128   4.7530   4.7991   4.8671   4.9005   5.0259   5.0528
  5.1092   5.1693   5.1932   5.2110   5.2211   5.2239   5.2390   5.2489
  5.2632   5.2794   5.2867   5.2959   5.2997   5.3091   5.3215   5.3309
  5.3474   5.3583   5.3669   5.3853   5.3886   5.4023   5.4057   5.4325
  5.4407   5.4658   5.4937   5.4984   5.5151   5.5383   5.5465   5.5635
  5.5928   5.5965   5.6100   5.6213   5.6324   5.6446   5.6519   5.6670
  5.6776   5.7165   5.7649   5.7756   5.8016   5.8141   5.8437   5.9133
  5.9661   5.9968   6.0257   6.0506   6.0865   6.0975   6.1475   6.1569
  6.2423   6.2732   6.4972   6.5510   6.5854   6.7521   6.8111   6.8464
  6.8542   6.9840   7.0177   7.0518   7.0766   7.0884   7.0914   7.1079
  7.1393   7.1671   7.2493   7.2642   7.2674   7.2816   7.2980   7.3172
  7.3200   7.3354   7.3473   7.3909   7.4163   7.4205   7.4469   7.4603
  7.5016   7.5169   7.5624   7.5925   7.6115   7.6533   7.6701   7.6980
  7.7628   7.7772   7.8324   7.8622   7.8725   7.8866   7.9147   8.0155
  8.2090  24.6404  24.7835  24.8340  24.8646  50.4981  50.5540  50.5967
 50.6109  50.6274  50.6572  50.7042
 --------------------------------------------------------------
 
          Ground-State Mulliken Net Atomic Charges

     Atom                 Charge (a.u.)    Spin (a.u.)
  --------------------------------------------------------
      1 C                    -0.148789      -0.000862
      2 O                    -0.424525      -0.000030
      3 C                     0.164043      -0.006327
      4 O                    -0.387942       0.004372
      5 C                    -0.469400       0.077709
      6 C                    -0.116615       0.008931
      7 O                    -0.176308       0.844492
      8 H                     0.305682       0.000685
      9 H                     0.339607      -0.000146
     10 H                     0.299215      -0.004547
     11 H                     0.295184       0.003215
     12 H                     0.312307       0.074274
     13 O                    -0.459618       0.000478
     14 H                     0.353691       0.000050
     15 O                    -0.160215       0.001029
     16 O                    -0.282622      -0.000559
     17 H                     0.316285      -0.003684
     18 H                     0.337163      -0.000748
     19 O                    -0.443823      -0.000658
     20 H                     0.346681       0.002329
  --------------------------------------------------------
  Sum of atomic charges =     0.000000
  Sum of spin   charges =     1.000000

 -----------------------------------------------------------------
                    Cartesian Multipole Moments
 -----------------------------------------------------------------
    Charge (ESU x 10^10)
                 0.0000
    Dipole Moment (Debye)
         X       0.7268      Y       3.8727      Z      -1.8298
       Tot       4.3445
    Quadrupole Moments (Debye-Ang)
        XX     -56.2403     XY      10.5598     YY     -74.2962
        XZ      -5.8798     YZ      -6.0907     ZZ     -65.8855
    Octopole Moments (Debye-Ang^2)
       XXX    -667.5714    XXY      19.7902    XYY    -299.4546
       YYY      89.0719    XXZ     -44.8685    XYZ     -26.8855
       YYZ       3.8348    XZZ    -267.8764    YZZ      11.8597
       ZZZ     -51.0959
    Hexadecapole Moments (Debye-Ang^3)
      XXXX   -5797.5688   XXXY    -227.4051   XXYY   -1516.7591
      XYYY     153.1446   YYYY    -832.3997   XXXZ    -462.2949
      XXYZ    -196.4297   XYYZ     -61.7331   YYYZ    -199.5007
      XXZZ   -1279.4318   XYZZ     -26.0252   YYZZ    -276.8509
      XZZZ    -305.1841   YZZZ    -202.0518   ZZZZ    -582.6635
 -----------------------------------------------------------------
 Calculating analytic gradient of the SCF energy
 Gradient of CDS energy
            1           2           3           4           5           6
    1  -0.0025307   0.0016966  -0.0018323   0.0019293  -0.0000732  -0.0005841
    2  -0.0013019  -0.0014888  -0.0009450   0.0009618   0.0000481   0.0023915
    3  -0.0001641   0.0002223   0.0030523  -0.0033071  -0.0000953   0.0048966
            7           8           9          10          11          12
    1   0.0023114   0.0002471  -0.0004032  -0.0001794   0.0000877  -0.0000920
    2   0.0007836  -0.0000401   0.0002218  -0.0000190  -0.0000360  -0.0001521
    3  -0.0050012  -0.0000066  -0.0002377   0.0000414  -0.0001128  -0.0000332
           13          14          15          16          17          18
    1   0.0010665  -0.0002752  -0.0000569  -0.0002844  -0.0001324   0.0004783
    2   0.0027822  -0.0003692  -0.0000126  -0.0000215  -0.0001146  -0.0000758
    3  -0.0001166   0.0001836  -0.0000879   0.0001071   0.0003715  -0.0001549
           19          20
    1  -0.0013570  -0.0000161
    2  -0.0031295   0.0005170
    3   0.0004514  -0.0000087
 Gradient of SCF Energy
            1           2           3           4           5           6
    1  -0.0015032   0.0034347   0.0039174  -0.0062010   0.0024259  -0.0137669
    2   0.0013248   0.0018611   0.0018563  -0.0049997  -0.0121029   0.0098805
    3   0.0039290   0.0135574  -0.0015362  -0.0049923   0.0134115  -0.0048776
            7           8           9          10          11          12
    1   0.0008788   0.0006674  -0.0056567  -0.0053868   0.0061174   0.0112209
    2   0.0016037   0.0045790  -0.0005143   0.0083064   0.0022956  -0.0096820
    3   0.0045130  -0.0054818  -0.0128747   0.0018181  -0.0100793  -0.0027126
           13          14          15          16          17          18
    1   0.0029199  -0.0031191  -0.0042128  -0.0131905   0.0037226   0.0161213
    2  -0.0060852   0.0003116  -0.0044368  -0.0114646   0.0036579   0.0121994
    3  -0.0028641   0.0019095   0.0030300  -0.0095940   0.0058636   0.0063233
           19          20
    1   0.0157779  -0.0141672
    2  -0.0086645   0.0100735
    3   0.0026819  -0.0020249
 Max gradient component =       1.612E-02
 RMS gradient           =       7.501E-03
 Computing fast CPCM-SWIG gradient
 Updating gradient with PCM contributions...
 -- total gradient after adding PCM contribution --
---------------------------------------------------
  Atom         X              Y              Z     
---------------------------------------------------
   1       0.000977       0.000543       0.000007
   2       0.000201       0.000064      -0.000132
   3       0.000404      -0.000062      -0.000940
   4      -0.002260      -0.001337      -0.000691
   5      -0.000390       0.000316       0.000417
   6       0.002218       0.000449      -0.002301
   7      -0.000116       0.001062       0.001855
   8      -0.000316       0.000350      -0.000178
   9      -0.000654      -0.000155      -0.000440
  10      -0.000050       0.000042      -0.000261
  11       0.000061      -0.000012       0.000277
  12      -0.000100      -0.000202       0.000344
  13      -0.000559      -0.000737      -0.000850
  14      -0.000456      -0.000347       0.001089
  15      -0.000777      -0.000102       0.001641
  16       0.001102       0.000304      -0.001305
  17       0.000661       0.000491       0.001530
  18       0.000794      -0.000289      -0.000735
  19      -0.000213      -0.001122       0.000462
  20      -0.000529       0.000742       0.000211
---------------------------------------------------
 Number of fixed atoms: 0
 Gradient time:  CPU 382.20 s  wall 31.91 s
 Geometry Optimization Parameters
   NAtoms,    NIC,     NZ,  NCons,   NDum,   NFix, NCnnct, MaxDiis
       20     132       0       0       0       0       0       0

 Cartesian Hessian Update
 Hessian updated using BFGS update


** GEOMETRY OPTIMIZATION IN DELOCALIZED INTERNAL COORDINATES **
   Searching for a Minimum

   Optimization Cycle:   2

                       Coordinates (Angstroms)
     ATOM                X               Y               Z
      1  C         2.6374227287   -1.0137497426   -1.0810427499
      2  O         1.5717650236   -0.0949475889   -1.0655088761
      3  C         3.5440720983   -0.6683028049    0.1120596168
      4  O         2.8438797095   -1.0139584275    1.2672289649
      5  C         4.0009923444    0.7810947679    0.0749354791
      6  C         5.0434140306    1.1409622931    1.1639685697
      7  O         4.4786502012    0.9749915317    2.3861753657
      8  H         3.1990358887   -0.9381935266   -2.0093985167
      9  H         1.0711863485   -0.2073767514   -1.8825706408
     10  H         3.1389484853    1.4343539173    0.1926908720
     11  H         4.4680225133    0.9964467919   -0.8831277487
     12  H         5.8825997905    0.4291873518    1.1099782245
     13  O         2.1805132043   -2.3408981028   -1.0008468930
     14  H         1.7858196677   -2.4712365061   -0.1266231985
     15  O         4.6670302371   -1.5762865424    0.1246573686
     16  O         5.4357791979   -1.3966641945   -1.0691939378
     17  H         3.2815327588   -0.5958130900    2.0271837049
     18  H         6.2338069023   -0.9545485256   -0.7419201239
     19  O         5.5798792480    2.4221475781    0.9559140954
     20  H         4.8550471211    3.0614597717    0.9327151237
   Point Group: c1    Number of degrees of freedom:    54


   Energy is   -684.319990857

 Hessian updated using BFGS update

 51 Hessian modes will be used to form the next step
  Hessian Eigenvalues:
     0.002383    0.004291    0.004425    0.006299    0.009801    0.014433
     0.014844    0.014981    0.016182    0.036345    0.049091    0.049511
     0.057883    0.058499    0.061767    0.062417    0.063233    0.084227
     0.092292    0.096358    0.121783    0.122530    0.150251    0.165245
     0.173032    0.182380    0.188911    0.204500    0.208042    0.231799
     0.237852    0.259248    0.275136    0.289863    0.296611    0.331109
     0.341444    0.344861    0.345555    0.383905    0.390220    0.441536
     0.446162    0.448596    0.458220    0.489266    0.519874    0.523493
     0.525091    0.527454    0.531103

 Minimum search - taking simple RFO step
 Searching for Lamda that Minimizes Along All modes
 Value Taken    Lamda =  -0.00041346
 Step Taken.  Stepsize is  0.210238

                             Maximum     Tolerance    Cnvgd?
         Gradient           0.003146      0.000300      NO
         Displacement       0.093935      0.001200      NO
         Energy change     -0.000684      0.000001      NO


 New Cartesian Coordinates Obtained by Inverse Iteration

 Displacement from previous Coordinates is:  0.331995
 ----------------------------------------------------------------
             Standard Nuclear Orientation (Angstroms)
    I     Atom           X                Y                Z
 ----------------------------------------------------------------
    1      C       2.6380019541    -1.0183908789    -1.0765281173
    2      O       1.5787525967    -0.0930682546    -1.0693896823
    3      C       3.5443933788    -0.6711307990     0.1145098770
    4      O       2.8480963662    -0.9946936868     1.2758509279
    5      C       4.0117179512     0.7709864007     0.0601112363
    6      C       5.0517082414     1.1236476107     1.1493363345
    7      O       4.4966877234     0.9145196565     2.3659204327
    8      H       3.2040117726    -0.9505194167    -2.0010765458
    9      H       1.0864784818    -0.1953697477    -1.8897384867
   10      H       3.1562038696     1.4303615372     0.1774076093
   11      H       4.4785392937     0.9762999197    -0.8989444090
   12      H       5.9015613439     0.4281878245     1.0735348608
   13      O       2.1743443651    -2.3414436037    -0.9937452370
   14      H       1.7708713819    -2.4722619090    -0.1270004267
   15      O       4.6583169037    -1.5876480429     0.1384079810
   16      O       5.4454145471    -1.4043322718    -1.0368447990
   17      H       3.2846961606    -0.5665818785     2.0261805550
   18      H       6.1661112195    -0.8447615687    -0.7164939796
   19      O       5.5670503049     2.4180729570     0.9660708332
   20      H       4.8364396436     3.0467943520     0.9497057354
 ----------------------------------------------------------------
 Nuclear Repulsion Energy =         730.74455827 hartrees
 There are       45 alpha and       44 beta electrons
 Discretize the solute cavity surface with Lebedev spheres
	Using 110 Lebedev grid points for each H atom
	Using 194 Lebedev grid points for other atoms
	Atomic van der Waals radii will be scaled by 1.20
 Remove points where switching function is < 1.0e-08
 Keep 1551 surface tesserae and discard 1573 interior tesserae
 Molecular Surface Area = 168.349 Angst**2
 Applying Cartesian multipole field
    Component          Value
    ---------          -----
     (2,0,0)        1.00000E-12
     (0,2,0)        2.00000E-11
     (0,0,2)       -3.00000E-11
 Nucleus-field energy     =     0.0000000052 hartrees
 Requested basis set is 6-311++G(2df,2p)
 There are 142 shells and 464 basis functions
 A cutoff of  1.0D-12 yielded   8902 shell pairs
 There are     93887 function pairs (    116510 Cartesian)
 Smallest overlap matrix eigenvalue = 4.49E-06
 Guess MOs from SCF MO coefficient file

 -----------------------------------------------------------------------
  General SCF calculation program by
  Eric Jon Sundstrom, Paul Horn, Yuezhi Mao, Dmitri Zuev, Alec White,
  David Stuck, Shaama M.S., Shane Yost, Joonho Lee, David Small,
  Daniel Levine, Susi Lehtola, Hugh Burton, Evgeny Epifanovsky,
  Bang C. Huynh
 -----------------------------------------------------------------------
 Exchange:     0.1500 Hartree-Fock + 1.0000 wB97M-V + LR-HF
 Correlation:  1.0000 wB97M-V
 Using SG-2 standard quadrature grid
 Nonlocal Correlation:  VV10 with C = 0.0100 and b = 6.00 and scale = 1.00000
 Grid used for NLC:  SG-1 standard quadrature
 
 Citation of the SMD model:
 Marenich, A.V.; Cramer, C.J.; Truhlar, D.G.
 J. Phys. Chem. B 2009, 113, 6378-6396.
 iSolventCode=           1
 Solvent: water                                                           
 
 vradii
            1           2           3           4           5           6
    1   1.8500000   1.5200000   1.8500000   1.5200000   1.8500000   1.8500000
            7           8           9          10          11          12
    1   1.5200000   1.2000000   1.2000000   1.2000000   1.2000000   1.2000000
           13          14          15          16          17          18
    1   1.5200000   1.2000000   1.5200000   1.5200000   1.2000000   1.2000000
           19          20
    1   1.5200000   1.2000000
 -------------------------------------------------------
 OpenMP BLAS3 based DFT computing Module                
 Release: version 1.0, May 2013, Q-Chem Inc. Pittsburgh 
 -------------------------------------------------------
 A unrestricted SCF calculation will be
 performed using Roothaan-Hall, DIIS, GDM
 SCF converges when RMS gradient is below 1.0e-07
 ---------------------------------------
  Cycle       Energy         DIIS error
 ---------------------------------------
    1    -684.2643817775      3.00e-04  Roothaan Step
 ---------------------------------------
  Cycle       Energy         DIIS error
 ---------------------------------------
    1    -684.3151379660      2.58e-04  
    2    -684.3229200278      1.79e-04  Done DIIS. Switching to GDM
 ---------------------------------------
  Cycle       Energy        RMS Gradient
 ---------------------------------------
    1    -684.3229200278      5.67e-03   Normal BFGS step
    2    -684.3233364805      7.34e-03   Normal BFGS step
    3    -684.3254687018      1.36e-03   Normal BFGS step
    4    -684.3254907219      7.86e-04   Normal BFGS step
    5    -684.3255017190      5.77e-04   Normal BFGS step
    6    -684.3255025437      2.81e-04   Normal BFGS step
    7    -684.3255031742      2.03e-04   Normal BFGS step
    8    -684.3255033587      9.03e-05   Normal BFGS step
    9    -684.3255034314      6.78e-05   Normal BFGS step
   10    -684.3255034681      6.55e-05   Normal BFGS step
   11    -684.3255035085      5.65e-05   Normal BFGS step
   12    -684.3255035564      3.71e-05   Normal BFGS step
   13    -684.3255035749      2.32e-05   Normal BFGS step
   14    -684.3255035828      1.64e-05   Normal BFGS step
   15    -684.3255035851      8.38e-06   Normal BFGS step
   16    -684.3255035857      3.06e-06   Normal BFGS step
   17    -684.3255035859      1.35e-06   Normal BFGS step
   18    -684.3255035859      7.29e-07   Normal BFGS step
   19    -684.3255035859      3.67e-07   Normal BFGS step
   20    -684.3255035859      1.22e-07   Normal BFGS step
  GDM::WARNING energy changes are now smaller than effective accuracy.
  GDM::        calculation will continue, but THRESH should be increased
  GDM::        or SCF_CONVERGENCE decreased. 
  GDM::        effective_thresh = 3.73e-09
   21    -684.3255035858      3.23e-08  Convergence criterion met
 ---------------------------------------
 SCF time:   CPU 3153.80s  wall 216.00s 
<S^2> =          0.754276335
(3)  G-ENP(liq) elect-nuc-pol free energy of system     -684.325503586 a.u.
(4)  G-CDS(liq) cavity-dispersion-solvent structure 
     free energy                                                3.6557 kcal/mol
(6)  G-S(liq) free energy of system                     -684.319677865 a.u.
 SCF   energy in the final basis set =     -684.3196778652
 Total energy in the final basis set =     -684.3196778652
 
 --------------------------------------------------------------
 
                    Orbital Energies (a.u.)
 --------------------------------------------------------------
 
 Alpha MOs
 -- Occupied --
-19.4066 -19.4032 -19.4001 -19.3575 -19.3497 -19.3483 -19.3475 -10.4681
-10.4628 -10.4496 -10.3615  -1.2820  -1.2213  -1.2120  -1.1831  -1.1434
 -1.1384  -1.0413  -0.9118  -0.8392  -0.7643  -0.7400  -0.6944  -0.6624
 -0.6561  -0.6316  -0.6209  -0.6060  -0.5918  -0.5767  -0.5677  -0.5630
 -0.5352  -0.5149  -0.4998  -0.4822  -0.4655  -0.4520  -0.4505  -0.4339
 -0.4314  -0.4214  -0.4138  -0.4019  -0.3877
 -- Virtual --
  0.0270   0.0374   0.0405   0.0430   0.0616   0.0658   0.0703   0.0747
  0.0912   0.0961   0.1126   0.1205   0.1264   0.1281   0.1373   0.1485
  0.1512   0.1548   0.1589   0.1696   0.1722   0.1814   0.1846   0.1919
  0.2001   0.2075   0.2147   0.2336   0.2399   0.2432   0.2509   0.2571
  0.2644   0.2738   0.2828   0.2837   0.2870   0.2903   0.3028   0.3055
  0.3103   0.3177   0.3256   0.3328   0.3353   0.3414   0.3462   0.3557
  0.3591   0.3624   0.3692   0.3765   0.3790   0.3866   0.3906   0.3951
  0.3999   0.4049   0.4065   0.4127   0.4188   0.4291   0.4335   0.4452
  0.4464   0.4567   0.4713   0.4721   0.4838   0.4924   0.5044   0.5218
  0.5601   0.5742   0.5807   0.5996   0.6170   0.6258   0.6380   0.6468
  0.6509   0.6771   0.6815   0.6936   0.7003   0.7078   0.7198   0.7244
  0.7482   0.7507   0.7588   0.7656   0.7826   0.8035   0.8197   0.8276
  0.8524   0.8706   0.8960   0.8996   0.9210   0.9320   0.9609   0.9694
  0.9874   1.0110   1.0365   1.0375   1.0622   1.0738   1.0779   1.0854
  1.1063   1.1150   1.1247   1.1333   1.1536   1.1574   1.1644   1.1745
  1.1798   1.1865   1.1991   1.2059   1.2174   1.2216   1.2373   1.2413
  1.2499   1.2566   1.2687   1.2785   1.2812   1.3004   1.3117   1.3201
  1.3369   1.3428   1.3557   1.3674   1.3809   1.3951   1.4117   1.4349
  1.4384   1.4541   1.4675   1.4847   1.4914   1.5034   1.5203   1.5228
  1.5385   1.5528   1.5664   1.5852   1.6024   1.6050   1.6177   1.6299
  1.6489   1.6825   1.6903   1.7011   1.7176   1.7337   1.7411   1.7678
  1.7812   1.8122   1.8258   1.8458   1.8720   1.9034   1.9118   1.9394
  1.9536   1.9685   1.9851   2.0021   2.0199   2.0566   2.0776   2.1076
  2.1193   2.1471   2.2008   2.2207   2.2368   2.2695   2.2928   2.3258
  2.3482   2.3551   2.3817   2.3925   2.4009   2.4340   2.4613   2.4702
  2.4888   2.5003   2.5122   2.5418   2.5662   2.6083   2.6471   2.6918
  2.7206   2.8035   2.8108   2.8403   2.8451   2.8693   2.8926   2.9041
  2.9524   2.9769   2.9960   3.0489   3.0693   3.0935   3.1419   3.1522
  3.2018   3.2182   3.2658   3.2901   3.2956   3.3237   3.3414   3.3714
  3.3984   3.4173   3.4298   3.4549   3.4674   3.5017   3.5336   3.5681
  3.5821   3.6051   3.6093   3.6321   3.6552   3.6710   3.6850   3.6982
  3.7233   3.7450   3.7526   3.7875   3.8040   3.8126   3.8184   3.8439
  3.8491   3.8619   3.8680   3.8854   3.8944   3.9128   3.9330   3.9379
  3.9557   3.9672   4.0044   4.0598   4.0611   4.0790   4.1240   4.1267
  4.1406   4.1691   4.1902   4.2197   4.2286   4.2478   4.2504   4.2862
  4.3103   4.3431   4.3594   4.3710   4.3850   4.3957   4.4149   4.4352
  4.4455   4.4812   4.5367   4.5640   4.5778   4.6266   4.6430   4.6846
  4.7184   4.7538   4.7908   4.8736   4.8883   5.0149   5.0503   5.0783
  5.1328   5.1456   5.1693   5.2132   5.2211   5.2320   5.2325   5.2499
  5.2714   5.2766   5.2886   5.2959   5.2973   5.3150   5.3251   5.3320
  5.3544   5.3632   5.3769   5.3858   5.4009   5.4075   5.4304   5.4350
  5.4597   5.4920   5.4937   5.5092   5.5349   5.5402   5.5613   5.5828
  5.5990   5.6042   5.6249   5.6342   5.6439   5.6537   5.6741   5.6828
  5.7206   5.7699   5.7830   5.8027   5.8152   5.8408   5.9125   5.9587
  5.9845   6.0343   6.0618   6.0868   6.0980   6.1518   6.1629   6.2563
  6.2739   6.5055   6.5492   6.5874   6.7568   6.8153   6.8386   6.8695
  6.8973   7.0082   7.0232   7.0636   7.0856   7.0910   7.1066   7.1417
  7.1658   7.2514   7.2662   7.2759   7.2846   7.2933   7.3180   7.3255
  7.3421   7.3435   7.3729   7.4035   7.4256   7.4326   7.4687   7.5046
  7.5075   7.5522   7.5910   7.6158   7.6412   7.6723   7.6991   7.7457
  7.7810   7.8358   7.8651   7.8682   7.8880   7.9151   8.0230   8.2078
 24.6462  24.7956  24.8429  24.8752  50.4998  50.5502  50.5962  50.6128
 50.6290  50.6593  50.7073
 
 Beta MOs
 -- Occupied --
-19.4066 -19.4000 -19.3813 -19.3574 -19.3498 -19.3483 -19.3475 -10.4682
-10.4630 -10.4495 -10.3596  -1.2818  -1.2133  -1.2006  -1.1829  -1.1384
 -1.1139  -1.0412  -0.9069  -0.8345  -0.7554  -0.7377  -0.6941  -0.6567
 -0.6540  -0.6230  -0.6131  -0.5963  -0.5849  -0.5748  -0.5624  -0.5458
 -0.5347  -0.5055  -0.4823  -0.4748  -0.4635  -0.4498  -0.4345  -0.4273
 -0.4170  -0.4111  -0.4021  -0.3908
 -- Virtual --
 -0.0775   0.0274   0.0374   0.0407   0.0432   0.0617   0.0661   0.0708
  0.0748   0.0913   0.0962   0.1134   0.1209   0.1268   0.1282   0.1382
  0.1487   0.1521   0.1550   0.1593   0.1699   0.1727   0.1820   0.1846
  0.1922   0.2006   0.2081   0.2151   0.2349   0.2407   0.2444   0.2519
  0.2584   0.2652   0.2743   0.2835   0.2842   0.2886   0.2908   0.3045
  0.3065   0.3108   0.3198   0.3258   0.3333   0.3376   0.3419   0.3475
  0.3563   0.3595   0.3643   0.3709   0.3767   0.3810   0.3879   0.3918
  0.3966   0.4004   0.4075   0.4078   0.4148   0.4204   0.4310   0.4337
  0.4459   0.4469   0.4575   0.4716   0.4734   0.4838   0.4936   0.5064
  0.5234   0.5631   0.5764   0.5812   0.6013   0.6177   0.6267   0.6392
  0.6485   0.6520   0.6777   0.6821   0.6947   0.7019   0.7095   0.7209
  0.7270   0.7495   0.7521   0.7607   0.7668   0.7834   0.8039   0.8205
  0.8280   0.8526   0.8710   0.8975   0.9008   0.9221   0.9328   0.9614
  0.9699   0.9889   1.0115   1.0369   1.0396   1.0630   1.0743   1.0812
  1.0859   1.1071   1.1159   1.1275   1.1396   1.1556   1.1589   1.1724
  1.1756   1.1823   1.1890   1.2011   1.2095   1.2179   1.2239   1.2383
  1.2456   1.2516   1.2656   1.2698   1.2801   1.2838   1.3028   1.3146
  1.3241   1.3377   1.3477   1.3586   1.3693   1.3833   1.3977   1.4130
  1.4388   1.4414   1.4561   1.4688   1.4886   1.4933   1.5051   1.5216
  1.5252   1.5427   1.5556   1.5676   1.5861   1.6052   1.6087   1.6201
  1.6326   1.6510   1.6840   1.6926   1.7027   1.7202   1.7383   1.7444
  1.7734   1.7943   1.8135   1.8386   1.8516   1.8767   1.9061   1.9194
  1.9422   1.9560   1.9723   1.9873   2.0048   2.0226   2.0588   2.0793
  2.1144   2.1229   2.1528   2.2047   2.2227   2.2393   2.2721   2.2960
  2.3282   2.3507   2.3585   2.3825   2.3959   2.4018   2.4385   2.4648
  2.4740   2.4900   2.5025   2.5158   2.5467   2.5672   2.6097   2.6498
  2.6927   2.7259   2.8067   2.8119   2.8417   2.8486   2.8704   2.8948
  2.9092   2.9558   2.9797   2.9996   3.0513   3.0714   3.0982   3.1444
  3.1536   3.2033   3.2190   3.2685   3.2940   3.2976   3.3276   3.3426
  3.3731   3.3999   3.4234   3.4317   3.4561   3.4703   3.5046   3.5357
  3.5696   3.5829   3.6064   3.6111   3.6330   3.6557   3.6719   3.6866
  3.6997   3.7251   3.7462   3.7537   3.7899   3.8059   3.8132   3.8203
  3.8453   3.8521   3.8627   3.8688   3.8864   3.8974   3.9143   3.9340
  3.9398   3.9587   3.9687   4.0069   4.0611   4.0624   4.0822   4.1285
  4.1296   4.1429   4.1720   4.1927   4.2250   4.2303   4.2495   4.2518
  4.2888   4.3112   4.3481   4.3618   4.3741   4.3917   4.3982   4.4180
  4.4377   4.4516   4.4823   4.5437   4.5700   4.5812   4.6300   4.6448
  4.6896   4.7202   4.7570   4.7941   4.8745   4.8915   5.0174   5.0510
  5.1141   5.1719   5.1987   5.2106   5.2226   5.2266   5.2378   5.2462
  5.2647   5.2795   5.2906   5.2964   5.2987   5.3094   5.3260   5.3330
  5.3453   5.3583   5.3707   5.3882   5.3903   5.4063   5.4161   5.4373
  5.4547   5.4702   5.4942   5.5029   5.5156   5.5407   5.5500   5.5683
  5.5852   5.6031   5.6069   5.6269   5.6370   5.6488   5.6561   5.6760
  5.6834   5.7211   5.7708   5.7879   5.8054   5.8171   5.8448   5.9148
  5.9718   6.0015   6.0346   6.0633   6.0969   6.1071   6.1539   6.1634
  6.2568   6.2837   6.5062   6.5559   6.5885   6.7569   6.8209   6.8546
  6.8696   6.9845   7.0228   7.0592   7.0835   7.0921   7.0954   7.1105
  7.1463   7.1728   7.2573   7.2707   7.2760   7.2903   7.3067   7.3257
  7.3274   7.3454   7.3487   7.3982   7.4198   7.4302   7.4497   7.4741
  7.5071   7.5110   7.5665   7.5925   7.6169   7.6577   7.6724   7.7003
  7.7632   7.7826   7.8375   7.8653   7.8785   7.8899   7.9152   8.0232
  8.2079  24.6472  24.7961  24.8428  24.8753  50.4998  50.5608  50.5989
 50.6136  50.6290  50.6604  50.7073
 --------------------------------------------------------------
 
          Ground-State Mulliken Net Atomic Charges

     Atom                 Charge (a.u.)    Spin (a.u.)
  --------------------------------------------------------
      1 C                    -0.141814      -0.001064
      2 O                    -0.423706      -0.000020
      3 C                     0.164482      -0.006911
      4 O                    -0.389313       0.005777
      5 C                    -0.511492       0.079268
      6 C                    -0.088510       0.009490
      7 O                    -0.174147       0.840940
      8 H                     0.305927       0.000721
      9 H                     0.339395      -0.000150
     10 H                     0.299490      -0.004458
     11 H                     0.311442       0.003059
     12 H                     0.309136       0.075392
     13 O                    -0.458916       0.000490
     14 H                     0.353088       0.000055
     15 O                    -0.166862       0.001002
     16 O                    -0.281462      -0.000492
     17 H                     0.316032      -0.004155
     18 H                     0.335627      -0.000831
     19 O                    -0.444179      -0.000438
     20 H                     0.345783       0.002326
  --------------------------------------------------------
  Sum of atomic charges =     0.000000
  Sum of spin   charges =     1.000000

 -----------------------------------------------------------------
                    Cartesian Multipole Moments
 -----------------------------------------------------------------
    Charge (ESU x 10^10)
                 0.0000
    Dipole Moment (Debye)
         X       0.5471      Y       4.2094      Z      -1.9095
       Tot       4.6545
    Quadrupole Moments (Debye-Ang)
        XX     -58.3473     XY      12.6443     YY     -74.5244
        XZ      -6.1637     YZ      -5.8028     ZZ     -65.6640
    Octopole Moments (Debye-Ang^2)
       XXX    -686.8433    XXY      33.7894    XYY    -301.9503
       YYY      90.3882    XXZ     -45.2285    XYZ     -26.1470
       YYZ       4.0419    XZZ    -267.3466    YZZ      13.3252
       ZZZ     -51.4634
    Hexadecapole Moments (Debye-Ang^3)
      XXXX   -5956.1439   XXXY    -130.0938   XXYY   -1533.8429
      XYYY     160.4071   YYYY    -827.3235   XXXZ    -457.5631
      XXYZ    -195.6797   XYYZ     -60.6541   YYYZ    -193.4831
      XXZZ   -1278.4282   XYZZ     -20.0307   YYZZ    -272.9420
      XZZZ    -307.8817   YZZZ    -194.8142   ZZZZ    -574.1177
 -----------------------------------------------------------------
 Calculating analytic gradient of the SCF energy
 Gradient of CDS energy
            1           2           3           4           5           6
    1  -0.0027477   0.0017836  -0.0019153   0.0020077  -0.0000696  -0.0005834
    2  -0.0015408  -0.0015841  -0.0009303   0.0009392   0.0000540   0.0021208
    3  -0.0001525   0.0002350   0.0032238  -0.0034708  -0.0000993   0.0047634
            7           8           9          10          11          12
    1   0.0021946   0.0002464  -0.0003988  -0.0001758   0.0000824  -0.0000949
    2   0.0009087  -0.0000395   0.0002266  -0.0000208  -0.0000424  -0.0001518
    3  -0.0047822  -0.0000028  -0.0002413   0.0000383  -0.0001052  -0.0000467
           13          14          15          16          17          18
    1   0.0011941  -0.0002780  -0.0000439  -0.0002786  -0.0001369   0.0004722
    2   0.0031091  -0.0003672  -0.0000116  -0.0000398  -0.0001054  -0.0000525
    3  -0.0001421   0.0001819  -0.0000772   0.0000945   0.0003660  -0.0001485
           19          20
    1  -0.0012352  -0.0000230
    2  -0.0029903   0.0005181
    3   0.0003659  -0.0000003
 Gradient of SCF Energy
            1           2           3           4           5           6
    1  -0.0023816   0.0026205   0.0063843  -0.0011746   0.0020240  -0.0156156
    2   0.0012817   0.0008645   0.0028501  -0.0019874  -0.0129075   0.0074073
    3   0.0034009   0.0114853  -0.0018710  -0.0016662   0.0147585  -0.0045256
            7           8           9          10          11          12
    1   0.0004850   0.0004955  -0.0044690  -0.0049440   0.0066723   0.0107609
    2  -0.0006422   0.0045906   0.0001143   0.0081452   0.0016231  -0.0090837
    3   0.0022620  -0.0047985  -0.0109392   0.0020417  -0.0100565  -0.0036419
           13          14          15          16          17          18
    1   0.0023373  -0.0021582  -0.0034532  -0.0114407   0.0013124   0.0108272
    2  -0.0047726   0.0001504  -0.0040534  -0.0132564   0.0025524   0.0142745
    3  -0.0001909  -0.0007218   0.0016637  -0.0074000   0.0030075   0.0071533
           19          20
    1   0.0139985  -0.0122809
    2  -0.0059814   0.0088304
    3   0.0020956  -0.0020570
 Max gradient component =       1.562E-02
 RMS gradient           =       6.899E-03
 Computing fast CPCM-SWIG gradient
 Updating gradient with PCM contributions...
 -- total gradient after adding PCM contribution --
---------------------------------------------------
  Atom         X              Y              Z     
---------------------------------------------------
   1       0.001260       0.000375      -0.000683
   2      -0.000633      -0.000683      -0.002482
   3       0.001554       0.000697      -0.001321
   4       0.002484       0.001623       0.002157
   5      -0.000159      -0.000057       0.000439
   6       0.001452      -0.001572      -0.001746
   7      -0.000718      -0.000972      -0.000278
   8      -0.000732       0.000263       0.000794
   9       0.000511       0.000325       0.001759
  10       0.000717      -0.000557      -0.000162
  11      -0.000161      -0.000492       0.000910
  12      -0.000962      -0.000624      -0.001211
  13      -0.001250       0.000506       0.001874
  14       0.000597      -0.000534      -0.001589
  15      -0.000206       0.000279       0.000578
  16       0.000916       0.000647      -0.000040
  17      -0.001451      -0.000720      -0.000981
  18      -0.002675       0.000645       0.001968
  19      -0.002303       0.001498      -0.000130
  20       0.001761      -0.000646       0.000143
---------------------------------------------------
 Number of fixed atoms: 0
 Gradient time:  CPU 386.89 s  wall 32.35 s
 Geometry Optimization Parameters
   NAtoms,    NIC,     NZ,  NCons,   NDum,   NFix, NCnnct, MaxDiis
       20     132       0       0       0       0       0       0

 Cartesian Hessian Update
 Hessian updated using BFGS update


[...]
    1   0.0011216  -0.0002742  -0.0000521  -0.0002842  -0.0001297   0.0004764
    2   0.0030445  -0.0003719  -0.0000129  -0.0000292  -0.0001124  -0.0000682
    3  -0.0001063   0.0001784  -0.0000855   0.0001044   0.0003637  -0.0001570
           19          20
    1  -0.0012549  -0.0000132
    2  -0.0028640   0.0005181
    3   0.0004007  -0.0000200
 Gradient of SCF Energy
            1           2           3           4           5           6
    1  -0.0030016   0.0029415   0.0038848  -0.0039408   0.0025575  -0.0163138
    2   0.0006932   0.0008404   0.0020871  -0.0037480  -0.0130011   0.0093935
    3   0.0043314   0.0146542  -0.0008446  -0.0038947   0.0143825  -0.0028373
            7           8           9          10          11          12
    1   0.0010790   0.0011676  -0.0046736  -0.0056558   0.0066272   0.0113946
    2   0.0006022   0.0045186   0.0003829   0.0086440   0.0023796  -0.0093706
    3   0.0023553  -0.0057276  -0.0131979   0.0019072  -0.0111034  -0.0029597
           13          14          15          16          17          18
    1   0.0034814  -0.0026923  -0.0034085  -0.0137408   0.0029904   0.0148515
    2  -0.0053192   0.0006684  -0.0043461  -0.0128919   0.0032354   0.0134073
    3  -0.0020613   0.0008048   0.0014038  -0.0078970   0.0040757   0.0064738
           19          20
    1   0.0163212  -0.0138696
    2  -0.0075775   0.0094018
    3   0.0035949  -0.0034603
 Max gradient component =       1.632E-02
 RMS gradient           =       7.572E-03
 Computing fast CPCM-SWIG gradient
 Updating gradient with PCM contributions...
 -- total gradient after adding PCM contribution --
---------------------------------------------------
  Atom         X              Y              Z     
---------------------------------------------------
   1      -0.000007       0.000037      -0.000005
   2      -0.000032      -0.000005       0.000031
   3      -0.000073      -0.000028       0.000035
   4      -0.000057      -0.000005      -0.000016
   5      -0.000041      -0.000002      -0.000066
   6      -0.000021       0.000014       0.000296
   7       0.000069       0.000021      -0.000164
   8       0.000002      -0.000016      -0.000015
   9      -0.000013       0.000009      -0.000049
  10      -0.000007      -0.000005      -0.000010
  11       0.000031      -0.000029      -0.000001
  12       0.000021      -0.000051      -0.000044
  13       0.000009      -0.000017      -0.000040
  14      -0.000052       0.000023       0.000060
  15      -0.000039      -0.000023       0.000021
  16       0.000082       0.000000      -0.000005
  17       0.000005       0.000066       0.000085
  18       0.000070      -0.000026      -0.000054
  19       0.000084       0.000004      -0.000053
  20      -0.000032       0.000033      -0.000003
---------------------------------------------------
 Number of fixed atoms: 0
 Gradient time:  CPU 386.46 s  wall 32.30 s
 Geometry Optimization Parameters
   NAtoms,    NIC,     NZ,  NCons,   NDum,   NFix, NCnnct, MaxDiis
       20     132       0       0       0       0       0       0

 Cartesian Hessian Update
 Hessian updated using BFGS update


** GEOMETRY OPTIMIZATION IN DELOCALIZED INTERNAL COORDINATES **
   Searching for a Minimum

   Optimization Cycle:  10

                       Coordinates (Angstroms)
     ATOM                X               Y               Z
      1  C         2.6357504276   -1.0143044783   -1.0732865324
      2  O         1.5624479679   -0.1057922124   -1.0397811157
      3  C         3.5468746858   -0.6721397213    0.1160109193
      4  O         2.8564732892   -1.0123859130    1.2758488268
      5  C         4.0068460658    0.7753177431    0.0715267424
      6  C         5.0339231255    1.1364159094    1.1736381246
      7  O         4.4585558983    0.9659007623    2.3855502441
      8  H         3.1933495921   -0.9247107006   -2.0027159778
      9  H         1.0925899059   -0.1691958861   -1.8790766313
     10  H         3.1447300428    1.4300757078    0.1799183236
     11  H         4.4830375056    0.9846882732   -0.8835575054
     12  H         5.8748007296    0.4247166159    1.1269057441
     13  O         2.1950535074   -2.3464199360   -1.0048630096
     14  H         1.7878721215   -2.4837349242   -0.1388150634
     15  O         4.6679521807   -1.5828916389    0.1233722188
     16  O         5.4319142072   -1.4066465783   -1.0692159500
     17  H         3.2913475918   -0.5799501800    2.0273849197
     18  H         6.2063053787   -0.9171635840   -0.7537392997
     19  O         5.5768602483    2.4167130646    0.9688806334
     20  H         4.8527130281    3.0501758770    0.8832890882
   Point Group: c1    Number of degrees of freedom:    54


   Energy is   -684.320126016

 Hessian updated using BFGS update

 54 Hessian modes will be used to form the next step
  Hessian Eigenvalues:
     0.001836    0.003622    0.004541    0.007084    0.007558    0.014692
     0.014813    0.016889    0.021725    0.042296    0.049884    0.055170
     0.058153    0.058794    0.062344    0.063334    0.063982    0.084236
     0.094047    0.106846    0.121496    0.129114    0.159502    0.159976
     0.164166    0.172161    0.177738    0.188363    0.197284    0.198025
     0.209177    0.229971    0.235371    0.260427    0.287569    0.301581
     0.307646    0.334133    0.343853    0.344848    0.346549    0.369910
     0.388903    0.427782    0.442739    0.445815    0.458133    0.497120
     0.503532    0.522843    0.524189    0.525803    0.529539    0.546049

 Minimum search - taking simple RFO step
 Searching for Lamda that Minimizes Along All modes
 Value Taken    Lamda =  -0.00000090
 Step Taken.  Stepsize is  0.009608

                             Maximum     Tolerance    Cnvgd?
         Gradient           0.000185      0.000300     YES
         Displacement       0.004081      0.001200      NO
         Energy change     -0.000001      0.000001     YES

 Final energy is   -684.320126016402     


 ******************************
 **  OPTIMIZATION CONVERGED  **
 ******************************

                       Coordinates (Angstroms)
     ATOM                X               Y               Z
      1  C         2.6357504276   -1.0143044783   -1.0732865324
      2  O         1.5624479679   -0.1057922124   -1.0397811157
      3  C         3.5468746858   -0.6721397213    0.1160109193
      4  O         2.8564732892   -1.0123859130    1.2758488268
      5  C         4.0068460658    0.7753177431    0.0715267424
      6  C         5.0339231255    1.1364159094    1.1736381246
      7  O         4.4585558983    0.9659007623    2.3855502441
      8  H         3.1933495921   -0.9247107006   -2.0027159778
      9  H         1.0925899059   -0.1691958861   -1.8790766313
     10  H         3.1447300428    1.4300757078    0.1799183236
     11  H         4.4830375056    0.9846882732   -0.8835575054
     12  H         5.8748007296    0.4247166159    1.1269057441
     13  O         2.1950535074   -2.3464199360   -1.0048630096
     14  H         1.7878721215   -2.4837349242   -0.1388150634
     15  O         4.6679521807   -1.5828916389    0.1233722188
     16  O         5.4319142072   -1.4066465783   -1.0692159500
     17  H         3.2913475918   -0.5799501800    2.0273849197
     18  H         6.2063053787   -0.9171635840   -0.7537392997
     19  O         5.5768602483    2.4167130646    0.9688806334
     20  H         4.8527130281    3.0501758770    0.8832890882

Z-matrix Print:
$molecule
0 2
O 
O  1 1.427223
H  2 0.968917 1 102.599099
C  1 1.444416 2 109.471159 3 104.523128 0
O  4 1.391993 1 103.096096 2 176.308845 0
H  5 0.970012 4 108.314272 1 81.165206 0
C  4 1.519436 1 111.460137 2 -60.947693 0
H  7 1.087557 4 109.977729 1 67.198295 0
H  7 1.087980 4 109.299457 1 -173.692560 0
C  4 1.536767 1 108.887967 2 62.657657 0
H  10 1.087558 4 109.819292 1 -59.527623 0
O  10 1.404787 4 111.065429 1 57.758239 0
H  12 0.966794 10 108.085749 4 53.831919 0
O  10 1.406590 4 106.867341 1 179.986001 0
H  14 0.963952 10 107.981529 4 167.273968 0
C  7 1.549170 4 113.698483 1 -52.543131 0
H  16 1.102622 7 108.965577 4 53.639002 0
O  16 1.352351 7 109.030963 4 -62.013460 0
O  16 1.405655 7 111.392373 4 171.073732 0
H  19 0.965914 16 108.703112 7 53.533608 0
$end

 
 --------------------------------------------------------------
 
                    Orbital Energies (a.u.)
 --------------------------------------------------------------
 
 Alpha MOs
 -- Occupied --
-19.4056 -19.4025 -19.3991 -19.3582 -19.3494 -19.3487 -19.3475 -10.4680
-10.4619 -10.4494 -10.3616  -1.2797  -1.2205  -1.2116  -1.1828  -1.1429
 -1.1382  -1.0403  -0.9098  -0.8381  -0.7629  -0.7388  -0.6927  -0.6614
 -0.6561  -0.6303  -0.6195  -0.6053  -0.5912  -0.5755  -0.5667  -0.5632
 -0.5349  -0.5153  -0.4983  -0.4820  -0.4654  -0.4526  -0.4473  -0.4337
 -0.4315  -0.4219  -0.4140  -0.3994  -0.3875
 -- Virtual --
  0.0269   0.0373   0.0405   0.0428   0.0614   0.0660   0.0700   0.0747
  0.0914   0.0956   0.1125   0.1208   0.1260   0.1280   0.1373   0.1485
  0.1511   0.1546   0.1589   0.1693   0.1723   0.1816   0.1835   0.1926
  0.2009   0.2085   0.2144   0.2340   0.2417   0.2435   0.2503   0.2566
  0.2639   0.2739   0.2830   0.2841   0.2857   0.2906   0.3019   0.3030
  0.3104   0.3162   0.3259   0.3322   0.3365   0.3418   0.3471   0.3553
  0.3600   0.3614   0.3678   0.3773   0.3789   0.3854   0.3901   0.3937
  0.4000   0.4045   0.4090   0.4137   0.4188   0.4279   0.4322   0.4452
  0.4469   0.4576   0.4721   0.4753   0.4844   0.4889   0.5072   0.5205
  0.5598   0.5731   0.5833   0.5974   0.6159   0.6241   0.6364   0.6479
  0.6542   0.6772   0.6834   0.6912   0.7003   0.7051   0.7220   0.7238
  0.7474   0.7507   0.7580   0.7700   0.7848   0.8043   0.8248   0.8296
  0.8541   0.8712   0.8952   0.8996   0.9175   0.9325   0.9516   0.9751
  0.9823   1.0065   1.0318   1.0452   1.0621   1.0732   1.0793   1.0860
  1.1086   1.1160   1.1238   1.1337   1.1503   1.1557   1.1647   1.1778
  1.1813   1.1875   1.1992   1.2064   1.2174   1.2198   1.2379   1.2404
  1.2502   1.2521   1.2675   1.2800   1.2847   1.3020   1.3106   1.3179
  1.3358   1.3376   1.3518   1.3641   1.3796   1.3954   1.4062   1.4328
  1.4406   1.4570   1.4722   1.4828   1.4922   1.5021   1.5162   1.5252
  1.5380   1.5519   1.5598   1.5834   1.6033   1.6046   1.6199   1.6300
  1.6477   1.6852   1.6886   1.6964   1.7170   1.7308   1.7425   1.7642
  1.7753   1.8105   1.8267   1.8412   1.8695   1.9010   1.9115   1.9365
  1.9459   1.9667   1.9818   1.9987   2.0199   2.0569   2.0766   2.1048
  2.1188   2.1481   2.1976   2.2218   2.2402   2.2628   2.2941   2.3210
  2.3501   2.3564   2.3856   2.3901   2.4048   2.4348   2.4596   2.4694
  2.4858   2.4973   2.5107   2.5398   2.5625   2.6041   2.6523   2.6952
  2.7193   2.7975   2.8044   2.8360   2.8489   2.8671   2.8956   2.9008
  2.9517   2.9684   2.9912   3.0490   3.0658   3.0927   3.1329   3.1491
  3.1996   3.2170   3.2672   3.2865   3.2932   3.3218   3.3443   3.3697
  3.3988   3.4182   3.4301   3.4551   3.4653   3.4995   3.5279   3.5652
  3.5795   3.5961   3.6095   3.6362   3.6545   3.6697   3.6878   3.6963
  3.7223   3.7448   3.7527   3.7890   3.8066   3.8120   3.8159   3.8430
  3.8467   3.8599   3.8649   3.8818   3.8949   3.9110   3.9298   3.9398
  3.9583   3.9665   4.0004   4.0313   4.0641   4.0766   4.1189   4.1235
  4.1387   4.1682   4.1854   4.2207   4.2238   4.2458   4.2497   4.2849
  4.3041   4.3358   4.3544   4.3654   4.3820   4.3935   4.4114   4.4311
  4.4361   4.4758   4.5276   4.5605   4.5746   4.6236   4.6402   4.6806
  4.7161   4.7499   4.7920   4.8675   4.8952   5.0193   5.0509   5.0771
  5.1273   5.1466   5.1702   5.2147   5.2204   5.2307   5.2346   5.2519
  5.2692   5.2762   5.2903   5.2970   5.2990   5.3147   5.3207   5.3306
  5.3566   5.3633   5.3749   5.3838   5.3938   5.4045   5.4288   5.4368
  5.4511   5.4904   5.4955   5.5085   5.5324   5.5339   5.5597   5.5865
  5.5900   5.6059   5.6239   5.6331   5.6406   5.6516   5.6682   5.6815
  5.7190   5.7690   5.7772   5.7978   5.8088   5.8382   5.9133   5.9594
  5.9821   6.0324   6.0569   6.0819   6.0950   6.1511   6.1640   6.2532
  6.2769   6.5002   6.5459   6.5876   6.7554   6.8145   6.8370   6.8678
  6.8945   7.0009   7.0208   7.0615   7.0830   7.0877   7.1074   7.1377
  7.1646   7.2457   7.2580   7.2707   7.2787   7.2881   7.3141   7.3209
  7.3371   7.3430   7.3720   7.3986   7.4235   7.4304   7.4649   7.5026
  7.5142   7.5525   7.5908   7.6157   7.6375   7.6706   7.6966   7.7427
  7.7785   7.8359   7.8620   7.8666   7.8886   7.9158   8.0220   8.2060
 24.6406  24.7868  24.8404  24.8705  50.4976  50.5470  50.5953  50.6116
 50.6288  50.6587  50.7081
 
 Beta MOs
 -- Occupied --
-19.4056 -19.3990 -19.3807 -19.3581 -19.3495 -19.3487 -19.3475 -10.4681
-10.4622 -10.4494 -10.3596  -1.2796  -1.2130  -1.1998  -1.1825  -1.1382
 -1.1135  -1.0402  -0.9050  -0.8334  -0.7539  -0.7365  -0.6924  -0.6556
 -0.6539  -0.6216  -0.6125  -0.5952  -0.5846  -0.5734  -0.5625  -0.5449
 -0.5343  -0.5047  -0.4819  -0.4735  -0.4634  -0.4499  -0.4347  -0.4272
 -0.4167  -0.4109  -0.4006  -0.3899
 -- Virtual --
 -0.0765   0.0273   0.0373   0.0407   0.0429   0.0614   0.0663   0.0706
  0.0749   0.0916   0.0957   0.1133   0.1212   0.1263   0.1280   0.1382
  0.1486   0.1519   0.1548   0.1594   0.1696   0.1728   0.1819   0.1837
  0.1929   0.2014   0.2091   0.2148   0.2353   0.2424   0.2447   0.2513
  0.2576   0.2648   0.2743   0.2836   0.2847   0.2872   0.2916   0.3035
  0.3040   0.3108   0.3185   0.3261   0.3327   0.3389   0.3423   0.3485
  0.3559   0.3605   0.3634   0.3695   0.3776   0.3809   0.3867   0.3910
  0.3954   0.4006   0.4063   0.4097   0.4165   0.4201   0.4301   0.4324
  0.4455   0.4477   0.4585   0.4737   0.4755   0.4843   0.4899   0.5091
  0.5222   0.5627   0.5753   0.5838   0.5989   0.6166   0.6246   0.6381
  0.6502   0.6547   0.6779   0.6837   0.6926   0.7016   0.7072   0.7244
  0.7250   0.7487   0.7518   0.7602   0.7709   0.7857   0.8048   0.8257
  0.8298   0.8543   0.8718   0.8961   0.9009   0.9189   0.9336   0.9518
  0.9757   0.9842   1.0069   1.0321   1.0475   1.0630   1.0737   1.0823
  1.0865   1.1093   1.1171   1.1265   1.1397   1.1533   1.1569   1.1732
  1.1788   1.1834   1.1891   1.2012   1.2111   1.2178   1.2215   1.2392
  1.2438   1.2517   1.2618   1.2687   1.2826   1.2867   1.3040   1.3142
  1.3221   1.3366   1.3425   1.3534   1.3660   1.3817   1.3981   1.4075
  1.4365   1.4436   1.4592   1.4730   1.4865   1.4952   1.5034   1.5177
  1.5272   1.5415   1.5547   1.5614   1.5846   1.6058   1.6090   1.6221
  1.6326   1.6500   1.6867   1.6903   1.6983   1.7204   1.7359   1.7456
  1.7698   1.7880   1.8140   1.8369   1.8482   1.8727   1.9049   1.9189
  1.9394   1.9500   1.9697   1.9842   2.0009   2.0224   2.0588   2.0788
  2.1093   2.1226   2.1554   2.2013   2.2233   2.2433   2.2651   2.2972
  2.3242   2.3522   2.3592   2.3865   2.3943   2.4051   2.4399   2.4625
  2.4730   2.4871   2.4992   2.5142   2.5450   2.5636   2.6053   2.6551
  2.6958   2.7247   2.7996   2.8063   2.8374   2.8529   2.8680   2.8984
  2.9052   2.9549   2.9714   2.9951   3.0513   3.0678   3.0974   3.1355
  3.1507   3.2012   3.2178   3.2700   3.2905   3.2947   3.3259   3.3457
  3.3710   3.4004   3.4230   3.4332   3.4566   3.4682   3.5023   3.5304
  3.5667   3.5802   3.5964   3.6122   3.6371   3.6551   3.6706   3.6897
  3.6974   3.7240   3.7460   3.7539   3.7913   3.8083   3.8133   3.8175
  3.8449   3.8492   3.8606   3.8658   3.8828   3.8978   3.9124   3.9309
  3.9419   3.9618   3.9676   4.0024   4.0330   4.0650   4.0799   4.1233
  4.1274   4.1404   4.1710   4.1881   4.2232   4.2285   4.2470   4.2510
  4.2878   4.3049   4.3413   4.3565   4.3686   4.3865   4.3978   4.4158
  4.4349   4.4408   4.4770   4.5349   4.5663   4.5777   4.6269   4.6418
  4.6860   4.7178   4.7535   4.7952   4.8683   4.8986   5.0215   5.0517
  5.1101   5.1708   5.1972   5.2123   5.2225   5.2281   5.2405   5.2490
  5.2635   5.2783   5.2898   5.2953   5.3010   5.3104   5.3216   5.3309
  5.3472   5.3590   5.3697   5.3871   5.3881   5.4039   5.4099   5.4342
  5.4479   5.4705   5.4960   5.5031   5.5132   5.5374   5.5440   5.5661
  5.5894   5.5941   5.6082   5.6256   5.6346   5.6468   5.6539   5.6705
  5.6822   5.7195   5.7698   5.7805   5.8020   5.8116   5.8417   5.9156
  5.9698   6.0003   6.0327   6.0579   6.0940   6.1040   6.1523   6.1651
  6.2535   6.2869   6.5008   6.5526   6.5886   6.7555   6.8189   6.8538
  6.8680   6.9816   7.0208   7.0557   7.0819   7.0870   7.0920   7.1109
  7.1430   7.1702   7.2486   7.2647   7.2710   7.2846   7.3002   7.3212
  7.3229   7.3413   7.3489   7.3926   7.4202   7.4261   7.4500   7.4707
  7.5050   7.5166   7.5661   7.5923   7.6169   7.6536   7.6707   7.6978
  7.7618   7.7794   7.8375   7.8625   7.8757   7.8909   7.9159   8.0222
  8.2061  24.6417  24.7873  24.8403  24.8706  50.4977  50.5573  50.5977
 50.6128  50.6288  50.6598  50.7082
 --------------------------------------------------------------
 
          Ground-State Mulliken Net Atomic Charges

     Atom                 Charge (a.u.)    Spin (a.u.)
  --------------------------------------------------------
      1 C                    -0.149495      -0.001004
      2 O                    -0.423794      -0.000031
      3 C                     0.175627      -0.005669
      4 O                    -0.390871       0.004693
      5 C                    -0.479900       0.076874
      6 C                    -0.116327       0.010600
      7 O                    -0.173003       0.840826
      8 H                     0.305465       0.000664
      9 H                     0.338460      -0.000144
     10 H                     0.300868      -0.004454
     11 H                     0.297812       0.003280
     12 H                     0.312093       0.076682
     13 O                    -0.458778       0.000473
     14 H                     0.353393       0.000047
     15 O                    -0.160874       0.001030
     16 O                    -0.285812      -0.000582
     17 H                     0.316027      -0.003970
     18 H                     0.338407      -0.000815
     19 O                    -0.444550      -0.000819
     20 H                     0.345253       0.002319
  --------------------------------------------------------
  Sum of atomic charges =     0.000000
  Sum of spin   charges =     1.000000

 -----------------------------------------------------------------
                    Cartesian Multipole Moments
 -----------------------------------------------------------------
    Charge (ESU x 10^10)
                 0.0000
    Dipole Moment (Debye)
         X       0.6956      Y       4.1168      Z      -2.0700
       Tot       4.6601
    Quadrupole Moments (Debye-Ang)
        XX     -56.9727     XY      11.6241     YY     -74.5684
        XZ      -6.7448     YZ      -6.6862     ZZ     -65.9706
    Octopole Moments (Debye-Ang^2)
       XXX    -674.5603    XXY      26.1623    XYY    -301.2515
       YYY      89.7072    XXZ     -48.1888    XYZ     -29.2727
       YYZ       2.2151    XZZ    -268.0733    YZZ      12.3185
       ZZZ     -52.5177
    Hexadecapole Moments (Debye-Ang^3)
      XXXX   -5852.0800   XXXY    -184.7757   XXYY   -1526.1562
      XYYY     158.7885   YYYY    -833.9335   XXXZ    -475.4195
      XXYZ    -208.1393   XYYZ     -68.3689   YYYZ    -204.3259
      XXZZ   -1279.2328   XYZZ     -25.6146   YYZZ    -279.9327
      XZZZ    -308.6268   YZZZ    -203.6719   ZZZZ    -582.4333
 -----------------------------------------------------------------
 Total job time:  2482.94s(wall), 35481.98s(cpu) 
 Mon Jun 24 14:43:33 2024

        *************************************************************
        *                                                           *
        *  Thank you very much for using Q-Chem.  Have a nice day.  *
        *                                                           *
        *************************************************************


